propane in hexadecane
 3600
    1SOL     OW    1   0.071   0.294   0.111  0.0674 -0.1648 -0.3208
    1SOL    HW1    2   0.006   0.363   0.107  0.1295 -0.0535  0.3673
    1SOL    HW2    3   0.021   0.214   0.124  0.0337 -0.1454 -0.3329
    1SOL     MW    4   0.056   0.293   0.112  0.0672 -0.1502 -0.2330
    2SOL     OW    5   2.982   2.021   1.252  0.2513  0.6646 -0.1351
    2SOL    HW1    6   2.893   1.988   1.256 -0.2264  1.9904  2.6578
    2SOL    HW2    7   3.036   1.953   1.293  0.4404  0.2284 -1.0720
    2SOL     MW    8   2.978   2.008   1.258  0.2202  0.7873  0.1044
    3SOL     OW    9   1.585   2.154   1.375 -0.1374  0.0805  0.3092
    3SOL    HW1   10   1.598   2.105   1.295  0.4071  1.2125 -0.3207
    3SOL    HW2   11   1.522   2.102   1.425 -0.6234 -0.5506 -0.9156
    3SOL     MW   12   1.578   2.141   1.371 -0.1373  0.1458  0.0694
    4SOL     OW   13   0.375   2.234   2.538 -0.6654  0.4573 -0.1951
    4SOL    HW1   14   0.315   2.292   2.492 -1.4498  0.4069  0.7468
    4SOL    HW2   15   0.320   2.163   2.571  0.1544 -0.4275 -0.6472
    4SOL     MW   16   0.360   2.232   2.536 -0.6704  0.3295 -0.1296
    5SOL     OW   17   1.107   0.374   0.487  0.0297 -0.8123  0.0942
    5SOL    HW1   18   1.185   0.369   0.432  1.9742  1.4444  2.4016
    5SOL    HW2   19   1.046   0.428   0.437  1.2437  0.1365 -0.4033
    5SOL     MW   20   1.109   0.380   0.473  0.4480 -0.3900  0.3377
    6SOL     OW   21   0.074   1.228   2.878  0.0279 -0.2260 -0.2533
    6SOL    HW1   22   0.073   1.307   2.932  0.3479 -0.9153  0.7805
    6SOL    HW2   23   0.152   1.181   2.906 -0.0113 -0.7874 -1.0529
    6SOL     MW   24   0.084   1.232   2.888  0.0546 -0.3890 -0.2177
    7SOL     OW   25   0.839   2.790   2.541 -0.2531 -0.0703  0.5143
    7SOL    HW1   26   0.806   2.717   2.595  1.2927 -0.6326  0.7398
    7SOL    HW2   27   0.818   2.765   2.451 -1.2852  0.0476  0.7097
    7SOL     MW   28   0.832   2.777   2.536 -0.1903 -0.1349  0.5608
    8SOL     OW   29   1.228   1.496   2.282 -0.1996 -0.0941  0.2341
    8SOL    HW1   30   1.302   1.547   2.250 -0.9116  0.9184  0.1503
    8SOL    HW2   31   1.206   1.535   2.366 -0.6658 -0.3508  0.2338
    8SOL     MW   32   1.235   1.508   2.289 -0.3543  0.0036  0.2228
    9SOL     OW   33   1.531   1.076   1.936  0.3115  0.0990  0.5417
    9SOL    HW1   34   1.444   1.041   1.919 -0.3510  2.4542 -1.6209
    9SOL    HW2   35   1.514   1.162   1.976  1.6888 -0.0394  1.4651
    9SOL     MW   36   1.517   1.083   1.939  0.4075  0.3777  0.3805
   10SOL     OW   37   2.876  -0.025   2.539 -0.0767 -0.0623  0.5449
   10SOL    HW1   38   2.930   0.043   2.500  0.9799 -2.0033 -1.6034
   10SOL    HW2   39   2.793   0.019   2.559  0.2112  1.6559 -1.6624
   10SOL     MW   40   2.872  -0.011   2.537  0.1050 -0.0881 -0.0353
   11SOL     OW   41   1.089   1.203   1.525 -0.7458 -0.1702 -0.6728
   11SOL    HW1   42   1.061   1.229   1.438 -1.0365  1.6221 -0.0765
   11SOL    HW2   43   1.158   1.266   1.548 -0.9860 -0.3359  0.5661
   11SOL     MW   44   1.095   1.214   1.517 -0.8172  0.0423 -0.4309
   12SOL     OW   45   2.437   1.277   1.402 -0.2002  0.2178 -0.5704
   12SOL    HW1   46   2.470   1.227   1.327 -1.1833  0.3625 -1.1302
   12SOL    HW2   47   2.443   1.217   1.476  1.4673  0.3123 -0.5915
   12SOL     MW   48   2.442   1.262   1.402 -0.1109  0.2459 -0.6475
   13SOL     OW   49   0.299   2.617   2.409 -0.3625 -0.1231 -0.2146
   13SOL    HW1   50   0.357   2.591   2.338  0.5683  1.0530  0.0758
   13SOL    HW2   51   0.258   2.536   2.437  0.9177 -0.9534 -0.6355
   13SOL     MW   52   0.301   2.603   2.403 -0.0717 -0.0790 -0.2365
   14SOL     OW   53   2.646   1.451   2.901  0.2095  0.0422 -0.2818
   14SOL    HW1   54   2.630   1.481   2.811 -1.8373  3.4185  1.0254
   14SOL    HW2   55   2.730   1.491   2.924  0.2792 -0.0373 -0.3966
   14SOL     MW   56   2.655   1.460   2.892 -0.0491  0.4858 -0.1227
   15SOL     OW   57   0.440   2.188   1.896  0.2205  1.3825 -0.0370
   15SOL    HW1   58   0.354   2.228   1.904 -0.5681 -0.3073  0.2984
   15SOL    HW2   59   0.438   2.114   1.957  1.6212  0.8305 -0.6160
   15SOL     MW   60   0.429   2.184   1.905  0.3041  1.0860 -0.0753
   16SOL     OW   61   0.561   0.088   0.720 -0.4960  0.2476  0.0989
   16SOL    HW1   62   0.523   0.130   0.797  1.9670 -0.1100  1.6192
   16SOL    HW2   63   0.513   0.006   0.710 -1.6825  0.8825  0.4590
   16SOL     MW   64   0.550   0.083   0.729 -0.3332  0.2824  0.3417
   17SOL     OW   65   2.965   2.513   1.673  0.4445 -0.0395  0.2759
   17SOL    HW1   66   2.990   2.603   1.651 -2.4606  0.8301  0.0829
   17SOL    HW2   67   2.946   2.516   1.766  1.6245 -0.8513  0.5694
   17SOL     MW   68   2.966   2.525   1.682  0.2074 -0.0360  0.2888
   18SOL     OW   69   0.575   1.788   0.438 -0.0685 -0.0001 -0.1328
   18SOL    HW1   70   0.605   1.858   0.381 -0.6737  1.6806  1.5031
   18SOL    HW2   71   0.611   1.708   0.399  1.2912  1.2750 -1.6397
   18SOL     MW   72   0.583   1.787   0.426  0.0319  0.3824 -0.1191
   19SOL     OW   73   1.717   0.806   2.919 -0.5494 -0.3349  0.0737
   19SOL    HW1   74   1.778   0.733   2.904  0.3222 -0.8017  4.5155
   19SOL    HW2   75   1.773   0.878   2.949 -1.8929 -0.0897  2.2238
   19SOL     MW   76   1.733   0.806   2.921 -0.6202 -0.3640  0.9496
   20SOL     OW   77   2.244   1.328   0.413  0.0435  0.2720 -0.1971
   20SOL    HW1   78   2.251   1.266   0.486  0.5907 -0.4406 -0.8402
   20SOL    HW2   79   2.194   1.402   0.449 -0.5740 -0.5099  0.5962
   20SOL     MW   80   2.238   1.330   0.428  0.0337  0.0728 -0.1693
   21SOL     OW   81   1.951   1.074   0.366 -0.1138  0.3359  0.0384
   21SOL    HW1   82   1.973   1.158   0.324 -0.2584  1.5129  2.2094
   21SOL    HW2   83   2.027   1.019   0.349  0.2917  1.1251 -0.8362
   21SOL     MW   84   1.964   1.078   0.358 -0.0733  0.5926  0.2077
   22SOL     OW   85   0.460   2.716   0.973  0.0926  0.1842 -0.0546
   22SOL    HW1   86   0.450   2.728   0.878  0.1931  1.3026  0.0686
   22SOL    HW2   87   0.541   2.763   0.995  0.6626 -0.9741  0.4305
   22SOL     MW   88   0.470   2.724   0.963  0.1810  0.1816  0.0294
   23SOL     OW   89   2.958   2.532   2.933 -0.3545 -0.2637  0.5145
   23SOL    HW1   90   3.002   2.449   2.946 -1.2636 -0.7193  0.7882
   23SOL    HW2   91   2.999   2.592   2.996 -0.5164 -0.8281  1.1709
   23SOL     MW   92   2.969   2.529   2.943 -0.4951 -0.3905  0.6316
   24SOL     OW   93   2.482   0.058   2.906  0.5784  0.5334 -0.0441
   24SOL    HW1   94   2.496   0.130   2.967  0.1993  1.6409 -1.2122
   24SOL    HW2   95   2.407   0.010   2.943 -0.2062  1.6924 -0.0629
   24SOL     MW   96   2.474   0.061   2.919  0.4286  0.8279 -0.2066
   25SOL     OW   97   1.488   1.303   1.400 -0.1159 -0.3905 -0.4696
   25SOL    HW1   98   1.439   1.338   1.475  0.4244 -1.0075  0.1931
   25SOL    HW2   99   1.471   1.209   1.403  0.9712 -0.5932 -0.3268
   25SOL     MW  100   1.479   1.295   1.411  0.0924 -0.5041 -0.3591
   26SOL     OW  101   0.858   2.351   0.838 -0.1961  0.0349 -0.5788
   26SOL    HW1  102   0.825   2.353   0.928 -0.4482  0.7719 -0.6827
   26SOL    HW2  103   0.864   2.443   0.812 -0.3614 -0.1785 -1.4038
   26SOL     MW  104   0.855   2.363   0.846 -0.2528  0.1043 -0.7009
   27SOL     OW  105   2.930   2.172   0.167 -0.6825 -0.3641 -0.1037
   27SOL    HW1  106   2.864   2.240   0.183  1.5615  1.5996  1.5937
   27SOL    HW2  107   2.990   2.212   0.104  2.3869  0.7358  3.1680
   27SOL     MW  108   2.929   2.186   0.161  0.0241  0.0454  0.5645
   28SOL     OW  109   2.907   0.678   2.847  0.1789  0.0243 -0.7079
   28SOL    HW1  110   2.964   0.695   2.922 -1.7478 -0.3645  0.9246
   28SOL    HW2  111   2.928   0.588   2.821  0.0136 -0.2746  0.1664
   28SOL     MW  112   2.918   0.668   2.854 -0.0956 -0.0564 -0.3800
   29SOL     OW  113   2.030   1.909   0.120 -0.2540  0.7637 -0.2782
   29SOL    HW1  114   2.100   1.910   0.186 -1.0785  1.7352  0.6218
   29SOL    HW2  115   2.018   2.002   0.097 -2.4842  0.8529  0.9687
   29SOL     MW  116   2.038   1.922   0.126 -0.6526  0.9073  0.0041
   30SOL     OW  117   2.879   0.859   2.419  0.2681 -0.0198  0.2096
   30SOL    HW1  118   2.883   0.910   2.338  0.8612 -0.0941  0.1872
   30SOL    HW2  119   2.927   0.778   2.399  0.4809 -0.0055  0.6595
   30SOL     MW  120   2.886   0.855   2.405  0.3700 -0.0261  0.2717
   31SOL     OW  121   1.181   0.293   1.557 -0.3027  0.0883  0.0188
   31SOL    HW1  122   1.115   0.342   1.508  0.0852  0.6064  0.0167
   31SOL    HW2  123   1.142   0.282   1.644 -0.1523  0.8918  0.1917
   31SOL     MW  124   1.167   0.298   1.562 -0.2328  0.2605  0.0426
   32SOL     OW  125   0.442   0.892   1.109 -0.1160 -0.0251 -0.3117
   32SOL    HW1  126   0.454   0.984   1.134  1.8742 -0.4444  0.4595
   32SOL    HW2  127   0.406   0.851   1.188  0.1789 -0.1383 -0.2347
   32SOL     MW  128   0.438   0.899   1.123  0.1841 -0.0944 -0.1966
   33SOL     OW  129   1.613   2.297   0.952  0.5813  0.3426 -0.0229
   33SOL    HW1  130   1.535   2.348   0.928  0.7302  0.8503  0.5583
   33SOL    HW2  131   1.629   2.319   1.044  0.3254 -1.1773  0.4166
   33SOL     MW  132   1.605   2.306   0.961  0.5732  0.2068  0.1095
   34SOL     OW  133   2.514   2.245   2.435  0.2689 -0.3937 -0.2099
   34SOL    HW1  134   2.553   2.326   2.466 -1.5179  0.4739 -0.1488
   34SOL    HW2  135   2.489   2.198   2.514 -1.9112  0.6403 -0.2226
   34SOL     MW  136   2.516   2.249   2.449 -0.2617 -0.1389 -0.2096
   35SOL     OW  137   2.827   2.603   0.352  0.3331  0.0378  0.5673
   35SOL    HW1  138   2.805   2.520   0.311 -0.8061  0.1925  0.8339
   35SOL    HW2  139   2.879   2.580   0.428  0.0913 -0.4293  0.5923
   35SOL     MW  140   2.831   2.589   0.356  0.1546 -0.0072  0.6116
   36SOL     OW  141   2.691   1.524   2.149 -0.0520 -0.0139  1.0355
   36SOL    HW1  142   2.671   1.503   2.058 -2.2523  0.8529  1.2696
   36SOL    HW2  143   2.746   1.603   2.144 -2.3854  1.6720  0.4438
   36SOL     MW  144   2.696   1.531   2.137 -0.6570  0.3253  0.9851
   37SOL     OW  145   2.884   2.207   0.856 -0.2129 -0.4138  0.1869
   37SOL    HW1  146   2.967   2.182   0.815 -0.6129 -0.0798 -0.8503
   37SOL    HW2  147   2.901   2.294   0.893 -0.8632  0.9905 -2.5332
   37SOL     MW  148   2.897   2.215   0.856 -0.3514 -0.1794 -0.3069
   38SOL     OW  149   2.568   1.041   2.281  0.3256  0.6357 -0.2741
   38SOL    HW1  150   2.556   1.049   2.375 -0.4997 -1.2902 -0.1767
   38SOL    HW2  151   2.662   1.050   2.267  0.4162  1.2466  0.6877
   38SOL     MW  152   2.579   1.043   2.291  0.2393  0.4591 -0.1309
   39SOL     OW  153   1.054   2.146   2.684 -0.0089  0.2118  0.4148
   39SOL    HW1  154   1.129   2.205   2.697 -1.1232  2.3284 -1.9604
   39SOL    HW2  155   1.082   2.088   2.613 -0.4859  0.8759 -0.3387
   39SOL     MW  156   1.068   2.146   2.677 -0.2134  0.5771  0.0014
   40SOL     OW  157   0.475   2.191   0.137 -0.1344  0.0496 -0.6455
   40SOL    HW1  158   0.521   2.185   0.053  1.3496 -0.3471  0.1506
   40SOL    HW2  159   0.460   2.284   0.150 -1.1683  0.0497 -1.7470
   40SOL     MW  160   0.479   2.202   0.128 -0.0754 -0.0032 -0.6758
   41SOL     OW  161   1.469   0.203   0.049  0.4531  0.1740 -0.0390
   41SOL    HW1  162   1.400   0.262   0.019  1.5807  2.0864  0.9512
   41SOL    HW2  163   1.500   0.161  -0.031 -0.7260  0.5045 -0.7047
   41SOL     MW  164   1.464   0.205   0.035  0.4556  0.4669  0.0017
   42SOL     OW  165   1.106   0.688   1.110 -0.2400 -0.4601 -0.1441
   42SOL    HW1  166   1.114   0.593   1.118  1.5878 -0.3415 -0.2078
   42SOL    HW2  167   1.196   0.720   1.114 -0.9199  1.5931  3.5539
   42SOL     MW  168   1.119   0.680   1.112 -0.0830 -0.1803  0.3377
   43SOL     OW  169   1.782   0.343   2.724  0.1148  0.4900  0.0385
   43SOL    HW1  170   1.690   0.359   2.746 -0.6837 -1.7414 -1.3144
   43SOL    HW2  171   1.825   0.428   2.737 -2.3546  1.9039 -0.3618
   43SOL     MW  172   1.775   0.357   2.728 -0.3198  0.3764 -0.1824
   44SOL     OW  173   2.834   0.844   1.462  0.3306 -0.1527 -0.4163
   44SOL    HW1  174   2.760   0.857   1.403  0.2693  0.7060 -0.1572
   44SOL    HW2  175   2.856   0.932   1.492 -0.3244 -0.6631  1.6876
   44SOL     MW  176   2.827   0.857   1.458  0.2387 -0.1009 -0.0967
   45SOL     OW  177   0.867   1.899   1.868  0.1835  0.1963 -0.0932
   45SOL    HW1  178   0.818   1.912   1.787  2.3820 -0.1301 -1.5823
   45SOL    HW2  179   0.891   1.806   1.867  1.6608  0.5475  0.0320
   45SOL     MW  180   0.864   1.888   1.857  0.6662  0.2023 -0.2661
   46SOL     OW  181   2.222   1.581   2.062 -0.1394 -0.1650 -0.5455
   46SOL    HW1  182   2.147   1.585   2.122  0.7809 -0.4517  0.6596
   46SOL    HW2  183   2.229   1.488   2.040 -0.4289 -0.0704 -1.0661
   46SOL     MW  184   2.213   1.569   2.067 -0.0565 -0.1940 -0.4478
   47SOL     OW  185   1.296   1.018   1.815  0.2156  0.3144  0.3174
   47SOL    HW1  186   1.293   1.010   1.719  1.0654 -1.4813  0.3965
   47SOL    HW2  187   1.239   0.947   1.845 -0.8305  1.4738  1.1680
   47SOL     MW  188   1.288   1.007   1.806  0.1999  0.2309  0.4457
   48SOL     OW  189   0.439   0.161   0.959 -0.0337  0.0441  0.0101
   48SOL    HW1  190   0.434   0.255   0.941  1.9596  0.2013  0.0504
   48SOL    HW2  191   0.355   0.139   0.997  0.0073  2.1459  1.4513
   48SOL     MW  192   0.428   0.170   0.961  0.2296  0.3399  0.2028
   49SOL     OW  193   2.210   0.350   2.034 -0.3837  0.0445  0.3945
   49SOL    HW1  194   2.228   0.357   2.128 -0.6096  0.0779  0.4362
   49SOL    HW2  195   2.140   0.285   2.028 -0.9595  0.6632  0.3195
   49SOL     MW  196   2.203   0.342   2.046 -0.4880  0.1244  0.3889
   50SOL     OW  197   1.265   1.732   0.195  0.5189  0.0046 -0.1063
   50SOL    HW1  198   1.255   1.638   0.212 -1.2531  0.1610 -0.1961
   50SOL    HW2  199   1.347   1.738   0.146  0.3996 -1.5497 -0.5537
   50SOL     MW  200   1.275   1.720   0.191  0.2668 -0.1761 -0.1854
   51SOL     OW  201   2.892   2.898   1.703 -0.1149  0.5444  0.0106
   51SOL    HW1  202   2.934   2.975   1.742 -0.2908 -0.0875  1.5261
   51SOL    HW2  203   2.824   2.934   1.646  2.4599  1.5975 -2.6575
   51SOL     MW  204   2.889   2.913   1.701  0.2017  0.6031 -0.1369
   52SOL     OW  205   2.189  -0.000   1.950  0.0113  0.5673 -0.6450
   52SOL    HW1  206   2.130   0.076   1.953 -1.4224 -0.5245  1.2072
   52SOL    HW2  207   2.139  -0.067   1.902  0.8677  0.4694 -1.4238
   52SOL     MW  208   2.174   0.001   1.944 -0.0631  0.4137 -0.5058
   53SOL     OW  209   0.517   0.660   0.057  0.7100 -0.1852 -0.0358
   53SOL    HW1  210   0.574   0.612   0.117 -0.4179 -1.7030 -0.1487
   53SOL    HW2  211   0.461   0.594   0.017  0.9593  0.8640 -2.2885
   53SOL     MW  212   0.517   0.645   0.060  0.5884 -0.2437 -0.3454
   54SOL     OW  213   0.849   0.135   2.594  0.2719 -0.0552  0.1711
   54SOL    HW1  214   0.895   0.099   2.670 -1.7537  2.7209  2.9589
   54SOL    HW2  215   0.775   0.075   2.581  1.0797 -0.9969 -0.1596
   54SOL     MW  216   0.845   0.122   2.603  0.1130  0.1870  0.4963
   55SOL     OW  217   0.140   3.001   0.403  0.7075 -0.5494  0.0799
   55SOL    HW1  218   0.083   3.021   0.329 -0.0138  0.7461  0.9538
   55SOL    HW2  219   0.089   2.942   0.457 -0.1044  1.0384  1.1412
   55SOL     MW  220   0.126   2.996   0.400  0.5135 -0.1717  0.3374
   56SOL     OW  221   2.402   0.373   0.675 -0.5409  0.0955 -0.2540
   56SOL    HW1  222   2.340   0.428   0.724 -1.1991 -0.8675  0.0094
   56SOL    HW2  223   2.358   0.289   0.666  0.6727 -0.5657 -0.2046
   56SOL     MW  224   2.388   0.369   0.681 -0.4617 -0.1216 -0.2170
   57SOL     OW  225   1.744   1.936   1.589  0.1932 -0.2174 -0.4328
   57SOL    HW1  226   1.790   1.887   1.656  0.9323  0.6596 -0.2867
   57SOL    HW2  227   1.803   2.007   1.565 -0.7231  0.4398 -0.8473
   57SOL     MW  228   1.758   1.939   1.594  0.1742 -0.0149 -0.4632
   58SOL     OW  229   0.953   1.054   2.095  0.8281  0.8629  0.0070
   58SOL    HW1  230   0.873   1.065   2.147  0.2019  1.6633 -1.1016
   58SOL    HW2  231   0.988   1.142   2.085  0.5738  0.8206 -1.4794
   58SOL     MW  232   0.947   1.067   2.101  0.7146  0.9593 -0.3352
   59SOL     OW  233   0.584   1.543   1.828 -0.2348 -0.1686 -0.8492
   59SOL    HW1  234   0.497   1.527   1.792  0.4090  0.1209 -2.6351
   59SOL    HW2  235   0.634   1.578   1.755  1.0977  0.7149  0.4301
   59SOL     MW  236   0.579   1.545   1.814  0.0280 -0.0170 -0.9146
   60SOL     OW  237   1.156   1.980   1.921  0.2525  0.0364 -0.5201
   60SOL    HW1  238   1.165   2.010   2.011  1.4410  1.2927 -1.0329
   60SOL    HW2  239   1.062   1.960   1.912  0.1843 -0.5663  1.1002
   60SOL     MW  240   1.145   1.981   1.932  0.4000  0.1286 -0.3737
   61SOL     OW  241   0.039   0.191   1.145  0.2142 -0.3244  1.0711
   61SOL    HW1  242   0.122   0.143   1.137  1.1637  1.3824  0.3261
   61SOL    HW2  243  -0.015   0.157   1.074  0.6316 -0.7613  0.9519
   61SOL     MW  244   0.043   0.180   1.135  0.3947 -0.1622  0.9605
   62SOL     OW  245   0.181   1.821   0.700  0.2147  0.5682  0.4612
   62SOL    HW1  246   0.153   1.876   0.773 -2.3525 -2.7029  2.2137
   62SOL    HW2  247   0.103   1.811   0.645  0.0912 -2.2162  0.9587
   62SOL     MW  248   0.167   1.827   0.702 -0.1390 -0.2286  0.7617
   63SOL     OW  249   1.672   2.872   0.783  0.4227  0.4566  0.8043
   63SOL    HW1  250   1.672   2.944   0.845 -0.3799  1.0951  0.0876
   63SOL    HW2  251   1.646   2.796   0.835 -1.1187  1.1492  1.1027
   63SOL     MW  252   1.669   2.871   0.798  0.1124  0.6313  0.7482
   64SOL     OW  253   1.586   1.247   0.592  0.4829  0.7926 -0.4353
   64SOL    HW1  254   1.498   1.283   0.586 -0.4230 -1.1699  0.3981
   64SOL    HW2  255   1.599   1.201   0.509 -0.7390 -1.9317  0.7863
   64SOL     MW  256   1.576   1.246   0.580  0.1972  0.1779 -0.1689
   65SOL     OW  257   2.622   1.497   2.627 -0.3736  0.4224  0.3105
   65SOL    HW1  258   2.680   1.558   2.580 -2.1421  0.5108 -1.9742
   65SOL    HW2  259   2.632   1.415   2.579 -0.3465 -0.2233  1.4136
   65SOL     MW  260   2.631   1.495   2.614 -0.6064  0.3542  0.1576
   66SOL     OW  261   0.762   2.344   0.524  0.3196 -0.7236 -0.6322
   66SOL    HW1  262   0.730   2.303   0.443 -0.6354 -1.2053 -0.0267
   66SOL    HW2  263   0.734   2.435   0.517  0.4867 -0.6968 -0.9721
   66SOL     MW  264   0.754   2.350   0.512  0.2243 -0.7899 -0.5949
   67SOL     OW  265   0.274   1.666   1.579  0.4697 -0.2970 -0.6758
   67SOL    HW1  266   0.268   1.584   1.628 -1.1750  0.2059  0.0118
   67SOL    HW2  267   0.332   1.721   1.631  1.1678 -0.8161 -0.8805
   67SOL     MW  268   0.281   1.663   1.592  0.3470 -0.3036 -0.6121
   68SOL     OW  269   0.757   0.522   0.103 -0.5280 -0.6250  0.3913
   68SOL    HW1  270   0.754   0.472   0.021 -1.8867  0.1628 -0.0863
   68SOL    HW2  271   0.790   0.461   0.168 -0.9241 -1.7594 -0.4383
   68SOL     MW  272   0.761   0.507   0.101 -0.7598 -0.6599  0.2159
   69SOL     OW  273   2.636   0.304   1.297  1.5973 -0.0087  0.0436
   69SOL    HW1  274   2.654   0.298   1.203 -1.7123  1.3903 -0.8338
   69SOL    HW2  275   2.630   0.397   1.315 -1.0536 -0.2458  0.8246
   69SOL     MW  276   2.637   0.315   1.287  0.8141  0.1442  0.0347
   70SOL     OW  277   1.501   1.063   2.362  0.1289  0.2298 -0.1547
   70SOL    HW1  278   1.544   1.142   2.396  0.7998 -0.0913 -0.2429
   70SOL    HW2  279   1.438   1.096   2.297 -0.4592  0.7727  0.6634
   70SOL     MW  280   1.498   1.078   2.358  0.1392  0.2580 -0.0589
   71SOL     OW  281   1.431   1.528   2.958  0.7030 -0.2173  0.5813
   71SOL    HW1  282   1.437   1.601   2.896 -1.2049  0.0095  0.5894
   71SOL    HW2  283   1.514   1.530   3.005  1.2841  1.0305 -0.4309
   71SOL     MW  284   1.443   1.538   2.956  0.5341 -0.0188  0.4519
   72SOL     OW  285   0.399   2.885   1.315 -0.0510  0.3580 -0.3130
   72SOL    HW1  286   0.371   2.795   1.296 -0.7604  0.1874  1.3794
   72SOL    HW2  287   0.494   2.880   1.325 -0.1715 -0.3669  0.5401
   72SOL     MW  288   0.408   2.873   1.313 -0.1597  0.2396  0.0232
   73SOL     OW  289   1.577   0.601   2.485 -0.1996  0.1728  0.1020
   73SOL    HW1  290   1.511   0.605   2.416  0.3986 -1.2542 -0.5963
   73SOL    HW2  291   1.534   0.639   2.562 -0.3786  3.2582 -1.3802
   73SOL     MW  292   1.562   0.607   2.486 -0.1476  0.3856 -0.1878
   74SOL     OW  293   2.274   0.626   1.948  0.0753 -0.5879 -0.0464
   74SOL    HW1  294   2.330   0.549   1.949  1.0719  0.1229  1.0391
   74SOL    HW2  295   2.235   0.629   2.036  0.0758  0.1494 -0.0597
   74SOL     MW  296   2.276   0.617   1.960  0.2047 -0.3971  0.0919
   75SOL     OW  297   0.982   0.928   0.370 -0.3693 -0.3735 -0.0755
   75SOL    HW1  298   0.990   0.906   0.277  0.8153 -1.7519  0.3319
   75SOL    HW2  299   1.071   0.950   0.397 -0.8297  0.7474  0.5829
   75SOL     MW  300   0.995   0.928   0.361 -0.2783 -0.4038  0.0710
   76SOL     OW  301   0.803   0.000   0.057 -0.0905 -0.1494  0.1183
   76SOL    HW1  302   0.764   0.047   0.131 -2.7394  1.6155 -2.1779
   76SOL    HW2  303   0.729  -0.026   0.003  1.6992 -1.6976 -1.7781
   76SOL     MW  304   0.788   0.003   0.060 -0.2061 -0.1235 -0.4321
   77SOL     OW  305   0.548   2.776   2.710 -0.0440  0.1571  0.5299
   77SOL    HW1  306   0.604   2.701   2.728 -0.9005 -0.1098  2.3013
   77SOL    HW2  307   0.488   2.747   2.642  1.4013  0.1982 -0.8355
   77SOL     MW  308   0.548   2.763   2.704  0.0324  0.1161  0.5835
   78SOL     OW  309   0.540   1.185   0.086  0.3610 -0.1981  0.4463
   78SOL    HW1  310   0.580   1.271   0.097 -0.5441  0.4955 -1.2263
   78SOL    HW2  311   0.614   1.126   0.070  0.8941  0.5641  0.0442
   78SOL     MW  312   0.555   1.188   0.085  0.3051 -0.0080  0.1731
   79SOL     OW  313   0.417   0.422   1.315 -0.2546 -0.2166  0.3986
   79SOL    HW1  314   0.350   0.419   1.246 -1.1373 -0.7297  1.2484
   79SOL    HW2  315   0.496   0.451   1.270 -0.6876 -0.9902 -0.9284
   79SOL     MW  316   0.418   0.425   1.300 -0.4329 -0.3816  0.3235
   80SOL     OW  317   2.617   2.830   0.906 -0.0629 -0.8059  0.9316
   80SOL    HW1  318   2.572   2.780   0.974 -0.4588 -0.1098  1.1930
   80SOL    HW2  319   2.705   2.846   0.942 -0.8160  1.1010  2.1110
   80SOL     MW  320   2.623   2.826   0.920 -0.2114 -0.4627  1.1131
   81SOL     OW  321   1.083   0.846   0.142 -0.5343 -0.5077  0.2709
   81SOL    HW1  322   1.032   0.801   0.075 -1.3397 -0.2392  0.6906
   81SOL    HW2  323   1.147   0.897   0.092 -1.2121 -0.2043 -0.3083
   81SOL     MW  324   1.084   0.847   0.126 -0.7260 -0.4293  0.2532
   82SOL     OW  325   2.002   2.855   1.778  0.0879  0.5105  0.0120
   82SOL    HW1  326   2.060   2.779   1.774 -0.1701  0.3510 -0.8113
   82SOL    HW2  327   1.921   2.826   1.737 -0.5837  0.7335  1.1425
   82SOL     MW  328   1.999   2.841   1.772 -0.0357  0.5165  0.0542
   83SOL     OW  329   1.502   0.564   0.540 -0.1107 -0.9899  0.2425
   83SOL    HW1  330   1.542   0.633   0.592 -0.1867 -1.2666  0.6700
   83SOL    HW2  331   1.520   0.589   0.449  2.0594 -1.7224  0.4346
   83SOL     MW  332   1.509   0.577   0.535  0.1513 -1.1173  0.3247
   84SOL     OW  333   2.012   0.440   1.833 -0.0010 -0.0224 -1.0948
   84SOL    HW1  334   2.058   0.451   1.749  0.8401 -1.4559 -0.8630
   84SOL    HW2  335   2.082   0.444   1.898 -0.4631 -0.3036 -0.5800
   84SOL     MW  336   2.027   0.442   1.830  0.0471 -0.2543 -0.9888
   85SOL     OW  337   2.140   0.333   2.346  0.1200  0.7700  0.0449
   85SOL    HW1  338   2.235   0.328   2.356  0.2689  0.4402 -1.3326
   85SOL    HW2  339   2.110   0.243   2.359  0.0252  0.8184  0.1681
   85SOL     MW  340   2.148   0.320   2.349  0.1332  0.7431 -0.1240
   86SOL     OW  341   1.370   2.832   1.001  0.0763  0.0805  0.2846
   86SOL    HW1  342   1.371   2.809   1.094 -1.1501  2.3115  0.9229
   86SOL    HW2  343   1.337   2.922   0.999 -0.5912 -0.1460 -2.3761
   86SOL     MW  344   1.366   2.841   1.013 -0.1713  0.3419  0.0192
   87SOL     OW  345   0.645   1.809   2.967 -0.5199  0.6667 -0.2811
   87SOL    HW1  346   0.684   1.856   3.040  1.6951  1.6451 -1.9716
   87SOL    HW2  347   0.553   1.837   2.965 -0.5715  0.7774  1.9096
   87SOL     MW  348   0.638   1.819   2.976 -0.2368  0.8163 -0.2192
   88SOL     OW  349   2.830   1.834   2.364 -0.1347  0.4665  0.2202
   88SOL    HW1  350   2.754   1.890   2.377  1.0506  1.7044  2.4995
   88SOL    HW2  351   2.824   1.769   2.434 -0.6173 -1.3157 -1.4002
   88SOL     MW  352   2.819   1.833   2.375 -0.0539  0.3896  0.3067
   89SOL     OW  353   2.610   0.612   1.342 -0.3701 -0.2033  0.0580
   89SOL    HW1  354   2.544   0.599   1.274  0.7159  0.3178 -1.1510
   89SOL    HW2  355   2.563   0.603   1.425 -1.6005 -1.5399 -0.7563
   89SOL     MW  356   2.595   0.609   1.344 -0.3928 -0.3106 -0.2047
   90SOL     OW  357   1.518   1.923   1.960  0.4221  0.8696 -0.3060
   90SOL    HW1  358   1.551   1.836   1.981  1.8246  1.5052  0.2362
   90SOL    HW2  359   1.489   1.916   1.869  0.3490 -0.1937 -0.2167
   90SOL     MW  360   1.518   1.911   1.951  0.5969  0.8203 -0.2179
   91SOL     OW  361   2.195   1.428   1.394 -0.0255  0.1456 -0.3223
   91SOL    HW1  362   2.160   1.393   1.312 -1.1830 -1.5179  0.8138
   91SOL    HW2  363   2.287   1.402   1.393  0.4793  1.7295 -1.8609
   91SOL     MW  364   2.203   1.420   1.383 -0.1035  0.1453 -0.3802
   92SOL     OW  365   2.922   0.526   1.746 -0.1318  0.0626 -0.6012
   92SOL    HW1  366   2.919   0.464   1.674  0.1696  0.3842 -0.8918
   92SOL    HW2  367   2.848   0.585   1.730  1.4981  1.8139 -2.1856
   92SOL     MW  368   2.912   0.526   1.735  0.1254  0.3324 -0.8563
   93SOL     OW  369   1.009   1.721   1.520 -0.1478  0.3241 -0.0803
   93SOL    HW1  370   1.081   1.704   1.580  1.2714 -0.8179 -2.0311
   93SOL    HW2  371   1.008   1.816   1.511  1.4690  0.3347 -0.4234
   93SOL     MW  372   1.018   1.732   1.527  0.2444  0.1687 -0.3872
   94SOL     OW  373   2.945   2.497   0.949 -0.4339 -0.2098 -0.9561
   94SOL    HW1  374   2.850   2.507   0.943 -0.3659  0.2594 -1.4406
   94SOL    HW2  375   2.969   2.541   1.031 -0.7170 -1.0262 -0.4325
   94SOL     MW  376   2.936   2.504   0.959 -0.4629 -0.2463 -0.9403
   95SOL     OW  377   0.129   0.037   2.937 -0.1946  0.0973 -0.0998
   95SOL    HW1  378   0.139   0.128   2.908 -0.2977 -0.2266 -1.1854
   95SOL    HW2  379   0.057   0.003   2.884 -0.6283 -0.4235  0.8036
   95SOL     MW  380   0.121   0.045   2.926 -0.2611 -0.0182 -0.1262
   96SOL     OW  381   2.157   0.690   1.696  0.7365 -0.1764 -0.2548
   96SOL    HW1  382   2.209   0.667   1.772  0.5677 -1.8981 -0.6177
   96SOL    HW2  383   2.078   0.729   1.731 -0.2067 -2.6714  0.6204
   96SOL     MW  384   2.153   0.692   1.710  0.5903 -0.7313 -0.1824
   97SOL     OW  385   0.372   0.973   2.207 -0.2054  0.3719  0.0924
   97SOL    HW1  386   0.353   0.887   2.168 -0.6119 -0.1189  1.3424
   97SOL    HW2  387   0.287   1.006   2.235  0.1715  0.3574  1.2863
   97SOL     MW  388   0.359   0.966   2.205 -0.2085  0.2964  0.4041
   98SOL     OW  389   1.073   0.283   0.113 -0.3425  0.3536 -0.1671
   98SOL    HW1  390   1.009   0.327   0.169  1.7284  1.8612  1.1829
   98SOL    HW2  391   1.025   0.264   0.032 -2.0821  2.8392  0.1653
   98SOL     MW  392   1.058   0.286   0.109 -0.2996  0.8830  0.0571
   99SOL     OW  393   2.100   0.742   0.994 -0.4675  0.1285 -0.1570
   99SOL    HW1  394   2.062   0.688   1.063 -0.7919 -0.1622 -0.5599
   99SOL    HW2  395   2.179   0.696   0.968 -1.3746 -0.8182 -1.3484
   99SOL     MW  396   2.105   0.729   0.999 -0.6328 -0.0392 -0.3604
  100SOL     OW  397   0.407   2.362   0.405  0.2317 -0.7975 -0.6807
  100SOL    HW1  398   0.465   2.429   0.367  3.5759 -2.9919  0.0595
  100SOL    HW2  399   0.371   2.317   0.329  0.9611 -0.5115 -1.2186
  100SOL     MW  400   0.410   2.365   0.390  0.7742 -1.0463 -0.6576
  101SOL     OW  401   2.190   0.762   0.508  0.3450  0.3417  0.0584
  101SOL    HW1  402   2.137   0.775   0.587 -0.3834 -1.8588  0.0191
  101SOL    HW2  403   2.167   0.673   0.479  0.7979  0.9806 -2.4766
  101SOL     MW  404   2.180   0.752   0.515  0.3110  0.1441 -0.2771
  102SOL     OW  405   2.941   1.601   0.768  0.0529 -0.1659  0.0775
  102SOL    HW1  406   2.967   1.644   0.686  0.2196  0.4864  0.4624
  102SOL    HW2  407   2.867   1.545   0.744 -0.2968  0.4945 -0.3987
  102SOL     MW  408   2.935   1.599   0.754  0.0302  0.0059  0.0759
  103SOL     OW  409   2.123   0.563   2.962  0.4568 -0.4195 -0.5810
  103SOL    HW1  410   2.218   0.555   2.954  0.9096  0.4755  2.5803
  103SOL    HW2  411   2.096   0.484   3.010 -0.2799 -0.2513 -0.7019
  103SOL     MW  412   2.132   0.551   2.968  0.4153 -0.2781 -0.1925
  104SOL     OW  413   1.117   2.848   1.680 -0.4334  0.0294 -0.2877
  104SOL    HW1  414   1.139   2.915   1.616  0.0381 -0.3862 -0.5668
  104SOL    HW2  415   1.022   2.854   1.690 -0.2877  1.4915  0.5291
  104SOL     MW  416   1.107   2.858   1.673 -0.3540  0.1615 -0.2192
  105SOL     OW  417   0.904   1.186   0.643  0.2942 -0.3170  0.2602
  105SOL    HW1  418   0.822   1.164   0.686 -0.0970  0.6505  0.0418
  105SOL    HW2  419   0.954   1.234   0.709  0.2826 -0.0727  0.0945
  105SOL     MW  420   0.900   1.189   0.657  0.2366 -0.1680  0.2128
  106SOL     OW  421   1.730   1.747   0.583 -0.2949  0.1897 -0.5009
  106SOL    HW1  422   1.776   1.776   0.504 -0.5037  1.0134 -0.3335
  106SOL    HW2  423   1.646   1.713   0.550 -0.5673  0.9384 -0.6105
  106SOL     MW  424   1.725   1.747   0.568 -0.3550  0.3965 -0.4984
  107SOL     OW  425   1.874   2.043   2.528  0.5639 -0.1503  0.0978
  107SOL    HW1  426   1.848   2.093   2.605  1.4319 -0.0399  0.3355
  107SOL    HW2  427   1.860   2.102   2.454  0.3104 -0.0409  0.2321
  107SOL     MW  428   1.869   2.057   2.529  0.6542 -0.1204  0.1482
  108SOL     OW  429   0.759   0.388   1.493 -0.0759 -0.7209  0.1054
  108SOL    HW1  430   0.753   0.450   1.566 -1.9256  1.3635 -1.6438
  108SOL    HW2  431   0.849   0.397   1.461 -0.1471  0.7292  0.2386
  108SOL     MW  432   0.770   0.398   1.498 -0.3327 -0.2548 -0.1109
  109SOL     OW  433   0.439   1.214   1.722 -0.6129  0.3722 -0.0358
  109SOL    HW1  434   0.530   1.191   1.702 -0.7660  0.1361 -0.4506
  109SOL    HW2  435   0.426   1.180   1.811 -0.7886 -1.0202 -0.5764
  109SOL     MW  436   0.450   1.206   1.731 -0.6596  0.1631 -0.1630
  110SOL     OW  437   0.990   0.159   2.342 -0.3449  0.0233  0.2286
  110SOL    HW1  438   0.961   0.159   2.433 -1.0941 -1.3508  0.0122
  110SOL    HW2  439   1.057   0.091   2.338 -1.7906 -1.3955 -0.6686
  110SOL     MW  440   0.995   0.150   2.354 -0.6302 -0.3462  0.0825
  111SOL     OW  441   0.674   1.484   1.098 -0.2040 -0.4504  0.0688
  111SOL    HW1  442   0.747   1.535   1.063  0.8873 -0.5924  2.0005
  111SOL    HW2  443   0.600   1.545   1.099  0.4899  0.4051  0.2031
  111SOL     MW  444   0.674   1.499   1.093  0.0325 -0.3525  0.3421
  112SOL     OW  445   2.298   2.573   0.760 -0.0819 -0.2295 -0.5998
  112SOL    HW1  446   2.211   2.569   0.801 -0.2451 -0.4689 -0.9599
  112SOL    HW2  447   2.280   2.576   0.666  0.2885  0.4437 -0.6495
  112SOL     MW  448   2.284   2.573   0.753 -0.0492 -0.1692 -0.6467
  113SOL     OW  449   1.510   0.716   2.730  0.0727  0.4859 -0.3082
  113SOL    HW1  450   1.572   0.764   2.784  1.8741  0.3205 -2.1057
  113SOL    HW2  451   1.428   0.765   2.740  1.1815  2.4099 -0.0378
  113SOL     MW  452   1.507   0.729   2.738  0.4545  0.7083 -0.5080
  114SOL     OW  453   2.206   2.000   2.117  0.1297  0.1277 -0.3426
  114SOL    HW1  454   2.213   2.022   2.024  0.6317 -0.9483 -0.5704
  114SOL    HW2  455   2.293   1.967   2.141 -0.2483 -0.4393  0.2834
  114SOL     MW  456   2.219   1.999   2.108  0.1466 -0.0905 -0.2865
  115SOL     OW  457   2.343   1.349   1.748 -0.2590  0.5188 -0.4398
  115SOL    HW1  458   2.332   1.347   1.843 -3.0487  2.6706 -0.5937
  115SOL    HW2  459   2.415   1.410   1.734  1.4528 -1.2373  0.2588
  115SOL     MW  460   2.351   1.357   1.759 -0.4015  0.5673 -0.3708
  116SOL     OW  461   0.902   2.743   0.079  0.1327  0.2559 -0.1342
  116SOL    HW1  462   0.820   2.695   0.072  0.5045 -0.4101  0.0472
  116SOL    HW2  463   0.876   2.834   0.092 -0.5722  0.0107  0.1666
  116SOL     MW  464   0.888   2.749   0.080  0.0890  0.1371 -0.0692
  117SOL     OW  465   0.365   0.629   0.735  0.1026  0.1054  0.6759
  117SOL    HW1  466   0.289   0.577   0.710 -0.4291  0.7393  0.9612
  117SOL    HW2  467   0.399   0.586   0.814 -1.3894  1.1927  1.9631
  117SOL     MW  468   0.359   0.617   0.742 -0.1711  0.3341  0.8892
  118SOL     OW  469   0.076   1.982   2.371 -0.1551 -0.0489 -0.7784
  118SOL    HW1  470  -0.004   1.930   2.362  1.3532 -2.4714 -1.0891
  118SOL    HW2  471   0.083   2.030   2.289 -0.0976 -1.7093 -1.7960
  118SOL     MW  472   0.067   1.981   2.359  0.0537 -0.5895 -0.9513
  119SOL     OW  473   1.829   0.502   2.008 -0.1311  0.3355  0.4214
  119SOL    HW1  474   1.891   0.473   1.941 -0.2270 -0.6633  0.7510
  119SOL    HW2  475   1.752   0.447   1.995  0.0892 -0.3364  1.7421
  119SOL     MW  476   1.827   0.491   1.997 -0.1202  0.1148  0.6418
  120SOL     OW  477   2.121   2.838   2.183  0.2416  0.4337  0.4154
  120SOL    HW1  478   2.059   2.777   2.144 -0.6026  1.7350 -0.3883
  120SOL    HW2  479   2.136   2.904   2.114 -0.1781  2.0316  1.7861
  120SOL     MW  480   2.115   2.839   2.169  0.0761  0.8147  0.4909
  121SOL     OW  481   0.284   2.739   0.222  0.2905  0.0173  0.1742
  121SOL    HW1  482   0.279   2.822   0.175  0.7763 -0.3361 -0.5217
  121SOL    HW2  483   0.332   2.681   0.163  0.3636 -0.6229  0.8504
  121SOL     MW  484   0.290   2.742   0.208  0.3651 -0.1092  0.1641
  122SOL     OW  485   1.751   0.843   0.592 -0.0662  0.9836  0.3065
  122SOL    HW1  486   1.779   0.904   0.660  0.3977 -0.3127  1.3221
  122SOL    HW2  487   1.663   0.816   0.619  0.4885 -0.2707  0.9748
  122SOL     MW  488   1.743   0.847   0.605  0.0630  0.6499  0.5237
  123SOL     OW  489   1.311   1.362   1.620 -0.0502 -0.6788  0.2815
  123SOL    HW1  490   1.330   1.326   1.706  2.4578 -0.3188 -0.0272
  123SOL    HW2  491   1.317   1.457   1.632 -2.1129 -0.4902  0.1649
  123SOL     MW  492   1.315   1.370   1.633  0.0146 -0.6080  0.2221
  124SOL     OW  493   0.527   0.252   2.849  0.6984  0.5364  0.1351
  124SOL    HW1  494   0.514   0.252   2.754  0.9813  0.4137  0.0969
  124SOL    HW2  495   0.533   0.159   2.872  1.4442  0.5876  0.1636
  124SOL     MW  496   0.526   0.239   2.840  0.8394  0.5289  0.1329
  125SOL     OW  497   1.027   2.361   0.539 -0.3295  0.7972 -0.4810
  125SOL    HW1  498   0.932   2.350   0.542 -0.2944  0.2531 -1.0796
  125SOL    HW2  499   1.045   2.434   0.598 -1.0830  0.6782 -0.0995
  125SOL     MW  500   1.017   2.369   0.547 -0.4247  0.7093 -0.5135
  126SOL     OW  501   0.352   2.971   0.092 -0.0843  0.2950 -0.4238
  126SOL    HW1  502   0.269   2.981   0.045 -0.0272  0.9995 -0.3919
  126SOL    HW2  503   0.347   3.035   0.163  0.8510  0.9990 -0.9542
  126SOL     MW  504   0.341   2.981   0.095  0.0510  0.4796 -0.4980
  127SOL     OW  505   1.941   2.746   2.799 -0.0660  0.5776  0.3442
  127SOL    HW1  506   1.988   2.806   2.741  0.4607 -2.2031 -2.2987
  127SOL    HW2  507   1.957   2.781   2.887 -0.7001  4.8542 -0.9930
  127SOL     MW  508   1.949   2.759   2.803 -0.0845  0.7789 -0.1793
  128SOL     OW  509   0.814   1.640   2.577 -0.1735 -0.1198  0.5335
  128SOL    HW1  510   0.834   1.640   2.670 -0.1703 -0.9419  0.5330
  128SOL    HW2  511   0.777   1.727   2.561 -0.1283  0.0434  1.2860
  128SOL     MW  512   0.812   1.652   2.587 -0.1734 -0.2024  0.6372
  129SOL     OW  513   2.337   0.786   1.310 -0.2068 -0.6227  0.1419
  129SOL    HW1  514   2.293   0.870   1.303 -0.5242 -0.8644 -0.8312
  129SOL    HW2  515   2.266   0.722   1.315 -0.0696 -1.1677 -3.1440
  129SOL     MW  516   2.322   0.789   1.310 -0.2314 -0.7280 -0.4176
  130SOL     OW  517   1.073   0.500   2.806 -0.1215 -0.4635 -0.0445
  130SOL    HW1  518   1.009   0.543   2.863 -0.2128 -0.7188  0.0472
  130SOL    HW2  519   1.134   0.456   2.866 -0.1064 -0.5747 -0.1400
  130SOL     MW  520   1.073   0.500   2.822 -0.1259 -0.5133 -0.0466
  131SOL     OW  521   2.674   0.988   0.024 -0.0542  0.3027 -0.1409
  131SOL    HW1  522   2.648   1.012  -0.065  1.1767  0.6242 -0.4297
  131SOL    HW2  523   2.656   1.066   0.075  0.3357  0.5323 -0.3453
  131SOL     MW  524   2.668   1.001   0.019  0.1731  0.3707 -0.2161
  132SOL     OW  525   1.816  -0.012   2.980  0.1226  0.0164 -0.0870
  132SOL    HW1  526   1.778  -0.005   3.067  1.0238 -0.5796  0.3740
  132SOL    HW2  527   1.865   0.070   2.968 -0.3881  0.3018 -0.2278
  132SOL     MW  528   1.818  -0.000   2.990  0.1768 -0.0188 -0.0466
  133SOL     OW  529   1.772   0.444   1.048  1.0850 -0.2583  0.5361
  133SOL    HW1  530   1.747   0.438   1.140 -0.5488  0.2499  0.1659
  133SOL    HW2  531   1.860   0.407   1.044  1.2818 -0.0666  2.3324
  133SOL     MW  532   1.781   0.438   1.059  0.8969 -0.1617  0.7292
  134SOL     OW  533   0.118   0.156   0.818 -0.0535 -0.1027  0.0211
  134SOL    HW1  534   0.036   0.187   0.858 -0.0329 -0.4903  0.3697
  134SOL    HW2  535   0.113   0.186   0.727  0.8442  2.6512  0.7784
  134SOL     MW  536   0.106   0.164   0.811  0.0731  0.2105  0.1629
  135SOL     OW  537   1.634   1.532   0.907 -0.0328 -0.0126  0.0747
  135SOL    HW1  538   1.700   1.502   0.969 -0.5568 -0.2779  0.5141
  135SOL    HW2  539   1.591   1.606   0.950 -0.3299 -0.1331 -0.0044
  135SOL     MW  540   1.637   1.538   0.921 -0.1312 -0.0654  0.1269
  136SOL     OW  541   2.263   2.544   1.523  0.4871 -0.1823  0.5363
  136SOL    HW1  542   2.191   2.573   1.468 -1.0339  1.1345  3.0732
  136SOL    HW2  543   2.326   2.616   1.521 -0.2290  0.4992  1.5797
  136SOL     MW  544   2.262   2.557   1.516  0.1841  0.0813  1.0095
  137SOL     OW  545   2.151   2.636   1.756 -0.1478 -0.7787 -0.1025
  137SOL    HW1  546   2.180   2.587   1.679 -0.5817 -0.8875 -0.2026
  137SOL    HW2  547   2.231   2.673   1.793  0.0458 -0.6032 -0.6891
  137SOL     MW  548   2.165   2.634   1.751 -0.1789 -0.7674 -0.1894
  138SOL     OW  549   0.323   0.020   2.215 -0.0669 -0.3749  0.2517
  138SOL    HW1  550   0.400  -0.005   2.164 -0.5936  1.0472 -1.3618
  138SOL    HW2  551   0.329   0.116   2.222 -2.1712 -0.0827 -0.8565
  138SOL     MW  552   0.334   0.030   2.209 -0.4129 -0.1537 -0.1091
  139SOL     OW  553   2.459   2.599   0.211  0.1090  0.3066 -0.3243
  139SOL    HW1  554   2.486   2.510   0.185  0.6037  0.4789 -0.4153
  139SOL    HW2  555   2.365   2.592   0.227  0.2460 -0.3629  0.2167
  139SOL     MW  556   2.450   2.586   0.209  0.1941  0.2488 -0.2600
  140SOL     OW  557   0.720   1.888   1.630 -0.5101 -0.0889 -0.2425
  140SOL    HW1  558   0.733   1.797   1.605  2.1119  0.2913 -0.5509
  140SOL    HW2  559   0.663   1.924   1.562 -1.8484 -1.5244  0.0638
  140SOL     MW  560   0.714   1.881   1.617 -0.3446 -0.2313 -0.2491
  141SOL     OW  561   1.687   0.983   0.370 -0.0033  0.3104  0.1783
  141SOL    HW1  562   1.773   1.026   0.365 -0.4544  1.2480  0.3260
  141SOL    HW2  563   1.689   0.934   0.452 -0.0666  1.3492  0.8132
  141SOL     MW  564   1.699   0.982   0.380 -0.0705  0.5681  0.2806
  142SOL     OW  565   2.600   2.106   1.879 -0.1881 -0.1947  0.2427
  142SOL    HW1  566   2.558   2.109   1.793 -2.3689 -2.3007  1.1412
  142SOL    HW2  567   2.558   2.176   1.928 -1.1702 -0.9668  0.5108
  142SOL     MW  568   2.589   2.116   1.874 -0.6011 -0.5727  0.3955
  143SOL     OW  569   0.835   1.925   1.077  0.3088 -0.0743  0.3890
  143SOL    HW1  570   0.771   1.990   1.046  1.1144 -0.1163 -1.5272
  143SOL    HW2  571   0.801   1.841   1.045  1.3857 -0.0674 -0.8594
  143SOL     MW  572   0.822   1.923   1.068  0.5544 -0.0813 -0.0261
  144SOL     OW  573   0.067   0.662   2.385 -0.5493  0.3257  0.2292
  144SOL    HW1  574   0.144   0.628   2.431 -0.2438  2.1297  1.1582
  144SOL    HW2  575   0.103   0.716   2.314 -0.9255  1.4333  0.8576
  144SOL     MW  576   0.082   0.665   2.381 -0.5627  0.7125  0.4388
  145SOL     OW  577   0.093   2.301   2.978 -0.0774 -0.0473  0.1568
  145SOL    HW1  578   0.046   2.255   2.908 -0.7788  0.2298  0.4382
  145SOL    HW2  579   0.183   2.307   2.946 -0.1113 -1.0483 -0.1633
  145SOL     MW  580   0.099   2.295   2.964 -0.1711 -0.1395  0.1500
  146SOL     OW  581   0.963   0.430   0.766  0.2465  0.1590 -0.1395
  146SOL    HW1  582   1.043   0.392   0.729  0.6910  0.8219  0.1377
  146SOL    HW2  583   0.994   0.496   0.828 -0.4997 -0.3963  0.8515
  146SOL     MW  584   0.978   0.433   0.770  0.2116  0.1703  0.0218
  147SOL     OW  585   0.326   1.151   2.711 -0.0955 -0.5537 -0.4936
  147SOL    HW1  586   0.286   1.089   2.649  0.2462 -1.0913 -0.1911
  147SOL    HW2  587   0.415   1.117   2.723  0.6495  0.9109 -1.5647
  147SOL     MW  588   0.333   1.138   2.704  0.0464 -0.4296 -0.5980
  148SOL     OW  589   0.357   1.950   1.261 -0.0125 -0.1990  0.1284
  148SOL    HW1  590   0.273   1.934   1.303 -1.6166  2.1054 -1.9724
  148SOL    HW2  591   0.339   2.017   1.195  2.8191 -1.7818 -2.5047
  148SOL     MW  592   0.344   1.956   1.258  0.1451 -0.1020 -0.5004
  149SOL     OW  593   0.557   1.687   2.083 -0.1168 -0.0999  0.3899
  149SOL    HW1  594   0.577   1.652   1.996  1.1395 -0.9789  1.0033
  149SOL    HW2  595   0.498   1.622   2.122  0.6119 -0.5415  0.7796
  149SOL     MW  596   0.552   1.674   2.076  0.1433 -0.2669  0.5252
  150SOL     OW  597   1.594   2.098   2.239 -0.1982  0.3256 -0.1333
  150SOL    HW1  598   1.573   2.004   2.240  0.0510  0.2570 -0.9269
  150SOL    HW2  599   1.527   2.137   2.183  0.5120  0.4127 -0.9446
  150SOL     MW  600   1.582   2.091   2.232 -0.0739  0.3233 -0.3434
  151SOL     OW  601   1.505   2.029   2.667 -0.5597  0.2398 -0.3247
  151SOL    HW1  602   1.476   2.104   2.719 -1.5718 -0.3227 -0.0645
  151SOL    HW2  603   1.444   2.025   2.594 -0.4095 -0.2338 -0.4295
  151SOL     MW  604   1.493   2.038   2.664 -0.6720  0.1025 -0.3065
  152SOL     OW  605   1.380   0.814   2.057  0.0166 -0.3563 -0.2378
  152SOL    HW1  606   1.294   0.834   2.019 -0.3914 -0.4139  0.6106
  152SOL    HW2  607   1.409   0.735   2.012 -1.8542 -2.2424  1.6460
  152SOL     MW  608   1.372   0.806   2.046 -0.2850 -0.6118  0.1299
  153SOL     OW  609   0.724   0.118   0.266 -0.2868 -0.2855 -0.1960
  153SOL    HW1  610   0.629   0.124   0.254 -0.5955 -1.3565  1.4091
  153SOL    HW2  611   0.735   0.056   0.338  1.4857  2.3434  1.9983
  153SOL     MW  612   0.713   0.111   0.274 -0.0876 -0.0942  0.3083
  154SOL     OW  613   0.388   2.101   2.810 -0.2423 -0.0347 -0.2638
  154SOL    HW1  614   0.332   2.056   2.747 -0.4128  1.0856 -0.9415
  154SOL    HW2  615   0.477   2.076   2.784 -0.3243  0.1587 -0.7401
  154SOL     MW  616   0.392   2.092   2.798 -0.2711  0.1388 -0.4090
  155SOL     OW  617   1.101   0.020   0.286  0.4199 -0.3696  0.1766
  155SOL    HW1  618   1.064   0.062   0.208  0.6927  0.3687  0.4456
  155SOL    HW2  619   1.192   0.002   0.262  0.6756  0.4260  0.5501
  155SOL     MW  620   1.108   0.023   0.272  0.4886 -0.1643  0.2632
  156SOL     OW  621   2.969   0.912   0.170 -0.6512 -0.0037 -0.1200
  156SOL    HW1  622   3.007   0.990   0.209  1.8202 -0.8228 -0.7073
  156SOL    HW2  623   2.936   0.942   0.085 -2.4543  0.9531  0.8596
  156SOL     MW  624   2.970   0.926   0.164 -0.5676  0.0152 -0.0682
  157SOL     OW  625   0.848   1.290   2.412 -0.3091 -0.4047  0.2500
  157SOL    HW1  626   0.889   1.322   2.332 -0.6905  0.1822  0.2751
  157SOL    HW2  627   0.901   1.327   2.482  0.7166 -1.8679  0.2780
  157SOL     MW  628   0.860   1.299   2.411 -0.2218 -0.5257  0.2488
  158SOL     OW  629   0.633   2.315   2.672  0.3450  0.2654  0.3420
  158SOL    HW1  630   0.554   2.323   2.619 -0.0483  0.5926  0.9658
  158SOL    HW2  631   0.697   2.272   2.615 -0.9756 -2.1139  0.5469
  158SOL     MW  632   0.631   2.311   2.658  0.1146 -0.0119  0.4449
  159SOL     OW  633   1.655   0.825   1.134  0.5624  0.1710  0.5701
  159SOL    HW1  634   1.652   0.917   1.109 -1.5460  0.2653  0.9388
  159SOL    HW2  635   1.728   0.819   1.196  2.4895  0.9803 -1.4942
  159SOL     MW  636   1.664   0.836   1.139  0.5319  0.2939  0.3535
  160SOL     OW  637   0.332   2.368   2.857 -0.1243 -0.2995 -0.3712
  160SOL    HW1  638   0.364   2.285   2.823 -0.2307 -0.6459  0.3639
  160SOL    HW2  639   0.303   2.416   2.779  1.5479 -0.2245 -0.9933
  160SOL     MW  640   0.332   2.363   2.842  0.0848 -0.3382 -0.3605
  161SOL     OW  641   2.290   2.372   0.965 -0.4202 -0.5364  0.1283
  161SOL    HW1  642   2.329   2.429   0.899 -0.5836  0.9692  1.2952
  161SOL    HW2  643   2.220   2.326   0.918 -0.6750  0.6540 -0.7043
  161SOL     MW  644   2.286   2.373   0.950 -0.4759 -0.1818  0.1616
  162SOL     OW  645   1.621   0.193   1.391  0.1467  0.0859 -0.0764
  162SOL    HW1  646   1.663   0.192   1.477  2.8236  0.6842 -1.2810
  162SOL    HW2  647   1.675   0.135   1.338 -2.3023 -1.4569 -1.0809
  162SOL     MW  648   1.634   0.185   1.396  0.1885 -0.0366 -0.3554
  163SOL     OW  649   1.762   0.602   1.509  0.1199 -0.4529 -0.2475
  163SOL    HW1  650   1.695   0.585   1.575  1.3675 -0.2347  1.1040
  163SOL    HW2  651   1.748   0.533   1.443 -1.8165 -0.0342 -0.3321
  163SOL     MW  652   1.751   0.590   1.509  0.0352 -0.3678 -0.0817
  164SOL     OW  653   0.268   0.497   0.186  0.2691 -0.2493  0.0551
  164SOL    HW1  654   0.206   0.553   0.139 -0.9310 -0.7036  1.0476
  164SOL    HW2  655   0.226   0.411   0.189  0.3025 -0.2395  1.9240
  164SOL     MW  656   0.254   0.493   0.180  0.1112 -0.3045  0.4392
  165SOL     OW  657   1.407   1.955   1.447 -0.1269 -0.9532  0.3597
  165SOL    HW1  658   1.314   1.962   1.425  0.5188 -0.0452 -2.5882
  165SOL    HW2  659   1.437   1.877   1.401  0.7918 -0.5630  0.2600
  165SOL     MW  660   1.399   1.946   1.438  0.0829 -0.7841 -0.0437
  166SOL     OW  661   0.019   1.538   2.284 -0.0839  0.2493 -0.2090
  166SOL    HW1  662   0.096   1.497   2.325  0.5856  3.1865  1.8451
  166SOL    HW2  663   0.055   1.612   2.236 -1.5064  0.9568 -0.2320
  166SOL     MW  664   0.034   1.543   2.283 -0.1824  0.7282  0.0626
  167SOL     OW  665   2.360   1.727   1.882 -0.4722  0.0038 -0.1788
  167SOL    HW1  666   2.314   1.669   1.943  0.5633  0.5110  1.1229
  167SOL    HW2  667   2.407   1.789   1.938 -1.7190  2.3068 -1.5178
  167SOL     MW  668   2.360   1.727   1.898 -0.4911  0.3716 -0.1823
  168SOL     OW  669   1.283   2.258   1.022  0.0892  0.0969 -0.1832
  168SOL    HW1  670   1.279   2.278   1.115  1.2091  0.0997 -0.1227
  168SOL    HW2  671   1.276   2.162   1.017 -0.6949  0.1428 -0.1618
  168SOL     MW  672   1.281   2.248   1.034  0.1348  0.1031 -0.1649
  169SOL     OW  673   0.739   3.009   2.263 -0.3369 -0.2596 -0.3749
  169SOL    HW1  674   0.813   3.056   2.300 -1.8299 -0.5306  3.3830
  169SOL    HW2  675   0.773   2.923   2.239  0.5821 -0.4053  1.3591
  169SOL     MW  676   0.753   3.004   2.265 -0.4222 -0.3172  0.3562
  170SOL     OW  677   1.978   2.812   0.341 -0.1011  0.6249  0.0860
  170SOL    HW1  678   1.947   2.813   0.250 -0.0560 -0.2193  0.0464
  170SOL    HW2  679   1.916   2.868   0.388  0.7206  2.2373 -0.7069
  170SOL     MW  680   1.966   2.819   0.335  0.0056  0.7291 -0.0273
  171SOL     OW  681   1.104   2.749   2.907 -0.1784 -0.8880 -0.5536
  171SOL    HW1  682   1.030   2.737   2.966 -0.5449 -0.8770 -1.0135
  171SOL    HW2  683   1.179   2.759   2.966 -0.6449 -0.1124 -0.0679
  171SOL     MW  684   1.104   2.749   2.923 -0.2835 -0.7770 -0.5445
  172SOL     OW  685   2.498   2.783   2.673  0.3668  0.1879  0.0792
  172SOL    HW1  686   2.580   2.746   2.642  0.9242  0.1260  1.5790
  172SOL    HW2  687   2.523   2.866   2.715 -0.1129 -0.5088  1.8348
  172SOL     MW  688   2.512   2.789   2.674  0.3755  0.0837  0.5120
  173SOL     OW  689   2.169   0.898   0.267 -0.5294 -0.1961  0.1462
  173SOL    HW1  690   2.250   0.935   0.232 -0.5275  0.1369  0.5014
  173SOL    HW2  691   2.193   0.868   0.355 -0.9098  0.3239  0.4252
  173SOL     MW  692   2.183   0.899   0.274 -0.5745 -0.0866  0.2327
  174SOL     OW  693   1.069   2.604   2.679  0.1668 -0.1546  0.0504
  174SOL    HW1  694   1.086   2.678   2.737 -1.2054 -0.0907  0.4075
  174SOL    HW2  695   1.135   2.539   2.703  0.6387  0.4939  0.5507
  174SOL     MW  696   1.080   2.605   2.689  0.0461 -0.0556  0.1576
  175SOL     OW  697   2.672   2.313   2.827 -0.2116 -0.5517  0.1698
  175SOL    HW1  698   2.623   2.376   2.774  0.8953  0.4373  0.2846
  175SOL    HW2  699   2.700   2.362   2.904  0.1106 -1.3632  0.5847
  175SOL     MW  700   2.670   2.328   2.830 -0.0204 -0.5310  0.2384
  176SOL     OW  701   2.041   1.023   1.570  0.2651 -0.7023  0.3073
  176SOL    HW1  702   1.992   0.951   1.608 -0.8026  0.1333  0.5613
  176SOL    HW2  703   2.121   1.028   1.622 -0.4232 -0.6359  1.4091
  176SOL     MW  704   2.045   1.014   1.582  0.0370 -0.5792  0.4876
  177SOL     OW  705   1.022   0.430   2.537 -0.1874  0.7485  0.2884
  177SOL    HW1  706   1.107   0.410   2.498  0.5064 -1.1439  2.4952
  177SOL    HW2  707   1.042   0.456   2.627 -1.9727 -1.2297  1.3510
  177SOL     MW  708   1.036   0.431   2.544 -0.3312  0.2378  0.7166
  178SOL     OW  709   2.928   0.514   2.221 -0.5087  0.0882 -0.2589
  178SOL    HW1  710   2.850   0.562   2.247 -1.2428 -1.2153  0.0216
  178SOL    HW2  711   2.999   0.552   2.273 -1.2549  0.1779  0.7068
  178SOL     MW  712   2.927   0.525   2.231 -0.7046 -0.0743 -0.0936
  179SOL     OW  713   2.305   1.913   0.764  0.1671  0.2946  0.2400
  179SOL    HW1  714   2.356   1.856   0.822  0.0336  1.4440  1.5487
  179SOL    HW2  715   2.228   1.937   0.815 -0.7148  0.1684 -0.9840
  179SOL     MW  716   2.302   1.909   0.778  0.0260  0.4301  0.2546
  180SOL     OW  717   2.683   2.397   0.968 -0.5820  0.1124  0.1988
  180SOL    HW1  718   2.655   2.306   0.970 -2.4320  0.6164 -0.6512
  180SOL    HW2  719   2.651   2.435   1.050  0.6660 -0.1061  0.8082
  180SOL     MW  720   2.675   2.390   0.979 -0.6716  0.1365  0.1671
  181SOL     OW  721   0.294   0.646   0.396  0.2253  0.0398 -0.4739
  181SOL    HW1  722   0.282   0.591   0.319  0.5126 -1.4838  0.5222
  181SOL    HW2  723   0.335   0.726   0.363  2.1406 -1.3455 -1.6728
  181SOL     MW  724   0.298   0.649   0.381  0.5168 -0.3417 -0.5017
  182SOL     OW  725   0.329   0.669   2.735  0.3936 -0.0311 -0.2003
  182SOL    HW1  726   0.309   0.753   2.776  1.8800  0.6978 -0.8924
  182SOL    HW2  727   0.340   0.609   2.809 -2.0038  0.0092  0.2631
  182SOL     MW  728   0.328   0.672   2.750  0.2699  0.0659 -0.2228
  183SOL     OW  729   0.126   1.464   0.114  0.3502 -0.1607  0.1745
  183SOL    HW1  730   0.215   1.490   0.093 -0.0475  1.3521  0.2862
  183SOL    HW2  731   0.094   1.530   0.175 -1.1255 -0.1885 -0.5131
  183SOL     MW  732   0.133   1.476   0.119  0.0971  0.0220  0.0996
  184SOL     OW  733   1.513   0.550   1.679  0.1013  0.3812 -0.3045
  184SOL    HW1  734   1.454   0.586   1.612 -0.9146  0.5266  0.6369
  184SOL    HW2  735   1.471   0.573   1.762  0.7404 -0.7975  0.3638
  184SOL     MW  736   1.500   0.558   1.681  0.0533  0.2497 -0.0926
  185SOL     OW  737   0.393   0.434   0.926  0.2116  0.3634  1.0229
  185SOL    HW1  738   0.310   0.439   0.973  0.8138  0.2533  2.1583
  185SOL    HW2  739   0.459   0.455   0.993  1.1098  0.2009  0.2129
  185SOL     MW  740   0.391   0.437   0.941  0.4185  0.3246  1.0632
  186SOL     OW  741   2.496   2.481   2.669 -0.3041 -0.1829 -0.6845
  186SOL    HW1  742   2.462   2.570   2.661 -0.2621 -0.1476 -0.4585
  186SOL    HW2  743   2.419   2.425   2.668 -0.2687 -0.3206 -3.1070
  186SOL     MW  744   2.482   2.486   2.668 -0.2842 -0.2072 -0.9764
  187SOL     OW  745   0.085   2.317   0.419  0.2893  0.1198  0.3531
  187SOL    HW1  746   0.136   2.267   0.355  0.5393  1.2468 -0.3658
  187SOL    HW2  747  -0.006   2.297   0.397  0.3533  0.9853 -0.8077
  187SOL     MW  748   0.079   2.308   0.407  0.3354  0.3836  0.1081
  188SOL     OW  749   2.733   0.302   0.219 -0.2559 -0.0484 -0.0701
  188SOL    HW1  750   2.754   0.221   0.267 -2.3350 -2.1352 -2.3626
  188SOL    HW2  751   2.660   0.339   0.267  0.1755  0.0560  0.5278
  188SOL     MW  752   2.726   0.296   0.232 -0.4686 -0.3046 -0.2900
  189SOL     OW  753   0.601   0.655   2.347 -0.3769  0.3457  0.9345
  189SOL    HW1  754   0.676   0.643   2.406  0.0452 -1.6175  0.0727
  189SOL    HW2  755   0.588   0.569   2.307 -0.9779  1.4623 -1.4411
  189SOL     MW  756   0.610   0.642   2.350 -0.4018  0.2308  0.5083
  190SOL     OW  757   2.139   1.888   2.746 -0.0905  0.2548 -0.5620
  190SOL    HW1  758   2.158   1.948   2.674  1.1584  0.3527 -0.1810
  190SOL    HW2  759   2.068   1.833   2.713  0.5069  0.2409 -1.9226
  190SOL     MW  760   2.132   1.889   2.732  0.1556  0.2664 -0.6858
  191SOL     OW  761   2.419   2.116   1.639  0.2513 -0.1792  0.2676
  191SOL    HW1  762   2.411   2.180   1.568 -0.1111  0.5356  0.9465
  191SOL    HW2  763   2.403   2.032   1.596  0.8094  0.1683 -0.6479
  191SOL     MW  764   2.416   2.113   1.624  0.2769 -0.0254  0.2363
  192SOL     OW  765   0.231   1.755   2.750 -0.0545 -0.3580 -0.6752
  192SOL    HW1  766   0.217   1.661   2.734 -1.8434 -0.2767  0.2178
  192SOL    HW2  767   0.242   1.792   2.662  1.5563 -1.4806 -1.0108
  192SOL     MW  768   0.231   1.747   2.736 -0.0716 -0.4967 -0.6024
  193SOL     OW  769   2.211   2.255   1.218  0.3120  0.0014  0.0350
  193SOL    HW1  770   2.237   2.289   1.133 -1.5839 -1.6575 -1.3067
  193SOL    HW2  771   2.222   2.160   1.210  1.0877 -0.1287  2.0356
  193SOL     MW  772   2.216   2.247   1.206  0.1730 -0.2290  0.1183
  194SOL     OW  773   0.793   1.214   2.750  0.6635  0.0496  0.3639
  194SOL    HW1  774   0.739   1.139   2.726 -0.5375  1.0275 -0.1156
  194SOL    HW2  775   0.871   1.206   2.695 -0.4648  0.3309 -1.3403
  194SOL     MW  776   0.796   1.203   2.739  0.3556  0.2122  0.0796
  195SOL     OW  777   2.551   0.789   2.658 -0.0322  0.1054 -0.3592
  195SOL    HW1  778   2.467   0.744   2.667  0.0213  0.4191  2.5905
  195SOL    HW2  779   2.528   0.879   2.637 -0.5071  0.3175  0.9704
  195SOL     MW  780   2.537   0.795   2.657 -0.0848  0.1740  0.2096
  196SOL     OW  781   2.407   1.361  -0.003  0.2408 -0.5890 -0.4657
  196SOL    HW1  782   2.363   1.415   0.062 -0.2612 -0.5988 -0.7940
  196SOL    HW2  783   2.490   1.406  -0.020  0.9314 -1.2244  1.0626
  196SOL     MW  784   2.412   1.374   0.003  0.2719 -0.6697 -0.3109
  197SOL     OW  785   1.632   2.005   0.414 -0.1546 -0.6810  0.1327
  197SOL    HW1  786   1.610   2.010   0.508 -0.9305 -1.2683 -0.0117
  197SOL    HW2  787   1.577   1.935   0.380 -1.1992  0.6962 -1.1306
  197SOL     MW  788   1.622   1.997   0.422 -0.3902 -0.5785 -0.0599
  198SOL     OW  789   0.037   2.590   1.170  0.1349  0.6051 -0.4433
  198SOL    HW1  790   0.086   2.646   1.111 -0.3050  0.1626 -1.2475
  198SOL    HW2  791   0.073   2.503   1.156  1.2221  0.7434  1.2274
  198SOL     MW  792   0.048   2.586   1.161  0.2221  0.5707 -0.3350
  199SOL     OW  793   1.972   1.021   2.819  0.1941  0.2789 -0.2310
  199SOL    HW1  794   1.979   0.956   2.748 -0.8238 -2.6616  2.1225
  199SOL    HW2  795   2.061   1.027   2.854 -0.0343 -1.6050  0.8316
  199SOL     MW  796   1.985   1.013   2.814  0.0297 -0.3654  0.2234
  200SOL     OW  797   2.742   1.835   0.739  0.2382 -0.6994 -0.0212
  200SOL    HW1  798   2.720   1.899   0.807 -0.1202 -0.9539  0.1052
  200SOL    HW2  799   2.805   1.776   0.781  0.2443 -0.6810 -0.0046
  200SOL     MW  800   2.747   1.835   0.754  0.1862 -0.7316  0.0016
  201SOL     OW  801   2.642   1.995   0.514 -0.0538 -0.4259  0.1025
  201SOL    HW1  802   2.678   1.932   0.576  0.8215  0.3370  0.4004
  201SOL    HW2  803   2.562   2.027   0.554  0.1534 -0.4416  0.5304
  201SOL     MW  804   2.636   1.991   0.527  0.0863 -0.3311  0.1872
  202SOL     OW  805   0.002   2.712   0.168  0.2534 -0.0155 -0.1835
  202SOL    HW1  806   0.080   2.739   0.217  0.1349  0.4904 -0.2606
  202SOL    HW2  807  -0.058   2.680   0.236 -0.0936  1.1282  0.0883
  202SOL     MW  808   0.004   2.712   0.184  0.1873  0.2103 -0.1561
  203SOL     OW  809   2.565   2.694   0.648 -0.1909  0.2762  0.3591
  203SOL    HW1  810   2.583   2.739   0.731  0.3730 -0.3755  0.5965
  203SOL    HW2  811   2.470   2.690   0.643 -0.2674  1.6613  0.2377
  203SOL     MW  812   2.555   2.699   0.658 -0.1253  0.3750  0.3752
  204SOL     OW  813   2.754   0.097   0.703 -0.4127 -0.6408  0.1569
  204SOL    HW1  814   2.680   0.038   0.689 -0.5934 -0.0511 -1.6593
  204SOL    HW2  815   2.716   0.184   0.701  0.1080 -0.3904  0.9390
  204SOL     MW  816   2.740   0.100   0.701 -0.3587 -0.5279  0.0164
  205SOL     OW  817   0.135   1.877   0.093 -0.7063  0.0410  0.4613
  205SOL    HW1  818   0.219   1.880   0.049 -2.3215  0.0123 -2.9456
  205SOL    HW2  819   0.107   1.969   0.097 -0.5010  0.0697  1.7284
  205SOL     MW  820   0.142   1.890   0.088 -0.8898  0.0339  0.1671
  206SOL     OW  821   1.554   1.789   2.789 -0.0350  0.3625 -0.2153
  206SOL    HW1  822   1.554   1.875   2.747 -0.3384  0.9438  0.9245
  206SOL    HW2  823   1.643   1.778   2.820  0.3985 -0.4214 -1.6669
  206SOL     MW  824   1.565   1.799   2.787 -0.0215  0.3279 -0.2491
  207SOL     OW  825   0.746   1.085   2.268 -0.0804  0.1057  0.2137
  207SOL    HW1  826   0.763   1.154   2.333  0.0713 -1.6167  2.1089
  207SOL    HW2  827   0.691   1.022   2.314 -1.1092 -0.5423 -1.8157
  207SOL     MW  828   0.741   1.086   2.283 -0.1921 -0.2022  0.1969
  208SOL     OW  829   2.062   1.671   2.986 -0.0937  0.0660 -0.3965
  208SOL    HW1  830   2.103   1.670   2.900  0.1565  0.2022 -0.2838
  208SOL    HW2  831   2.061   1.764   3.010  1.2116 -0.0876  0.3765
  208SOL     MW  832   2.068   1.683   2.978  0.1055  0.0687 -0.2751
  209SOL     OW  833   0.198   1.309   2.098 -0.1774  0.4269 -0.2865
  209SOL    HW1  834   0.233   1.397   2.113 -0.1039  0.0643  2.0262
  209SOL    HW2  835   0.267   1.264   2.049  0.0715  1.4420 -0.9004
  209SOL     MW  836   0.212   1.315   2.093 -0.1344  0.5176 -0.0730
  210SOL     OW  837   1.988   2.582   0.697 -0.1653  0.5206 -0.2102
  210SOL    HW1  838   1.981   2.672   0.728  2.6671 -0.1614  2.9884
  210SOL    HW2  839   2.036   2.589   0.614  2.0958  1.9317  1.1233
  210SOL     MW  840   1.993   2.594   0.690  0.4952  0.6229  0.3784
  211SOL     OW  841   1.546   0.897   0.139  0.3043 -0.6488 -0.0088
  211SOL    HW1  842   1.612   0.902   0.071 -0.2323 -0.0565 -0.4931
  211SOL    HW2  843   1.593   0.915   0.221  0.6002  0.5157 -0.4287
  211SOL     MW  844   1.561   0.900   0.141  0.2779 -0.4285 -0.1293
  212SOL     OW  845   1.506   1.344   2.007 -0.3753 -0.3281  0.1986
  212SOL    HW1  846   1.568   1.385   1.946 -0.2287 -0.0710  0.5157
  212SOL    HW2  847   1.550   1.349   2.092 -0.6852 -0.4566  0.3663
  212SOL     MW  848   1.520   1.350   2.011 -0.3972 -0.3030  0.2639
  213SOL     OW  849   0.164   1.883   1.439 -0.3920 -0.0179  0.0778
  213SOL    HW1  850   0.204   1.798   1.458  0.0311 -0.0671 -1.0000
  213SOL    HW2  851   0.102   1.897   1.511 -0.3451 -1.1573  0.3495
  213SOL     MW  852   0.161   1.874   1.451 -0.3240 -0.1702 -0.0297
  214SOL     OW  853   0.162   0.501   0.574  0.1765 -0.3540  0.4241
  214SOL    HW1  854   0.214   0.537   0.502  0.3472 -2.1859 -0.4189
  214SOL    HW2  855   0.081   0.553   0.574 -0.0748 -0.6928 -1.4988
  214SOL     MW  856   0.158   0.513   0.565  0.1614 -0.6364  0.0660
  215SOL     OW  857   1.240   1.396   1.977 -0.2709  0.3719 -0.4161
  215SOL    HW1  858   1.211   1.484   1.952 -0.7752  0.4237  0.3184
  215SOL    HW2  859   1.335   1.404   1.985 -0.1890  0.5561 -1.4737
  215SOL     MW  860   1.249   1.409   1.975 -0.3206  0.3955 -0.4591
  216SOL     OW  861   2.395   0.950   0.108 -0.0896  0.0873  0.5007
  216SOL    HW1  862   2.490   0.939   0.118 -0.0736 -0.4122 -0.1488
  216SOL    HW2  863   2.382   0.963   0.014 -0.6202  0.6694  0.6455
  216SOL     MW  864   2.406   0.951   0.097 -0.1565  0.1025  0.4348
  217SOL     OW  865   1.909   1.048   0.691 -0.6247 -0.2121  0.1400
  217SOL    HW1  866   1.958   1.054   0.609 -1.9997 -3.9083 -1.1579
  217SOL    HW2  867   1.877   1.137   0.706 -0.4096  0.6251 -3.4558
  217SOL     MW  868   1.911   1.061   0.682 -0.7798 -0.5907 -0.5043
  218SOL     OW  869   2.666   0.668   2.313  0.0830 -0.2165  0.1540
  218SOL    HW1  870   2.583   0.626   2.339 -0.4940 -0.2198 -1.5785
  218SOL    HW2  871   2.668   0.749   2.363 -1.6894  0.4614 -0.7815
  218SOL     MW  872   2.655   0.673   2.323 -0.2228 -0.1301 -0.2031
  219SOL     OW  873   2.739   2.492   1.535 -0.2215  0.1289  0.1129
  219SOL    HW1  874   2.756   2.568   1.480  0.0967  1.7555  2.3297
  219SOL    HW2  875   2.809   2.493   1.600 -2.0763 -0.0430  2.2338
  219SOL     MW  876   2.750   2.502   1.536 -0.4218  0.3245  0.6967
  220SOL     OW  877   0.620   0.831   2.854  0.4481 -0.5600 -0.1191
  220SOL    HW1  878   0.688   0.891   2.884  0.7879 -0.8058 -0.3924
  220SOL    HW2  879   0.598   0.779   2.931 -1.5142  1.4273  0.7968
  220SOL     MW  880   0.626   0.832   2.868  0.2303 -0.3276 -0.0352
  221SOL     OW  881   1.181   2.308   2.023  0.2640  0.8194  0.8788
  221SOL    HW1  882   1.254   2.251   2.050  0.2198  0.4418  0.2327
  221SOL    HW2  883   1.166   2.365   2.099  0.6775  0.3421  1.3334
  221SOL     MW  884   1.189   2.308   2.037  0.3048  0.6994  0.8562
  222SOL     OW  885   0.118   1.937   1.928 -0.0123  0.1902  0.3657
  222SOL    HW1  886   0.082   1.985   2.003 -0.1682  0.2844  0.2331
  222SOL    HW2  887   0.212   1.936   1.943  0.0970  1.3869 -0.1092
  222SOL     MW  888   0.126   1.943   1.940 -0.0254  0.3669  0.2863
  223SOL     OW  889   2.134   0.829   2.646 -0.3923 -0.1341  0.5008
  223SOL    HW1  890   2.083   0.794   2.573 -0.7613  0.8416  0.2806
  223SOL    HW2  891   2.163   0.915   2.615  0.0770 -0.0301  1.2240
  223SOL     MW  892   2.131   0.835   2.632 -0.3809  0.0142  0.5671
  224SOL     OW  893   1.590   0.062   2.848 -0.1314 -0.4090  0.0213
  224SOL    HW1  894   1.601   0.083   2.756  1.5183  0.4117  0.3642
  224SOL    HW2  895   1.678   0.039   2.878 -0.4967  0.0786  1.5649
  224SOL     MW  896   1.603   0.061   2.840  0.0331 -0.2313  0.2745
  225SOL     OW  897   0.526   2.965   1.959 -0.2977  0.0433 -0.0137
  225SOL    HW1  898   0.594   3.031   1.969  2.0245 -2.1511 -0.0846
  225SOL    HW2  899   0.475   2.993   1.884  1.8075  0.8395 -1.2468
  225SOL     MW  900   0.529   2.977   1.951  0.2855 -0.1380 -0.1889
  226SOL     OW  901   2.925   1.102   1.493  0.1572 -0.4866  0.9027
  226SOL    HW1  902   2.880   1.158   1.430 -0.3215  0.7663  2.3114
  226SOL    HW2  903   3.017   1.127   1.486  0.2602 -1.0498  0.0354
  226SOL     MW  904   2.931   1.113   1.484  0.1113 -0.4021  0.9769
  227SOL     OW  905   0.922   2.606   0.682 -0.6487  0.3188 -0.6604
  227SOL    HW1  906   0.867   2.659   0.625 -1.5355 -0.1352 -0.2428
  227SOL    HW2  907   1.011   2.620   0.650 -1.1259  0.0815 -2.1368
  227SOL     MW  908   0.927   2.615   0.671 -0.8290  0.2205 -0.8012
  228SOL     OW  909   2.682   2.790   1.228 -0.4311  0.8042 -0.3698
  228SOL    HW1  910   2.751   2.799   1.294 -1.3471  0.7840  0.6180
  228SOL    HW2  911   2.663   2.696   1.226  1.4009  0.3983 -2.6013
  228SOL     MW  912   2.688   2.779   1.237 -0.3104  0.7526 -0.5412
  229SOL     OW  913   1.301   0.314   0.307 -0.6577  0.2832  0.4007
  229SOL    HW1  914   1.335   0.384   0.251 -2.2525  0.5276 -0.3131
  229SOL    HW2  915   1.238   0.267   0.252  2.3441 -3.6219 -0.1605
  229SOL     MW  916   1.297   0.317   0.293 -0.4711 -0.2077  0.2309
  230SOL     OW  917   0.662   0.496   1.756 -0.2161 -0.4107 -0.0240
  230SOL    HW1  918   0.609   0.574   1.770 -0.1247 -0.2337 -0.6405
  230SOL    HW2  919   0.682   0.465   1.844  0.8370  0.9961  0.2702
  230SOL     MW  920   0.657   0.502   1.769 -0.0668 -0.1945 -0.0563
  231SOL     OW  921   0.996   0.222   0.945  0.1934 -0.2074  0.0085
  231SOL    HW1  922   0.941   0.155   0.905 -1.6992  1.0378  0.3821
  231SOL    HW2  923   0.987   0.299   0.889  0.2767  0.5081  0.9427
  231SOL     MW  924   0.988   0.223   0.933 -0.0410  0.0588  0.1840
  232SOL     OW  925   1.294   1.235   2.221 -0.2460  0.4348 -0.6219
  232SOL    HW1  926   1.298   1.323   2.260 -1.2986 -0.0616  0.7025
  232SOL    HW2  927   1.267   1.249   2.131  0.2005  1.5035 -0.6037
  232SOL     MW  928   1.291   1.248   2.215 -0.3262  0.5071 -0.4472
  233SOL     OW  929   0.035   2.270   1.174 -0.1768 -0.2997 -0.3240
  233SOL    HW1  930   0.044   2.315   1.258 -0.3794  0.8490 -0.8978
  233SOL    HW2  931   0.015   2.179   1.197 -2.4722  0.4359  0.8741
  233SOL     MW  932   0.034   2.264   1.188 -0.5127 -0.0511 -0.2419
  234SOL     OW  933   1.080   1.005   0.799  0.1809 -0.0975 -0.5807
  234SOL    HW1  934   1.012   0.950   0.838  0.7426 -0.6201 -0.3150
  234SOL    HW2  935   1.037   1.047   0.724  0.0341 -1.7636 -1.4775
  234SOL     MW  936   1.065   1.004   0.794  0.2282 -0.3793 -0.6543
  235SOL     OW  937   1.506   2.619   2.157  0.2040  0.5630 -0.0468
  235SOL    HW1  938   1.577   2.564   2.189  0.0226 -0.9453 -2.0599
  235SOL    HW2  939   1.426   2.571   2.180 -0.2583  2.0871  1.9082
  235SOL     MW  940   1.505   2.605   2.164  0.1138  0.5634 -0.0482
  236SOL     OW  941   0.755   0.423   2.807  0.1222 -0.2841  0.2249
  236SOL    HW1  942   0.829   0.366   2.830 -0.4303 -0.9482  0.3735
  236SOL    HW2  943   0.678   0.369   2.820 -0.4705  0.7451  1.1280
  236SOL     MW  944   0.755   0.408   2.812 -0.0249 -0.2383  0.3622
  237SOL     OW  945   1.517   1.570   2.279  0.5791 -0.1786  0.6169
  237SOL    HW1  946   1.610   1.580   2.300  0.8802  1.4064 -1.1569
  237SOL    HW2  947   1.481   1.658   2.291 -0.2018 -0.2765 -0.7815
  237SOL     MW  948   1.524   1.583   2.283  0.5172  0.0134  0.1950
  238SOL     OW  949   0.129   2.431   1.481  0.1191  0.6502  0.4769
  238SOL    HW1  950   0.077   2.449   1.560  0.0476  1.4971  0.2546
  238SOL    HW2  951   0.209   2.392   1.514  0.1753  1.1817  1.0018
  238SOL     MW  952   0.133   2.428   1.496  0.1109  0.8346  0.5153
  239SOL     OW  953   1.657   2.264   2.961  0.0964  0.0336  0.4512
  239SOL    HW1  954   1.635   2.182   3.004 -0.2547  0.2811  0.7490
  239SOL    HW2  955   1.643   2.331   3.028 -0.8645  0.4678 -0.1580
  239SOL     MW  956   1.653   2.262   2.976 -0.0812  0.1241  0.4144
  240SOL     OW  957   0.681   0.784   0.317  0.2701 -0.1251  0.0545
  240SOL    HW1  958   0.662   0.691   0.320 -0.6650  0.0015 -1.1344
  240SOL    HW2  959   0.717   0.804   0.403  0.3642 -1.5492  0.3713
  240SOL     MW  960   0.683   0.775   0.329  0.1669 -0.3000 -0.0644
  241SOL     OW  961   0.581   1.034   2.682 -0.7282  0.0116 -0.7710
  241SOL    HW1  962   0.595   0.958   2.739  3.7363  0.4082 -1.0184
  241SOL    HW2  963   0.597   1.002   2.594 -3.4655  0.3445 -1.4839
  241SOL     MW  964   0.585   1.020   2.678 -0.4950  0.1040 -0.9052
  242SOL     OW  965   1.269   0.942   0.475 -0.2105 -0.4051  0.0580
  242SOL    HW1  966   1.241   0.857   0.507 -2.6476  0.4618  0.4554
  242SOL    HW2  967   1.268   0.998   0.552  0.1983  0.2450 -0.4006
  242SOL     MW  968   1.265   0.938   0.489 -0.4778 -0.1989  0.0611
  243SOL     OW  969   2.150   2.103   2.550 -0.0533 -0.0279 -0.3438
  243SOL    HW1  970   2.056   2.102   2.537 -0.3444 -1.4434  1.3325
  243SOL    HW2  971   2.187   2.112   2.462 -1.6987  3.1388 -0.8348
  243SOL     MW  972   2.143   2.104   2.537 -0.3099  0.1915 -0.1936
  244SOL     OW  973   1.648   0.414   0.101  0.0274  0.3353  0.1921
  244SOL    HW1  974   1.665   0.440   0.010 -2.5439  0.0156 -0.4690
  244SOL    HW2  975   1.581   0.345   0.094  0.5141 -0.4391  2.3022
  244SOL     MW  976   1.641   0.408   0.088 -0.2494  0.1972  0.3827
  245SOL     OW  977   1.852   2.175   0.265  0.6415 -0.3799  0.6488
  245SOL    HW1  978   1.809   2.092   0.284  0.0284  0.0830  1.3065
  245SOL    HW2  979   1.780   2.236   0.250  1.0017 -0.6697 -3.2824
  245SOL     MW  980   1.837   2.172   0.265  0.6064 -0.3613  0.2159
  246SOL     OW  981   0.645   1.424   2.650  0.2060  0.1535  0.1372
  246SOL    HW1  982   0.701   1.350   2.669  0.0517  0.3401  1.3937
  246SOL    HW2  983   0.704   1.491   2.615  0.4156 -0.3907 -0.5637
  246SOL     MW  984   0.660   1.423   2.648  0.2103  0.1109  0.2010
  247SOL     OW  985   1.991   0.314   1.322  0.4627 -0.3855 -0.3063
  247SOL    HW1  986   2.019   0.378   1.388  0.3506  0.0900 -0.7180
  247SOL    HW2  987   2.052   0.326   1.249  0.1826 -0.4620 -0.5542
  247SOL     MW  988   2.003   0.324   1.321  0.4053 -0.3362 -0.3872
  248SOL     OW  989   2.407   2.676   1.988  0.7613  0.2161  0.3307
  248SOL    HW1  990   2.421   2.752   1.931 -1.9850  1.1626  0.7682
  248SOL    HW2  991   2.439   2.705   2.073  1.4230  0.1866  0.0969
  248SOL     MW  992   2.413   2.690   1.992  0.4950  0.3324  0.3557
  249SOL     OW  993   0.369   1.859   2.965  0.4609  0.6743 -0.0957
  249SOL    HW1  994   0.336   1.817   2.885  0.5305  0.1411  0.1516
  249SOL    HW2  995   0.388   1.949   2.939 -0.1758  0.6957 -0.5082
  249SOL     MW  996   0.367   1.865   2.951  0.3936  0.6033 -0.1125
  250SOL     OW  997   2.167   0.058   2.334 -0.3237  0.1404  0.2248
  250SOL    HW1  998   2.156  -0.016   2.274  0.1879  0.9640 -0.9093
  250SOL    HW2  999   2.225   0.023   2.403 -1.4148 -0.9924  0.6168
  250SOL     MW 1000   2.173   0.043   2.335 -0.4076  0.1010  0.1322
  251SOL     OW 1001   0.397   1.616   0.803 -0.0628 -0.1733  0.4620
  251SOL    HW1 1002   0.399   1.523   0.783  0.8410  0.0211 -0.4459
  251SOL    HW2 1003   0.330   1.652   0.745 -1.5104 -0.4677  1.8945
  251SOL     MW 1004   0.389   1.609   0.793 -0.1324 -0.1847  0.5290
  252SOL     OW 1005   1.988   0.178   1.890 -0.5525 -0.2306 -0.2170
  252SOL    HW1 1006   1.977   0.256   1.835 -0.4236  0.5786  0.8773
  252SOL    HW2 1007   1.905   0.131   1.881 -0.4878 -0.1938 -1.2023
  252SOL     MW 1008   1.975   0.182   1.881 -0.5168 -0.1164 -0.2020
  253SOL     OW 1009   0.255   1.017   1.698 -0.6844 -0.4600 -0.0657
  253SOL    HW1 1010   0.335   1.066   1.717  0.6379 -2.1929 -0.8700
  253SOL    HW2 1011   0.228   1.049   1.612 -0.5314 -0.2745 -0.0457
  253SOL     MW 1012   0.262   1.028   1.689 -0.4946 -0.6688 -0.1565
  254SOL     OW 1013   2.469   1.267   2.152  0.7104  0.0961 -0.6629
  254SOL    HW1 1014   2.496   1.178   2.177 -2.0646 -0.0464  2.5783
  254SOL    HW2 1015   2.474   1.317   2.233 -1.1375  1.9763 -1.6329
  254SOL     MW 1016   2.473   1.262   2.166  0.1000  0.3248 -0.3626
  255SOL     OW 1017   2.290   2.396   2.903  0.4686  0.0061 -0.5925
  255SOL    HW1 1018   2.197   2.383   2.884 -0.5676  1.1193  2.9525
  255SOL    HW2 1019   2.302   2.491   2.899  0.2459  0.3153  3.1581
  255SOL     MW 1020   2.279   2.407   2.900  0.2981  0.1858  0.3636
  256SOL     OW 1021   2.399   0.160   1.319 -0.3304 -0.6967  0.1902
  256SOL    HW1 1022   2.483   0.206   1.321 -1.2484  1.0508  0.4372
  256SOL    HW2 1023   2.421   0.069   1.342  1.3599 -0.0823  1.1753
  256SOL     MW 1024   2.413   0.154   1.322 -0.2333 -0.3780  0.3513
  257SOL     OW 1025   2.859   2.825   0.994 -0.3362 -0.0404 -0.4071
  257SOL    HW1 1026   2.834   2.800   1.084 -0.8060 -1.1755 -0.8302
  257SOL    HW2 1027   2.946   2.787   0.982 -0.3937 -0.1316 -0.5321
  257SOL     MW 1028   2.867   2.817   1.005 -0.4042 -0.1955 -0.4744
  258SOL     OW 1029   0.733   2.214   1.419 -0.4459  0.0558  0.2602
  258SOL    HW1 1030   0.716   2.306   1.401 -1.1011  0.0968  1.0334
  258SOL    HW2 1031   0.803   2.190   1.358 -0.5490  0.9509 -0.2289
  258SOL     MW 1032   0.740   2.223   1.409 -0.5468  0.1715  0.2844
  259SOL     OW 1033   1.828   0.331   0.509 -0.3194 -0.1738  0.6811
  259SOL    HW1 1034   1.734   0.330   0.527 -0.3958  0.3591  0.3670
  259SOL    HW2 1035   1.865   0.387   0.577 -0.3390  0.2393  0.3573
  259SOL     MW 1036   1.821   0.338   0.520 -0.3344 -0.0482  0.5979
  260SOL     OW 1037   0.621   1.436   0.133 -0.3717 -0.4747  0.1365
  260SOL    HW1 1038   0.693   1.438   0.070  1.6518  2.1280  2.3056
  260SOL    HW2 1039   0.548   1.480   0.089  0.2529 -0.6915 -1.1343
  260SOL     MW 1040   0.621   1.442   0.119 -0.0134 -0.1494  0.2546
  261SOL     OW 1041   2.495   1.822   1.132  0.2311 -0.1423 -0.0389
  261SOL    HW1 1042   2.482   1.788   1.043 -1.5941 -0.7325  0.3980
  261SOL    HW2 1043   2.585   1.855   1.133  0.4185 -0.4857 -1.9779
  261SOL     MW 1044   2.505   1.822   1.120  0.0124 -0.2592 -0.2377
  262SOL     OW 1045   2.082   1.279   1.202 -0.2881 -0.0904  0.0675
  262SOL    HW1 1046   2.010   1.221   1.227 -0.7558  0.7879  0.7781
  262SOL    HW2 1047   2.075   1.287   1.107 -0.5906 -0.6906  0.0317
  262SOL     MW 1048   2.072   1.272   1.193 -0.3840 -0.0565  0.1481
  263SOL     OW 1049   2.371   2.693   2.943 -0.2548 -0.1336  0.0801
  263SOL    HW1 1050   2.436   2.725   2.881 -0.7989  0.9605  0.0520
  263SOL    HW2 1051   2.422   2.652   3.013  0.5965  2.1625  0.9019
  263SOL     MW 1052   2.386   2.691   2.944 -0.2209  0.3066  0.1857
  264SOL     OW 1053   2.417   1.012   1.941  0.1686  0.1613  0.1502
  264SOL    HW1 1054   2.341   1.030   1.885  0.7455  0.7007 -0.4814
  264SOL    HW2 1055   2.390   0.937   1.994  0.3736 -1.8739 -2.4042
  264SOL     MW 1056   2.403   1.005   1.940  0.2739 -0.0445 -0.2689
  265SOL     OW 1057   2.935   2.180   2.802 -0.2040 -0.3945 -0.2829
  265SOL    HW1 1058   2.858   2.235   2.815  0.0861  0.2753 -1.2743
  265SOL    HW2 1059   2.903   2.091   2.812 -0.6649 -0.0703  1.4688
  265SOL     MW 1060   2.921   2.176   2.805 -0.2325 -0.2536 -0.1861
  266SOL     OW 1061   0.354   2.592   0.613 -0.1626 -0.2065 -0.2893
  266SOL    HW1 1062   0.308   2.524   0.662  1.6974 -2.4476 -1.4642
  266SOL    HW2 1063   0.300   2.607   0.536  1.5944 -4.0916 -2.5662
  266SOL     MW 1064   0.341   2.585   0.609  0.3147 -1.0116 -0.7354
  267SOL     OW 1065   0.874   1.701   0.411 -0.3224  0.5373  0.4680
  267SOL    HW1 1066   0.884   1.765   0.481 -2.5946  1.5712 -0.0325
  267SOL    HW2 1067   0.805   1.642   0.442 -1.0438  0.7457 -0.6540
  267SOL     MW 1068   0.866   1.702   0.424 -0.7147  0.7041  0.2517
  268SOL     OW 1069   2.538   1.167   1.180  0.3009  0.0266  0.2164
  268SOL    HW1 1070   2.532   1.072   1.183 -0.7502  0.0750 -0.0023
  268SOL    HW2 1071   2.622   1.187   1.221  0.8028 -1.0183 -0.2659
  268SOL     MW 1072   2.548   1.157   1.186  0.2286 -0.1110  0.1295
  269SOL     OW 1073   0.321   1.538   2.097  0.1436  0.8610  0.1991
  269SOL    HW1 1074   0.312   1.545   2.002 -0.4697  1.2538  0.2794
  269SOL    HW2 1075   0.251   1.594   2.132 -0.6828 -0.5447  0.8850
  269SOL     MW 1076   0.310   1.546   2.089 -0.0506  0.7235  0.2946
  270SOL     OW 1077   2.045   0.353   0.994  0.0660  0.2596 -0.3633
  270SOL    HW1 1078   2.124   0.349   1.047  1.2656  1.7057 -1.9321
  270SOL    HW2 1079   2.050   0.277   0.936 -0.0483 -0.0182 -0.0130
  270SOL     MW 1080   2.056   0.343   0.994  0.2158  0.4171 -0.5207
  271SOL     OW 1081   2.607   1.207   0.152 -0.4252 -0.7539 -0.1181
  271SOL    HW1 1082   2.592   1.204   0.246 -1.7540 -2.1772 -0.3235
  271SOL    HW2 1083   2.533   1.257   0.118  0.6003  0.6508 -0.3368
  271SOL     MW 1084   2.595   1.213   0.160 -0.4662 -0.7572 -0.1824
  272SOL     OW 1085   1.251   2.100   2.984 -0.7442 -0.2012 -0.8916
  272SOL    HW1 1086   1.258   2.012   2.947  0.7235 -0.7132  0.4524
  272SOL    HW2 1087   1.198   2.089   3.063  0.7693 -0.2538  0.1763
  272SOL     MW 1088   1.245   2.087   2.990 -0.3520 -0.2695 -0.5767
  273SOL     OW 1089   0.234   2.834   1.899 -0.2386 -0.2278 -0.1240
  273SOL    HW1 1090   0.207   2.919   1.933 -0.2913 -0.5052  0.5376
  273SOL    HW2 1091   0.316   2.814   1.944 -0.4392 -0.7133  0.0356
  273SOL     MW 1092   0.241   2.842   1.909 -0.2727 -0.3334 -0.0154
  274SOL     OW 1093   0.316   1.496   1.808  0.1815 -0.4382 -0.3151
  274SOL    HW1 1094   0.276   1.409   1.817 -0.0530 -0.2750  0.2355
  274SOL    HW2 1095   0.241   1.556   1.810  0.2434 -0.2743 -1.6936
  274SOL     MW 1096   0.301   1.492   1.809  0.1481 -0.4011 -0.4210
  275SOL     OW 1097   0.158   2.891   0.786  0.1887  0.7067  0.4302
  275SOL    HW1 1098   0.147   2.986   0.790 -1.9423  0.4681  1.7205
  275SOL    HW2 1099   0.100   2.864   0.714  1.6276  0.4447 -0.6698
  275SOL     MW 1100   0.149   2.900   0.777  0.0918  0.6349  0.4627
  276SOL     OW 1101   1.688   1.148   2.691  0.2651 -0.5432  0.4104
  276SOL    HW1 1102   1.753   1.159   2.760 -0.1156 -1.5365  0.9463
  276SOL    HW2 1103   1.724   1.195   2.616  1.1402 -0.2667  0.9964
  276SOL     MW 1104   1.701   1.156   2.690  0.3294 -0.6373  0.5562
  277SOL     OW 1105   1.778   1.252   0.833 -0.4758  0.4112 -0.3053
  277SOL    HW1 1106   1.750   1.164   0.860  0.2103  0.7765  1.7280
  277SOL    HW2 1107   1.706   1.283   0.777 -1.7819 -0.5885  0.7517
  277SOL     MW 1108   1.765   1.244   0.829 -0.5565  0.3303  0.0950
  278SOL     OW 1109   1.007   1.642   0.694  0.2274 -0.1265 -0.2117
  278SOL    HW1 1110   1.061   1.678   0.624 -0.3270 -1.2683 -1.2658
  278SOL    HW2 1111   0.917   1.656   0.665 -0.0523  0.5415  0.8953
  278SOL     MW 1112   1.002   1.648   0.681  0.1178 -0.1955 -0.2044
  279SOL     OW 1113   1.719   0.012   2.324  0.1760  0.0974  0.1649
  279SOL    HW1 1114   1.694  -0.042   2.249  0.9158 -1.8706  1.2611
  279SOL    HW2 1115   1.745   0.096   2.286  0.3203 -0.7751 -1.7607
  279SOL     MW 1116   1.719   0.016   2.309  0.2908 -0.2803  0.0615
  280SOL     OW 1117   1.933   1.530   0.199 -0.3268 -0.1791 -0.6212
  280SOL    HW1 1118   1.989   1.561   0.128  0.8100  0.0498  0.3603
  280SOL    HW2 1119   1.916   1.608   0.252  1.3670 -0.8637  1.0580
  280SOL     MW 1120   1.938   1.545   0.197  0.0458 -0.2409 -0.2788
  281SOL     OW 1121   1.231   0.054   0.967  0.1168  0.2548 -0.1176
  281SOL    HW1 1122   1.184   0.006   0.900  1.2560  0.9062 -1.4395
  281SOL    HW2 1123   1.173   0.127   0.989  0.4132  0.9962 -1.6551
  281SOL     MW 1124   1.217   0.058   0.961  0.3133  0.4351 -0.5004
  282SOL     OW 1125   2.750   2.685   2.542 -0.3499  0.0666  0.1941
  282SOL    HW1 1126   2.792   2.726   2.466 -0.4748  0.0329  0.1066
  282SOL    HW2 1127   2.820   2.633   2.582 -1.0488 -2.7847 -1.9062
  282SOL     MW 1128   2.765   2.684   2.537 -0.4590 -0.3146 -0.1006
  283SOL     OW 1129   2.108   0.338   0.107 -0.4497  0.0818  0.1242
  283SOL    HW1 1130   2.193   0.314   0.146 -0.6922  0.6104  1.0126
  283SOL    HW2 1131   2.044   0.318   0.175 -1.0002  0.0861 -0.3860
  283SOL     MW 1132   2.111   0.332   0.121 -0.5482  0.1608  0.1776
  284SOL     OW 1133   1.354   1.597   1.185  0.1963 -0.1861  0.4140
  284SOL    HW1 1134   1.286   1.531   1.170 -0.1286  0.1736  0.3012
  284SOL    HW2 1135   1.307   1.671   1.225  0.7141 -0.3812  1.3997
  284SOL     MW 1136   1.338   1.598   1.188  0.2253 -0.1625  0.5265
  285SOL     OW 1137   0.143   2.817   2.277 -0.2600  0.3320 -0.1929
  285SOL    HW1 1138   0.192   2.786   2.354  2.0161 -1.0110 -2.0679
  285SOL    HW2 1139   0.190   2.896   2.249  0.0615 -0.2097 -1.2308
  285SOL     MW 1140   0.156   2.823   2.284  0.0818  0.0756 -0.5845
  286SOL     OW 1141   2.879   0.538   0.231  0.0515 -0.3138 -0.2710
  286SOL    HW1 1142   2.847   0.595   0.161 -0.1355 -1.2641 -0.9685
  286SOL    HW2 1143   2.853   0.450   0.205  1.5247 -0.8974  0.1015
  286SOL     MW 1144   2.872   0.534   0.219  0.2217 -0.5160 -0.3169
  287SOL     OW 1145   1.922   0.738   1.949 -0.1267 -0.2994  0.1504
  287SOL    HW1 1146   1.890   0.657   1.989 -0.9024  0.2209  0.6190
  287SOL    HW2 1147   1.861   0.805   1.979  2.7071  1.2690  3.2030
  287SOL     MW 1148   1.910   0.736   1.959  0.1494 -0.0200  0.6111
  288SOL     OW 1149   0.979   2.960   2.757  0.3058 -0.4666 -0.1144
  288SOL    HW1 1150   0.935   2.897   2.699  2.0065 -1.7712 -0.0658
  288SOL    HW2 1151   1.041   2.907   2.807  3.4155  1.4518 -1.6222
  288SOL     MW 1152   0.981   2.944   2.756  0.9452 -0.3860 -0.3048
  289SOL     OW 1153   0.992   1.353   0.431 -0.7731  0.1082  0.0987
  289SOL    HW1 1154   0.946   1.291   0.488 -0.0994  0.7564  1.3849
  289SOL    HW2 1155   0.946   1.436   0.444 -1.0830  0.1059 -0.8958
  289SOL     MW 1156   0.980   1.356   0.440 -0.7366  0.1948  0.1348
  290SOL     OW 1157   0.821   2.179   2.541 -0.1682  0.0472 -0.0013
  290SOL    HW1 1158   0.882   2.162   2.613 -0.5748 -1.2553  0.0724
  290SOL    HW2 1159   0.874   2.221   2.474  0.0308  2.1404  1.3757
  290SOL     MW 1160   0.836   2.182   2.542 -0.1984  0.1543  0.1980
  291SOL     OW 1161   2.448   1.715   0.892  0.4407 -0.1780  0.1128
  291SOL    HW1 1162   2.476   1.663   0.817 -0.4092 -0.6300  0.0876
  291SOL    HW2 1163   2.397   1.654   0.945 -1.6714  0.8994 -0.5553
  291SOL     MW 1164   2.445   1.700   0.889  0.0486 -0.0960  0.0208
  292SOL     OW 1165   2.646   0.621   2.852 -0.0132 -0.6787 -0.2511
  292SOL    HW1 1166   2.612   0.680   2.785 -1.7617 -0.8307  0.4467
  292SOL    HW2 1167   2.740   0.639   2.855 -0.3564  1.4291 -0.6970
  292SOL     MW 1168   2.654   0.631   2.844 -0.2943 -0.4137 -0.2189
  293SOL     OW 1169   1.082   2.426   0.248 -0.2955 -1.0865 -0.6900
  293SOL    HW1 1170   1.172   2.457   0.238 -0.0932 -1.2091  0.5098
  293SOL    HW2 1171   1.074   2.409   0.342 -1.5258 -1.2238 -0.8094
  293SOL     MW 1172   1.093   2.428   0.259 -0.4163 -1.1266 -0.5459
  294SOL     OW 1173   0.033   1.694   1.028  0.2784 -0.2223  0.2880
  294SOL    HW1 1174  -0.041   1.666   1.082  0.1730 -2.3808 -0.8653
  294SOL    HW2 1175   0.012   1.662   0.940  0.8960  2.3432 -0.8805
  294SOL     MW 1176   0.020   1.686   1.023  0.3355 -0.1554 -0.0152
  295SOL     OW 1177   2.001   1.580   2.254  0.7597  0.1260  0.2840
  295SOL    HW1 1178   1.965   1.668   2.247  2.5739  0.8446 -0.8622
  295SOL    HW2 1179   1.937   1.524   2.210 -0.5379  0.8042  1.2586
  295SOL     MW 1180   1.988   1.584   2.247  0.8315  0.3089  0.2644
  296SOL     OW 1181   0.252   2.566   2.668  0.2716  0.4654  0.7980
  296SOL    HW1 1182   0.159   2.582   2.651 -0.5370 -2.6448  1.7241
  296SOL    HW2 1183   0.296   2.595   2.588 -1.7017  0.1971 -0.4516
  296SOL     MW 1184   0.245   2.572   2.656 -0.0967  0.0271  0.7569
  297SOL     OW 1185   2.207   1.499   0.788 -0.2688  0.0341 -0.1242
  297SOL    HW1 1186   2.137   1.443   0.823 -0.7616  1.2595  0.8984
  297SOL    HW2 1187   2.287   1.447   0.799 -0.8806 -0.9989 -0.4269
  297SOL     MW 1188   2.208   1.484   0.794 -0.4232  0.0569 -0.0333
  298SOL     OW 1189   1.168   1.959   0.379  0.1415 -0.3204 -0.1041
  298SOL    HW1 1190   1.100   2.002   0.326 -0.1391 -1.0034 -0.2999
  298SOL    HW2 1191   1.192   1.882   0.328 -0.6492 -1.3876  1.0960
  298SOL     MW 1192   1.162   1.955   0.365  0.0058 -0.5519  0.0341
  299SOL     OW 1193   1.514   2.856   1.752 -0.2505 -0.1478 -0.2518
  299SOL    HW1 1194   1.496   2.788   1.818 -1.1091 -0.9005 -1.2075
  299SOL    HW2 1195   1.467   2.933   1.784  0.7392  0.0213  0.8546
  299SOL     MW 1196   1.505   2.857   1.765 -0.2270 -0.2311 -0.2378
  300SOL     OW 1197   1.294   0.978   0.015 -0.0343  0.3792 -0.1798
  300SOL    HW1 1198   1.358   0.931   0.068  1.3554  1.4015 -0.8829
  300SOL    HW2 1199   1.288   0.927  -0.066 -1.1145 -0.4185  0.3732
  300SOL     MW 1200   1.302   0.965   0.011  0.0060  0.4134 -0.1843
  301SOL     OW 1201   2.712   2.007   0.944 -0.2202 -0.0025  0.2257
  301SOL    HW1 1202   2.770   2.070   0.900  0.2416  0.6044  1.6456
  301SOL    HW2 1203   2.625   2.045   0.936  0.1092  1.0978  1.4604
  301SOL     MW 1204   2.708   2.021   0.937 -0.1146  0.2326  0.5752
  302SOL     OW 1205   2.326   1.901   0.207 -0.6253 -0.3361  0.3900
  302SOL    HW1 1206   2.320   1.867   0.118 -0.0061  1.6792 -0.4741
  302SOL    HW2 1207   2.417   1.890   0.231 -0.3629  0.8431  0.0096
  302SOL     MW 1208   2.337   1.895   0.198 -0.5087  0.0842  0.2296
  303SOL     OW 1209   0.469   2.527   2.220 -0.3342  0.5543 -0.5161
  303SOL    HW1 1210   0.471   2.596   2.154  2.0530  0.6744 -0.3836
  303SOL    HW2 1211   0.424   2.454   2.177  0.1221  1.0384 -1.8498
  303SOL     MW 1212   0.463   2.526   2.206  0.0381  0.6286 -0.6667
  304SOL     OW 1213   1.899   2.234   2.323 -0.3811  0.7267 -0.4287
  304SOL    HW1 1214   1.992   2.257   2.315 -0.2709  0.8734  0.9563
  304SOL    HW2 1215   1.852   2.315   2.304 -0.2932  0.4029 -2.1658
  304SOL     MW 1216   1.905   2.247   2.320 -0.3533  0.7036 -0.4772
  305SOL     OW 1217   0.431   1.981   0.906  0.3368 -0.7849 -0.1031
  305SOL    HW1 1218   0.339   1.988   0.881  0.7732 -0.9216 -1.8291
  305SOL    HW2 1219   0.438   1.896   0.949  0.0395 -1.7230 -1.8243
  305SOL     MW 1220   0.419   1.971   0.909  0.3559 -0.9220 -0.5448
  306SOL     OW 1221   0.117   1.161   0.963  0.0875 -0.1108 -0.1384
  306SOL    HW1 1222   0.189   1.222   0.976 -0.0835  0.1595 -0.4382
  306SOL    HW2 1223   0.158   1.074   0.966  0.3312  0.0204  0.2692
  306SOL     MW 1224   0.132   1.158   0.965  0.1036 -0.0464 -0.1165
  307SOL     OW 1225   1.360   0.004   0.186 -0.1674  0.3587  0.1212
  307SOL    HW1 1226   1.417  -0.009   0.262  0.5571  0.4751 -0.3967
  307SOL    HW2 1227   1.411   0.059   0.126  0.0868 -1.3514 -1.3227
  307SOL     MW 1228   1.374   0.010   0.188 -0.0373  0.1457 -0.1370
  308SOL     OW 1229   1.121   1.978   1.463  0.0157  0.4755 -0.1665
  308SOL    HW1 1230   1.151   2.047   1.522  0.6377 -0.2528  0.3761
  308SOL    HW2 1231   1.057   2.022   1.407  1.5696  1.8992 -0.9028
  308SOL     MW 1232   1.116   1.993   1.464  0.3076  0.5677 -0.1977
  309SOL     OW 1233   0.356   1.927   0.520  0.8499 -0.6693  0.2764
  309SOL    HW1 1234   0.412   1.856   0.488  1.4444 -0.4327  0.7845
  309SOL    HW2 1235   0.287   1.882   0.568 -0.0284 -1.0320 -1.2326
  309SOL     MW 1236   0.354   1.912   0.522  0.8232 -0.6783  0.1467
  310SOL     OW 1237   1.063   0.772   2.274 -0.2550 -0.1115  0.0387
  310SOL    HW1 1238   1.080   0.862   2.303  1.1145 -0.2198 -0.3437
  310SOL    HW2 1239   1.149   0.738   2.251 -0.7216 -1.6001  0.3616
  310SOL     MW 1240   1.077   0.779   2.275 -0.1351 -0.3157  0.0373
  311SOL     OW 1241   2.053   2.195   0.055  0.2470 -0.2366  0.0840
  311SOL    HW1 1242   1.976   2.213   0.110 -0.6231  0.4106 -1.2786
  311SOL    HW2 1243   2.025   2.221  -0.033  1.4445 -1.6507 -0.7474
  311SOL     MW 1244   2.039   2.201   0.050  0.2902 -0.3455 -0.2026
  312SOL     OW 1245   1.977   2.494   1.939  0.2766 -0.0601 -0.9764
  312SOL    HW1 1246   2.012   2.508   1.851  1.1750  0.2096 -0.5904
  312SOL    HW2 1247   1.923   2.416   1.930  0.1456  0.1098 -1.8221
  312SOL     MW 1248   1.974   2.486   1.926  0.3743  0.0057 -1.0283
  313SOL     OW 1249   2.272   1.977   1.155  0.0527 -0.2111 -0.2751
  313SOL    HW1 1250   2.235   1.954   1.069  0.9024  0.9143 -0.9775
  313SOL    HW2 1251   2.351   1.923   1.162  0.9571  0.9478 -1.0344
  313SOL     MW 1252   2.278   1.967   1.144  0.2784  0.0906 -0.4780
  314SOL     OW 1253   2.560   2.521   1.754 -0.5392 -0.4871 -0.2483
  314SOL    HW1 1254   2.608   2.535   1.836 -2.3998 -1.2724  1.0299
  314SOL    HW2 1255   2.628   2.497   1.691  1.1785  1.8661  0.5490
  314SOL     MW 1256   2.575   2.520   1.756 -0.5598 -0.2782  0.0250
  315SOL     OW 1257   2.816   2.520   1.912  0.2197 -0.2753 -0.1016
  315SOL    HW1 1258   2.894   2.566   1.943  0.1127 -0.1917  0.0508
  315SOL    HW2 1259   2.837   2.427   1.923  0.3284 -0.2550 -0.1373
  315SOL     MW 1260   2.829   2.514   1.918  0.2139 -0.2627 -0.0782
  316SOL     OW 1261   1.663   0.308   0.835  0.4070 -0.2273 -0.3895
  316SOL    HW1 1262   1.708   0.375   0.886  0.5564  1.3634 -2.5221
  316SOL    HW2 1263   1.574   0.307   0.871  0.8315 -0.0485  0.7121
  316SOL     MW 1264   1.657   0.316   0.847  0.4753  0.0137 -0.5329
  317SOL     OW 1265   0.001   1.241   0.721  0.0124  0.2700  0.2452
  317SOL    HW1 1266   0.058   1.309   0.685  0.5681  0.0187  0.6266
  317SOL    HW2 1267   0.059   1.188   0.776 -0.1776 -1.1295 -0.8273
  317SOL     MW 1268   0.016   1.243   0.723  0.0610  0.0537  0.1487
  318SOL     OW 1269   0.102   2.198   0.669  0.2722  0.0322 -0.2085
  318SOL    HW1 1270   0.063   2.227   0.586  0.6108 -2.1695 -1.2057
  318SOL    HW2 1271   0.196   2.195   0.651  0.6141  1.8188  1.0492
  318SOL     MW 1272   0.110   2.202   0.656  0.3723 -0.0198 -0.1695
  319SOL     OW 1273   1.942   1.856   2.147  0.2043 -0.0519  0.8451
  319SOL    HW1 1274   2.032   1.890   2.147  0.0654  0.3215  1.0109
  319SOL    HW2 1275   1.890   1.924   2.104  0.1318 -0.6449 -0.0437
  319SOL     MW 1276   1.947   1.870   2.141  0.1763 -0.0869  0.7553
  320SOL     OW 1277   1.492   2.768   0.584 -0.6576 -0.0119  0.2386
  320SOL    HW1 1278   1.550   2.730   0.518 -0.6374  1.9513 -0.9317
  320SOL    HW2 1279   1.551   2.806   0.649 -0.6791 -1.7699  1.3598
  320SOL     MW 1280   1.507   2.768   0.584 -0.6557  0.0167  0.2336
  321SOL     OW 1281   1.142   1.483   0.225 -0.1081 -0.5561 -0.1584
  321SOL    HW1 1282   1.119   1.449   0.139 -0.2558  1.5453 -0.9901
  321SOL    HW2 1283   1.096   1.426   0.287 -0.1720 -1.9577 -1.4599
  321SOL     MW 1284   1.133   1.471   0.222 -0.1302 -0.4683 -0.4349
  322SOL     OW 1285   2.773   1.925   2.830 -0.3625 -0.4106  0.1291
  322SOL    HW1 1286   2.689   1.908   2.788 -1.0766 -1.7723  1.9969
  322SOL    HW2 1287   2.837   1.888   2.769 -1.1109  0.1722 -1.0678
  322SOL     MW 1288   2.770   1.918   2.816 -0.5438 -0.5055  0.2065
  323SOL     OW 1289   0.716   1.937   0.225 -0.4961 -0.7664 -0.0632
  323SOL    HW1 1290   0.808   1.910   0.218 -0.6976 -1.2433 -1.0114
  323SOL    HW2 1291   0.720   2.025   0.262  0.2052 -1.9526  3.0525
  323SOL     MW 1292   0.729   1.945   0.229 -0.4350 -0.9834  0.2194
  324SOL     OW 1293   2.954   0.374   1.971 -0.2726 -0.1329  0.3189
  324SOL    HW1 1294   2.948   0.439   1.901 -1.8836  0.0938  0.6281
  324SOL    HW2 1295   2.936   0.423   2.051 -1.2453 -0.8801  0.5879
  324SOL     MW 1296   2.951   0.389   1.973 -0.6164 -0.2080  0.3925
  325SOL     OW 1297   1.524   0.261   1.711 -0.2180  0.8511 -0.3098
  325SOL    HW1 1298   1.517   0.350   1.677 -0.7443  0.2650 -1.8280
  325SOL    HW2 1299   1.618   0.244   1.717 -0.1178  1.5590  0.1327
  325SOL     MW 1300   1.535   0.270   1.707 -0.2719  0.8556 -0.4485
  326SOL     OW 1301   1.393   1.397   0.331 -0.1217  0.0492 -0.0878
  326SOL    HW1 1302   1.316   1.428   0.282  1.4260  0.3498 -2.4808
  326SOL    HW2 1303   1.399   1.304   0.310  0.3219  0.0908 -0.1468
  326SOL     MW 1304   1.383   1.389   0.322  0.1377  0.0979 -0.4165
  327SOL     OW 1305   1.516   1.552   0.658 -0.2413  0.4743  0.6183
  327SOL    HW1 1306   1.549   1.557   0.748 -2.9153 -1.4892  1.8578
  327SOL    HW2 1307   1.447   1.486   0.662 -0.7918  0.6699 -2.8270
  327SOL     MW 1308   1.512   1.544   0.670 -0.6662  0.2508  0.3225
  328SOL     OW 1309   1.424   2.247   2.806  0.1549 -0.1701 -1.0035
  328SOL    HW1 1310   1.366   2.203   2.869  1.0601 -0.8097 -0.5853
  328SOL    HW2 1311   1.499   2.273   2.859  1.6516 -2.0756 -2.0562
  328SOL     MW 1312   1.426   2.244   2.821  0.4640 -0.5000 -1.0804
  329SOL     OW 1313   0.950   2.093   1.260  0.5418  0.3672 -0.0368
  329SOL    HW1 1314   1.007   2.151   1.208  0.1648 -0.1653 -1.0533
  329SOL    HW2 1315   0.897   2.047   1.196  1.3429 -1.6752  0.7058
  329SOL     MW 1316   0.951   2.095   1.245  0.6003  0.0263 -0.0854
  330SOL     OW 1317   2.099   2.621   2.535  0.2309  0.2863 -0.1754
  330SOL    HW1 1318   2.179   2.580   2.501  0.8173  1.4155 -0.2154
  330SOL    HW2 1319   2.129   2.704   2.571 -0.8614  0.4882  0.2910
  330SOL     MW 1320   2.113   2.626   2.535  0.1564  0.4584 -0.1210
  331SOL     OW 1321   2.339   1.168   0.588 -0.5949  0.1667 -0.1351
  331SOL    HW1 1322   2.398   1.242   0.598  0.2456 -0.6400  1.1190
  331SOL    HW2 1323   2.286   1.168   0.668 -2.3497  0.8795 -1.2396
  331SOL     MW 1324   2.340   1.178   0.600 -0.7105  0.1533 -0.1214
  332SOL     OW 1325   2.621   2.528   1.228  0.5829 -0.0970 -0.3423
  332SOL    HW1 1326   2.629   2.451   1.284  2.3050  0.9774  0.9969
  332SOL    HW2 1327   2.529   2.551   1.231  0.3301 -1.1483  0.5517
  332SOL     MW 1328   2.610   2.521   1.236  0.7802 -0.1004 -0.0481
  333SOL     OW 1329   1.533   0.459   2.816  0.0772  0.1899  0.2786
  333SOL    HW1 1330   1.507   0.543   2.780 -1.8362 -0.6666 -0.4227
  333SOL    HW2 1331   1.454   0.423   2.855  1.0751 -0.8877  1.4234
  333SOL     MW 1332   1.519   0.465   2.817 -0.0467 -0.0582  0.3347
  334SOL     OW 1333   2.538   1.613   1.704 -0.3682 -0.2167  0.4528
  334SOL    HW1 1334   2.568   1.550   1.770 -0.2183  0.8150  1.4011
  334SOL    HW2 1335   2.465   1.658   1.746 -0.7540 -0.0407 -0.3824
  334SOL     MW 1336   2.532   1.610   1.718 -0.3971 -0.0628  0.4666
  335SOL     OW 1337   1.230   2.632   0.573 -1.0081  0.0750 -0.3407
  335SOL    HW1 1338   1.230   2.668   0.484 -1.5330  1.0176  0.0233
  335SOL    HW2 1339   1.300   2.679   0.618  0.7505 -1.9435 -0.8145
  335SOL     MW 1340   1.239   2.643   0.567 -0.8432 -0.0696 -0.3515
  336SOL     OW 1341   2.488   2.909   1.391 -0.0616 -0.3266  0.7451
  336SOL    HW1 1342   2.545   2.875   1.321 -0.3645  0.8146 -0.0932
  336SOL    HW2 1343   2.490   2.842   1.459  0.8968 -1.0983 -0.0190
  336SOL     MW 1344   2.496   2.896   1.390  0.0203 -0.2754  0.5394
  337SOL     OW 1345   0.930   2.762   1.248 -0.0763 -0.9259 -0.4629
  337SOL    HW1 1346   0.839   2.789   1.266  0.3696  0.2276  0.2247
  337SOL    HW2 1347   0.929   2.735   1.157 -1.2945 -1.7800 -0.2280
  337SOL     MW 1348   0.918   2.762   1.239 -0.1817 -0.8988 -0.3548
  338SOL     OW 1349   0.604   1.286   2.129  0.2402  0.3225 -0.5883
  338SOL    HW1 1350   0.682   1.299   2.074  1.5445 -0.3760  1.0259
  338SOL    HW2 1351   0.625   1.209   2.182 -1.6343  0.0234 -0.2178
  338SOL     MW 1352   0.617   1.277   2.128  0.1639  0.1860 -0.3259
  339SOL     OW 1353   1.925   2.526   1.593 -0.3428  0.5147  0.2209
  339SOL    HW1 1354   1.860   2.456   1.593  0.7090 -0.4885  0.3670
  339SOL    HW2 1355   1.874   2.607   1.602 -1.5027 -0.3076  1.2968
  339SOL     MW 1356   1.910   2.528   1.594 -0.3630  0.2667  0.3740
  340SOL     OW 1357   0.745   2.572   2.705  0.3362 -0.2915 -0.0528
  340SOL    HW1 1358   0.692   2.497   2.679 -1.2195 -0.0567  2.1039
  340SOL    HW2 1359   0.804   2.537   2.772  0.2256  0.1863  0.3030
  340SOL     MW 1360   0.746   2.557   2.711  0.1057 -0.1938  0.2806
  341SOL     OW 1361   1.901   0.799   1.682  0.4061 -0.2895  0.6635
  341SOL    HW1 1362   1.836   0.750   1.632 -2.5615  2.1033  1.8415
  341SOL    HW2 1363   1.880   0.781   1.773  0.8941  1.1265  1.0844
  341SOL     MW 1364   1.890   0.791   1.687  0.0714  0.2197  0.8786
  342SOL     OW 1365   1.299   1.354   0.600  0.5249  0.3231 -0.7434
  342SOL    HW1 1366   1.282   1.262   0.618 -1.4613  0.9737  1.1784
  342SOL    HW2 1367   1.310   1.359   0.505  2.6692 -2.1096 -0.7201
  342SOL     MW 1368   1.298   1.343   0.590  0.5518  0.0831 -0.4812
  343SOL     OW 1369   2.477   2.737   1.604 -0.7927 -0.1971 -0.3837
  343SOL    HW1 1370   2.498   2.653   1.646  2.0312  0.4820 -0.2167
  343SOL    HW2 1371   2.453   2.795   1.677  0.5733  0.0130 -0.0811
  343SOL     MW 1372   2.476   2.734   1.619 -0.2526 -0.0806 -0.3204
  344SOL     OW 1373   2.850   1.605   2.499  0.0732  0.3604 -0.3440
  344SOL    HW1 1374   2.912   1.639   2.563 -0.2806  1.1612 -0.4147
  344SOL    HW2 1375   2.905   1.579   2.424  0.4464 -0.2155  0.1231
  344SOL     MW 1376   2.866   1.606   2.497  0.0694  0.4020 -0.2892
  345SOL     OW 1377   2.183   2.243   2.240  0.3465  0.2866  0.0424
  345SOL    HW1 1378   2.226   2.317   2.198  1.4400 -0.0242  0.5690
  345SOL    HW2 1379   2.197   2.170   2.180  0.6354  0.1659  0.2544
  345SOL     MW 1380   2.190   2.243   2.226  0.5248  0.2357  0.1383
  346SOL     OW 1381   0.540   0.542   0.510  0.0645 -0.6185  0.2663
  346SOL    HW1 1382   0.488   0.559   0.431 -1.6430 -3.3092  0.6460
  346SOL    HW2 1383   0.495   0.592   0.579  1.9056  2.2167 -0.4282
  346SOL     MW 1384   0.527   0.551   0.509  0.0836 -0.5976  0.2230
  347SOL     OW 1385   2.138   1.560   0.539  0.4791 -0.5054 -0.2417
  347SOL    HW1 1386   2.051   1.523   0.526 -0.7762  1.7964  1.0226
  347SOL    HW2 1387   2.159   1.541   0.630  1.6490 -1.6621 -0.7302
  347SOL     MW 1388   2.129   1.553   0.549  0.4581 -0.3558 -0.1386
  348SOL     OW 1389   0.389   1.164   1.999  0.0531 -0.0422  0.0334
  348SOL    HW1 1390   0.379   1.096   2.066  0.5087  1.5070  1.7935
  348SOL    HW2 1391   0.465   1.214   2.029  2.2400 -1.0287 -3.3271
  348SOL     MW 1392   0.398   1.162   2.012  0.4005  0.0335 -0.1742
  349SOL     OW 1393   1.775   2.048   2.048 -0.3654  0.3481  0.2230
  349SOL    HW1 1394   1.734   2.080   2.128 -1.8629  1.1463 -0.7890
  349SOL    HW2 1395   1.701   2.024   1.992  0.6630 -1.2197 -0.5338
  349SOL     MW 1396   1.760   2.049   2.051 -0.4354  0.2517 -0.0031
  350SOL     OW 1397   1.367   1.652   1.694  0.5329 -0.0955 -0.1273
  350SOL    HW1 1398   1.456   1.635   1.727  0.6609 -0.0802 -0.4594
  350SOL    HW2 1399   1.381   1.698   1.611  0.2818 -2.7066 -1.7311
  350SOL     MW 1400   1.381   1.656   1.687  0.5112 -0.4339 -0.3833
  351SOL     OW 1401   0.686   0.849   0.746  0.4818  0.2528  0.3288
  351SOL    HW1 1402   0.608   0.853   0.690 -0.0756  0.1175  1.0842
  351SOL    HW2 1403   0.754   0.813   0.689  0.2626  1.2978 -0.6356
  351SOL     MW 1404   0.684   0.845   0.731  0.3756  0.3668  0.3068
  352SOL     OW 1405   1.640   2.012   0.690 -0.2388 -0.0124 -0.1252
  352SOL    HW1 1406   1.718   1.960   0.667  0.1745  0.3649  0.3886
  352SOL    HW2 1407   1.676   2.095   0.720 -0.8389  0.1137  0.2503
  352SOL     MW 1408   1.655   2.016   0.691 -0.2652  0.0604 -0.0021
  353SOL     OW 1409   1.104   0.663   0.785  0.1089  0.1554  0.2957
  353SOL    HW1 1410   1.059   0.735   0.828 -0.7451 -1.5663  2.4670
  353SOL    HW2 1411   1.188   0.656   0.831 -0.2273 -0.8366  0.7754
  353SOL     MW 1412   1.109   0.672   0.797 -0.0486 -0.2025  0.6360
  354SOL     OW 1413   1.575   2.671   0.939  0.2574  0.1273 -0.0874
  354SOL    HW1 1414   1.501   2.723   0.969 -0.2598 -1.3027  1.2707
  354SOL    HW2 1415   1.535   2.592   0.902  1.0620 -0.7532  0.8429
  354SOL     MW 1416   1.560   2.667   0.938  0.2933 -0.1936  0.2108
  355SOL     OW 1417   1.885   1.958   2.833 -0.7592 -0.2104  0.3088
  355SOL    HW1 1418   1.872   2.044   2.795 -0.6014 -0.0921  0.5219
  355SOL    HW2 1419   1.979   1.941   2.823 -1.0385 -1.0630 -1.2339
  355SOL     MW 1420   1.896   1.967   2.827 -0.7758 -0.3057  0.1377
  356SOL     OW 1421   0.632   0.719   1.002  0.1087 -0.8695 -0.3313
  356SOL    HW1 1422   0.574   0.779   1.049 -0.6123 -1.4186 -0.5035
  356SOL    HW2 1423   0.643   0.758   0.916  0.5224 -0.4401 -0.0914
  356SOL     MW 1424   0.626   0.732   0.997  0.0637 -0.8734 -0.3220
  357SOL     OW 1425   1.774   2.804   2.489  0.1217  0.3184  0.2927
  357SOL    HW1 1426   1.847   2.835   2.544  0.6838 -0.7138  0.1576
  357SOL    HW2 1427   1.767   2.870   2.420  0.1668  1.0277  0.9518
  357SOL     MW 1428   1.783   2.817   2.487  0.2029  0.2702  0.3667
  358SOL     OW 1429   1.209   0.020   1.474  0.4310 -0.4909 -0.2351
  358SOL    HW1 1430   1.301  -0.003   1.459  0.3874  0.6950 -2.9275
  358SOL    HW2 1431   1.212   0.105   1.518  0.6866  0.1935 -1.5215
  358SOL     MW 1432   1.222   0.028   1.478  0.4573 -0.2434 -0.7706
  359SOL     OW 1433   2.011   1.150   2.431  1.1098 -0.5992  0.0962
  359SOL    HW1 1434   1.950   1.077   2.437  0.4713 -0.0330  0.5667
  359SOL    HW2 1435   2.057   1.136   2.348 -1.6053  0.4525 -1.7102
  359SOL     MW 1436   2.009   1.138   2.421  0.6629 -0.3898 -0.0738
  360SOL     OW 1437   1.380   2.031   2.425  0.1720 -0.7848 -0.1478
  360SOL    HW1 1438   1.294   1.992   2.436  0.0936 -1.0589 -1.5200
  360SOL    HW2 1439   1.362   2.123   2.405  0.2034 -0.8198 -0.3362
  360SOL     MW 1440   1.367   2.038   2.424  0.1699 -0.8187 -0.3550
  361SOL     OW 1441   1.528   2.067   0.071 -0.0399  0.2530 -0.0117
  361SOL    HW1 1442   1.550   1.975   0.069  1.0623  0.4936  0.4699
  361SOL    HW2 1443   1.432   2.069   0.080  0.0668 -0.8771  2.0285
  361SOL     MW 1444   1.518   2.055   0.072  0.1166  0.1320  0.3211
  362SOL     OW 1445   1.780   1.723   2.926 -0.2882  0.1740  0.7427
  362SOL    HW1 1446   1.810   1.812   2.906 -0.6744 -0.2024 -1.7802
  362SOL    HW2 1447   1.861   1.675   2.945  0.0076  0.8094  1.1405
  362SOL     MW 1448   1.795   1.728   2.926 -0.2890  0.2137  0.4632
  363SOL     OW 1449   2.390   1.684   2.523  0.0455  0.5496 -0.7645
  363SOL    HW1 1450   2.398   1.671   2.428 -1.3371 -0.1045 -0.8131
  363SOL    HW2 1451   2.454   1.623   2.560 -0.7418 -0.5988 -1.2388
  363SOL     MW 1452   2.400   1.674   2.515 -0.2398  0.3101 -0.8342
  364SOL     OW 1453   1.963   1.692   2.691 -0.5094 -0.2217  0.1017
  364SOL    HW1 1454   1.997   1.617   2.643  1.2434 -0.0511  1.0058
  364SOL    HW2 1455   1.876   1.664   2.721 -0.7108 -1.1293 -1.2318
  364SOL     MW 1456   1.956   1.679   2.689 -0.3030 -0.3152  0.0423
  365SOL     OW 1457   0.182   0.750   2.137  0.2682 -0.3070  0.2506
  365SOL    HW1 1458   0.205   0.674   2.084  1.4594 -0.7168  1.3216
  365SOL    HW2 1459   0.098   0.780   2.100 -0.0994 -1.9678 -0.3564
  365SOL     MW 1460   0.174   0.744   2.125  0.3820 -0.5798  0.3099
  366SOL     OW 1461   0.143   2.945   1.420  0.1996  0.1431  0.1836
  366SOL    HW1 1462   0.154   2.892   1.499  1.4614  1.4052  0.9097
  366SOL    HW2 1463   0.212   2.915   1.361 -0.1282 -0.1385 -0.0589
  366SOL     MW 1464   0.153   2.934   1.423  0.3229  0.2744  0.2537
  367SOL     OW 1465   0.594   1.948   0.681 -0.1549  0.4565  0.7823
  367SOL    HW1 1466   0.544   1.929   0.601 -0.4429  0.8985  0.8496
  367SOL    HW2 1467   0.530   1.945   0.751 -0.1096  1.1078  0.8595
  367SOL     MW 1468   0.579   1.945   0.679 -0.1864  0.5980  0.8045
  368SOL     OW 1469   1.926   0.510   2.293  0.1097  0.1304  0.3233
  368SOL    HW1 1470   1.916   0.494   2.199 -1.3219  1.0556  0.2893
  368SOL    HW2 1471   2.011   0.470   2.315  0.5065 -0.0413 -1.3593
  368SOL     MW 1472   1.936   0.503   2.284 -0.0275  0.2360  0.0969
  369SOL     OW 1473   2.490   0.051   0.529 -0.4555  0.0478  0.1910
  369SOL    HW1 1474   2.429   0.058   0.602 -0.4230 -0.9491  0.3319
  369SOL    HW2 1475   2.435   0.052   0.451 -0.3766  3.1112  0.0567
  369SOL     MW 1476   2.475   0.052   0.529 -0.4326  0.3221  0.1897
  370SOL     OW 1477   2.707   2.927   2.965  0.2171  0.4212  0.3114
  370SOL    HW1 1478   2.623   2.969   2.946  0.6379  1.0277 -0.2649
  370SOL    HW2 1479   2.693   2.881   3.047 -0.7588  0.2887  0.0801
  370SOL     MW 1480   2.694   2.926   2.973  0.1446  0.4851  0.2068
  371SOL     OW 1481   2.357   0.666   0.915 -0.7095  0.1865  0.3740
  371SOL    HW1 1482   2.304   0.628   0.845 -0.4307  1.5216 -0.6012
  371SOL    HW2 1483   2.412   0.732   0.872  0.7019 -0.1201  1.5828
  371SOL     MW 1484   2.358   0.670   0.900 -0.4891  0.3324  0.4042
  372SOL     OW 1485   0.985   1.791   0.189 -0.7422 -0.3592  0.1919
  372SOL    HW1 1486   0.932   1.757   0.262  0.1903 -0.8708  0.6514
  372SOL    HW2 1487   1.066   1.740   0.192 -0.0592  0.6474 -0.2669
  372SOL     MW 1488   0.989   1.780   0.199 -0.5288 -0.3112  0.1875
  373SOL     OW 1489   0.841   0.263   1.156 -0.2485  0.4717 -0.5491
  373SOL    HW1 1490   0.884   0.262   1.071  0.0967  0.3662 -0.3755
  373SOL    HW2 1491   0.911   0.242   1.219 -0.1881  1.9196 -0.0939
  373SOL     MW 1492   0.856   0.260   1.153 -0.1974  0.6420 -0.4554
  374SOL     OW 1493   1.444   1.685   1.430 -0.5602 -0.1552 -0.0860
  374SOL    HW1 1494   1.530   1.694   1.389 -0.1199  0.1304  0.8625
  374SOL    HW2 1495   1.403   1.611   1.386 -0.1758  0.2320 -1.1312
  374SOL     MW 1496   1.450   1.677   1.419 -0.4435 -0.0623 -0.1051
  375SOL     OW 1497   0.395   1.326   1.463  0.4374 -0.6167  0.0405
  375SOL    HW1 1498   0.435   1.410   1.440 -1.7991  0.7901  0.8786
  375SOL    HW2 1499   0.400   1.322   1.558 -2.3370  0.2273  0.3086
  375SOL     MW 1500   0.401   1.337   1.472 -0.2237 -0.3120  0.1945
  376SOL     OW 1501   2.919   1.258   0.189  0.0982 -0.1116  0.1785
  376SOL    HW1 1502   2.842   1.212   0.155  0.7861 -1.0995 -0.0945
  376SOL    HW2 1503   2.919   1.342   0.144 -1.7853  0.6641  1.4517
  376SOL     MW 1504   2.909   1.263   0.179 -0.0520 -0.1398  0.3095
  377SOL     OW 1505   1.214   1.594   2.537 -0.0462 -0.7315  0.2553
  377SOL    HW1 1506   1.304   1.597   2.569 -0.1592 -0.4970  0.5609
  377SOL    HW2 1507   1.172   1.671   2.576 -0.0803 -0.2009 -0.7763
  377SOL     MW 1508   1.220   1.605   2.546 -0.0641 -0.6325  0.1600
  378SOL     OW 1509   1.109   1.056   2.312  0.5171  0.1913  0.2013
  378SOL    HW1 1510   1.180   1.119   2.295  0.7767 -0.3339 -0.7182
  378SOL    HW2 1511   1.060   1.053   2.230 -0.2409  0.1194  0.6474
  378SOL     MW 1512   1.112   1.064   2.299  0.4530  0.1099  0.1346
  379SOL     OW 1513   2.211   0.065   1.047  0.0809 -0.2357  0.2630
  379SOL    HW1 1514   2.136   0.103   1.001 -0.0844  0.1430  0.8289
  379SOL    HW2 1515   2.190   0.077   1.140  0.3145 -1.1582  0.4435
  379SOL     MW 1516   2.198   0.072   1.053  0.0937 -0.3142  0.3661
  380SOL     OW 1517   0.674   2.104   0.954  0.0476  0.3498  0.0499
  380SOL    HW1 1518   0.589   2.064   0.937  0.0981 -0.5952  1.8102
  380SOL    HW2 1519   0.675   2.183   0.900 -1.5552 -0.1206 -0.7122
  380SOL     MW 1520   0.663   2.109   0.945 -0.1688  0.1791  0.1830
  381SOL     OW 1521   1.426   0.146   2.100  0.0533  0.1794 -0.3123
  381SOL    HW1 1522   1.345   0.168   2.054  1.1894  2.3099 -1.4614
  381SOL    HW2 1523   1.416   0.054   2.123 -1.6663 -0.2792 -2.5465
  381SOL     MW 1524   1.414   0.137   2.097 -0.0353  0.4112 -0.7558
  382SOL     OW 1525   2.166   1.124   2.215  0.5224 -0.0067  0.2146
  382SOL    HW1 1526   2.128   1.077   2.140 -0.4141 -2.1336  1.8998
  382SOL    HW2 1527   2.249   1.080   2.231  0.4030 -0.0241  0.8180
  382SOL     MW 1528   2.172   1.112   2.207  0.3844 -0.2874  0.5118
  383SOL     OW 1529   2.980   1.086   1.774  0.1220 -0.5811  0.1807
  383SOL    HW1 1530   2.949   1.099   1.684  2.1194  0.0526 -0.4727
  383SOL    HW2 1531   3.074   1.070   1.765  0.3405 -0.6576  2.1598
  383SOL     MW 1532   2.988   1.086   1.761  0.4154 -0.5139  0.3592
  384SOL     OW 1533   0.196   0.422   1.148 -0.3126 -0.2888 -0.0231
  384SOL    HW1 1534   0.162   0.499   1.102 -0.0952 -0.7439 -0.9865
  384SOL    HW2 1535   0.123   0.359   1.148 -0.2185 -0.3991 -0.0128
  384SOL     MW 1536   0.182   0.424   1.142 -0.2692 -0.3653 -0.1519
  385SOL     OW 1537   2.399   3.004   0.280  0.1856 -0.3916  0.3471
  385SOL    HW1 1538   2.473   2.948   0.255  0.6694  0.8626 -1.1238
  385SOL    HW2 1539   2.325   2.970   0.230  0.4184  0.0813 -0.3361
  385SOL     MW 1540   2.399   2.992   0.270  0.2838 -0.1518  0.0674
  386SOL     OW 1541   1.684   2.446   2.322 -0.1246 -0.1533 -0.1227
  386SOL    HW1 1542   1.746   2.516   2.345  0.1409 -0.3201 -0.3276
  386SOL    HW2 1543   1.658   2.409   2.407  0.2627 -0.2546 -0.0429
  386SOL     MW 1544   1.689   2.450   2.337 -0.0379 -0.1905 -0.1328
  387SOL     OW 1545   2.637   1.190   0.428  0.1469 -0.1903  0.1465
  387SOL    HW1 1546   2.603   1.271   0.465  1.3897 -0.2382  1.4852
  387SOL    HW2 1547   2.586   1.121   0.470 -0.1336 -0.1487 -0.1246
  387SOL     MW 1548   2.626   1.191   0.438  0.2737 -0.1884  0.2936
  388SOL     OW 1549   1.873   2.235   2.802 -0.2148  0.2707 -0.2961
  388SOL    HW1 1550   1.804   2.241   2.868 -1.5827  0.1781 -1.6732
  388SOL    HW2 1551   1.912   2.322   2.800  0.6388 -0.0389  1.4328
  388SOL     MW 1552   1.869   2.247   2.810 -0.2869  0.2110 -0.2451
  389SOL     OW 1553   0.248   1.974   2.574  0.3379  0.1201  0.3583
  389SOL    HW1 1554   0.327   1.960   2.521  0.6649  1.3500  0.4953
  389SOL    HW2 1555   0.177   1.982   2.511  0.7816  1.9544  0.0504
  389SOL     MW 1556   0.249   1.973   2.559  0.4339  0.5218  0.3335
  390SOL     OW 1557   0.318   0.784   1.340  0.4698 -0.0879  0.6298
  390SOL    HW1 1558   0.236   0.821   1.373  0.7725 -0.5211  1.9481
  390SOL    HW2 1559   0.305   0.689   1.345  0.9836 -0.1580  0.7092
  390SOL     MW 1560   0.305   0.776   1.345  0.5783 -0.1450  0.8176
  391SOL     OW 1561   2.193   1.097   1.784 -0.3819 -0.2033 -0.1801
  391SOL    HW1 1562   2.154   1.059   1.863 -1.8466 -0.6375 -1.0792
  391SOL    HW2 1563   2.174   1.190   1.790 -0.9365 -0.3093 -0.2632
  391SOL     MW 1564   2.185   1.104   1.795 -0.6527 -0.2829 -0.3058
  392SOL     OW 1565   2.695   0.942   1.914  0.8557  0.1016 -0.6672
  392SOL    HW1 1566   2.691   0.869   1.852  0.1956  0.7929 -1.4687
  392SOL    HW2 1567   2.604   0.965   1.930  1.0300  2.2431 -2.2780
  392SOL     MW 1568   2.683   0.935   1.908  0.7898  0.4711 -0.9915
  393SOL     OW 1569   1.413   2.878   2.213  0.3476  0.2638  0.5820
  393SOL    HW1 1570   1.427   2.784   2.203 -2.6917 -0.2264  0.0187
  393SOL    HW2 1571   1.427   2.894   2.306  0.1539 -0.9037  0.8347
  393SOL     MW 1572   1.417   2.868   2.224 -0.0798  0.0492  0.5387
  394SOL     OW 1573   2.836   1.103   2.572  0.6601  0.2076 -0.5988
  394SOL    HW1 1574   2.924   1.139   2.564  0.8559 -0.1651 -0.2134
  394SOL    HW2 1575   2.840   1.018   2.528  1.1127 -0.8004  1.2714
  394SOL     MW 1576   2.848   1.096   2.565  0.7479  0.0246 -0.2860
  395SOL     OW 1577   1.881   1.841   1.808  0.9851  0.1891 -0.1150
  395SOL    HW1 1578   1.867   1.874   1.897  0.5270 -3.2771  1.2598
  395SOL    HW2 1579   1.975   1.850   1.794  1.1311  0.3890  0.8847
  395SOL     MW 1580   1.891   1.847   1.818  0.9469 -0.2331  0.1968
  396SOL     OW 1581   0.437   1.847   1.691 -0.0165 -0.2741  0.0152
  396SOL    HW1 1582   0.532   1.851   1.681  0.1101  0.2722  1.1865
  396SOL    HW2 1583   0.407   1.934   1.665  0.1125  0.4674  2.1603
  396SOL     MW 1584   0.445   1.859   1.686  0.0215 -0.0968  0.4508
  397SOL     OW 1585   2.835   0.909   0.420  0.3512  0.6658 -0.9427
  397SOL    HW1 1586   2.857   0.903   0.327 -1.6435  1.4852 -1.5352
  397SOL    HW2 1587   2.800   0.998   0.430 -1.6284 -0.1670  0.0445
  397SOL     MW 1588   2.833   0.920   0.409 -0.1745  0.6680 -0.8903
  398SOL     OW 1589   2.611   2.054   2.291 -0.4742 -0.0087 -0.0856
  398SOL    HW1 1590   2.691   2.078   2.245  0.7373 -1.0761  1.3463
  398SOL    HW2 1591   2.580   2.136   2.330  0.6870  0.1824  0.4611
  398SOL     MW 1592   2.617   2.068   2.290 -0.1582 -0.1218  0.1802
  399SOL     OW 1593   0.846   2.975   0.868 -0.7560 -0.5758 -0.7257
  399SOL    HW1 1594   0.756   2.989   0.898 -1.1892 -0.2072 -2.1093
  399SOL    HW2 1595   0.869   2.888   0.901 -1.2037 -0.2218  0.5897
  399SOL     MW 1596   0.837   2.966   0.876 -0.8783 -0.4839 -0.7325
  400SOL     OW 1597   0.186   2.359   2.375  0.1613 -0.0060 -0.2632
  400SOL    HW1 1598   0.114   2.327   2.429  0.7398 -0.4170  0.2855
  400SOL    HW2 1599   0.144   2.408   2.305 -0.6343  0.0182  0.2202
  400SOL     MW 1600   0.171   2.361   2.373  0.1257 -0.0515 -0.1304
  401SOL     OW 1601   2.018   1.287   0.231  0.5335 -0.3472  0.0424
  401SOL    HW1 1602   2.094   1.305   0.286 -0.1442 -1.6714  1.4977
  401SOL    HW2 1603   1.969   1.369   0.230  0.2019 -0.4513  2.0948
  401SOL     MW 1604   2.022   1.300   0.238  0.3998 -0.5245  0.5055
  402SOL     OW 1605   2.206   1.305   1.994 -0.2599  0.4995 -0.3917
  402SOL    HW1 1606   2.117   1.272   1.989 -0.5927  1.2228  0.5177
  402SOL    HW2 1607   2.247   1.253   2.064  0.6993 -1.2621 -2.1412
  402SOL     MW 1608   2.200   1.294   2.003 -0.1717  0.3572 -0.5139
  403SOL     OW 1609   0.852   2.032   0.641  0.3061 -0.3394 -0.2576
  403SOL    HW1 1610   0.852   2.126   0.625  0.3956 -0.1106  1.0006
  403SOL    HW2 1611   0.760   2.011   0.660  0.5621 -0.1330  1.3755
  403SOL     MW 1612   0.840   2.041   0.642  0.3425 -0.2868  0.1271
  404SOL     OW 1613   0.220   0.896   0.961 -0.5955  0.1119 -0.4276
  404SOL    HW1 1614   0.179   0.810   0.975 -0.5630  0.0860 -0.4936
  404SOL    HW2 1615   0.305   0.889   1.004 -0.7237  0.2174 -0.1549
  404SOL     MW 1616   0.225   0.884   0.968 -0.6091  0.1238 -0.4033
  405SOL     OW 1617   1.512   1.327   1.129  0.5005  0.1404 -0.5866
  405SOL    HW1 1618   1.497   1.318   1.223 -2.1220 -1.9799 -1.0783
  405SOL    HW2 1619   1.470   1.410   1.106  0.2562  0.1677 -0.0595
  405SOL     MW 1620   1.504   1.337   1.139  0.1174 -0.1299 -0.5731
  406SOL     OW 1621   2.190   1.062   2.958 -0.2657  0.3075 -0.4532
  406SOL    HW1 1622   2.194   1.026   3.047 -0.6435 -1.6237 -1.1586
  406SOL    HW2 1623   2.194   1.157   2.970  0.0865  0.0837  1.5894
  406SOL     MW 1624   2.191   1.070   2.971 -0.2662  0.0284 -0.2799
  407SOL     OW 1625   2.170   1.013   1.307  0.2855 -0.3130 -0.1892
  407SOL    HW1 1626   2.177   1.108   1.300  1.2749 -0.5035 -2.7666
  407SOL    HW2 1627   2.107   0.999   1.379  1.5465  2.1914  1.5568
  407SOL     MW 1628   2.162   1.024   1.316  0.5783 -0.0083 -0.2998
  408SOL     OW 1629   1.669   1.536   0.376 -0.1072 -0.0324  0.2913
  408SOL    HW1 1630   1.616   1.498   0.447 -0.3934  0.6756  0.4612
  408SOL    HW2 1631   1.759   1.527   0.406  0.0501 -2.8624 -0.7550
  408SOL     MW 1632   1.674   1.530   0.389 -0.1257 -0.3082  0.1698
  409SOL     OW 1633   2.822   1.767   2.111 -0.4596  0.0703 -0.1913
  409SOL    HW1 1634   2.730   1.794   2.107 -0.3186  0.3750 -2.6935
  409SOL    HW2 1635   2.848   1.786   2.201 -2.3904  1.5247  0.1371
  409SOL     MW 1636   2.813   1.773   2.122 -0.6930  0.3060 -0.4812
  410SOL     OW 1637   0.613   2.994   2.535 -0.2716  0.1760  0.3381
  410SOL    HW1 1638   0.626   2.915   2.588 -0.3779 -0.4568 -0.5649
  410SOL    HW2 1639   0.632   2.967   2.446 -0.0152  1.2559  0.0514
  410SOL     MW 1640   0.617   2.980   2.530 -0.2401  0.2317  0.1742
  411SOL     OW 1641   2.761   0.328   2.354  0.0945 -0.0412 -0.6472
  411SOL    HW1 1642   2.832   0.374   2.309 -0.7856  2.1628  0.0466
  411SOL    HW2 1643   2.772   0.352   2.446  0.2528 -2.2353 -0.0430
  411SOL     MW 1644   2.772   0.338   2.360 -0.0006 -0.0442 -0.4718
  412SOL     OW 1645   2.307   2.948   2.541  0.3210  0.2639  1.0074
  412SOL    HW1 1646   2.370   2.882   2.568  0.6545  0.2671  0.2522
  412SOL    HW2 1647   2.333   3.027   2.588  2.5070  0.9869 -1.2099
  412SOL     MW 1648   2.318   2.950   2.551  0.6453  0.3605  0.6151
  413SOL     OW 1649   0.114   0.717   1.716 -0.2544 -0.3959  0.0170
  413SOL    HW1 1650   0.051   0.645   1.711 -1.7081  0.7267  1.1038
  413SOL    HW2 1651   0.125   0.747   1.626  2.8661 -3.8970 -1.0164
  413SOL     MW 1652   0.107   0.711   1.704 -0.0364 -0.7126  0.0346
  414SOL     OW 1653   1.875   0.273   0.232 -0.0306 -0.1993  0.0118
  414SOL    HW1 1654   1.872   0.329   0.310 -0.8917 -0.0711 -0.1082
  414SOL    HW2 1655   1.794   0.292   0.185 -0.4551 -1.6950  0.0717
  414SOL     MW 1656   1.864   0.283   0.236 -0.2007 -0.3785  0.0103
  415SOL     OW 1657   0.838   0.498   0.540 -0.2273 -0.1442  0.1262
  415SOL    HW1 1658   0.883   0.466   0.618  0.6004  0.9071  0.1029
  415SOL    HW2 1659   0.747   0.511   0.568 -0.0599 -0.3207  0.7616
  415SOL     MW 1660   0.832   0.496   0.554 -0.1068 -0.0287  0.1976
  416SOL     OW 1661   1.054   0.120   1.263  0.3081 -0.0741  0.4600
  416SOL    HW1 1662   1.105   0.066   1.322  1.1430 -0.3867 -0.5168
  416SOL    HW2 1663   1.011   0.058   1.205  1.3154  0.2729 -0.7077
  416SOL     MW 1664   1.055   0.105   1.263  0.5468 -0.0691  0.1733
  417SOL     OW 1665   1.863   0.652   0.390 -0.4396  0.1532  0.1618
  417SOL    HW1 1666   1.849   0.735   0.435 -1.3000  0.4597 -0.6507
  417SOL    HW2 1667   1.794   0.648   0.324 -1.5107 -2.0236  1.3201
  417SOL     MW 1668   1.852   0.663   0.387 -0.6989 -0.0903  0.2079
  418SOL     OW 1669   2.294   0.609   2.674 -0.5697 -0.3128 -0.1066
  418SOL    HW1 1670   2.236   0.684   2.691  3.2638  2.6948  1.3232
  418SOL    HW2 1671   2.295   0.561   2.756 -0.4817  0.0661  0.1175
  418SOL     MW 1672   2.287   0.613   2.687 -0.0447  0.1361  0.1121
  419SOL     OW 1673   0.768   1.030   0.018 -0.9271  0.0116 -0.2461
  419SOL    HW1 1674   0.837   1.018   0.083 -0.3171 -2.2867 -1.2333
  419SOL    HW2 1675   0.808   1.085  -0.049 -0.3485 -0.5671 -0.3803
  419SOL     MW 1676   0.782   1.036   0.018 -0.7687 -0.3642 -0.3884
  420SOL     OW 1677   0.631   1.511   2.312  0.6323 -0.0272 -0.2540
  420SOL    HW1 1678   0.704   1.477   2.365  0.8194  0.8193  0.0371
  420SOL    HW2 1679   0.598   1.434   2.266 -0.3650 -1.0689  2.0453
  420SOL     MW 1680   0.636   1.496   2.313  0.5216 -0.0588  0.0734
  421SOL     OW 1681   1.654   2.361   1.219  0.2108  0.0508 -0.2282
  421SOL    HW1 1682   1.746   2.335   1.208  0.2239  0.0329 -0.0827
  421SOL    HW2 1683   1.618   2.294   1.278 -0.0077 -0.1889 -0.6298
  421SOL     MW 1684   1.661   2.349   1.225  0.1861  0.0179 -0.2697
  422SOL     OW 1685   2.659   2.439   2.119  0.6433  0.5771 -0.2426
  422SOL    HW1 1686   2.706   2.468   2.040  1.4578 -0.7726 -0.2791
  422SOL    HW2 1687   2.573   2.412   2.087  0.6944  0.7749 -0.5517
  422SOL     MW 1688   2.654   2.439   2.104  0.7595  0.4227 -0.2844
  423SOL     OW 1689   2.124   0.507   0.426  0.0401  0.2811  0.4429
  423SOL    HW1 1690   2.038   0.548   0.434 -0.0935  0.5895 -1.9810
  423SOL    HW2 1691   2.154   0.530   0.338  3.4652  1.8014  1.8028
  423SOL     MW 1692   2.116   0.515   0.416  0.4739  0.5139  0.3022
  424SOL     OW 1693   0.094   1.340   1.857  0.0588  0.1071 -0.3605
  424SOL    HW1 1694   0.109   1.344   1.952 -0.1126 -0.7269 -0.2870
  424SOL    HW2 1695   0.054   1.254   1.843  1.3559 -0.3706 -1.3633
  424SOL     MW 1696   0.090   1.329   1.868  0.2112 -0.0563 -0.4894
  425SOL     OW 1697   2.044   2.239   1.698 -0.2505  0.1740  0.2252
  425SOL    HW1 1698   1.965   2.280   1.735  0.7836  1.1544  1.4294
  425SOL    HW2 1699   2.081   2.306   1.641  0.4704  0.2847  0.7998
  425SOL     MW 1700   2.038   2.253   1.696 -0.0262  0.3226  0.4574
  426SOL     OW 1701   2.625   0.262   0.993 -0.0697  0.8670  0.2521
  426SOL    HW1 1702   2.655   0.302   0.911  0.1514  0.5935  0.1990
  426SOL    HW2 1703   2.587   0.178   0.966 -0.1860  0.8688  0.4071
  426SOL     MW 1704   2.624   0.256   0.978 -0.0526  0.8327  0.2664
  427SOL     OW 1705   1.365   2.259   0.264 -0.3380 -0.6652 -0.0072
  427SOL    HW1 1706   1.435   2.200   0.237  1.3211  0.7335  0.9742
  427SOL    HW2 1707   1.330   2.220   0.344  1.3205  0.0242  1.1145
  427SOL     MW 1708   1.370   2.246   0.271  0.0945 -0.4034  0.2720
  428SOL     OW 1709   2.969   0.892   1.988  0.4817 -0.1504  0.2730
  428SOL    HW1 1710   2.889   0.842   1.975  2.0155 -2.2693 -2.0322
  428SOL    HW2 1711   2.992   0.925   1.901  1.4023  1.6060  1.1216
  428SOL     MW 1712   2.962   0.890   1.975  0.8148 -0.1967  0.0846
  429SOL     OW 1713   0.441   2.455   0.107 -0.6205  0.4265  0.0477
  429SOL    HW1 1714   0.421   2.427   0.018  0.0584 -1.8275  0.5286
  429SOL    HW2 1715   0.524   2.502   0.099 -0.5991  0.2934 -0.5441
  429SOL     MW 1716   0.450   2.457   0.094 -0.5305  0.1174  0.0314
  430SOL     OW 1717   1.618   2.581   1.403  0.4191  0.1411  0.3501
  430SOL    HW1 1718   1.611   2.510   1.341  2.5734  1.0923 -1.1052
  430SOL    HW2 1719   1.648   2.540   1.484 -0.1922 -0.8167  0.1009
  430SOL     MW 1720   1.621   2.566   1.406  0.6269  0.1397  0.1276
  431SOL     OW 1721   2.095   1.890   0.977 -0.2297 -0.0982  0.2947
  431SOL    HW1 1722   2.027   1.954   1.001 -0.9382  0.4010 -2.6495
  431SOL    HW2 1723   2.052   1.805   0.986 -2.4232  0.2560 -3.9704
  431SOL     MW 1724   2.080   1.887   0.981 -0.6069  0.0160 -0.6595
  432SOL     OW 1725   1.053   0.247   1.793  0.0458 -0.1802 -0.7151
  432SOL    HW1 1726   1.052   0.217   1.884  1.8373  0.2296 -0.5198
  432SOL    HW2 1727   0.969   0.219   1.757 -0.8732  0.0122  1.1737
  432SOL     MW 1728   1.042   0.239   1.800  0.1611 -0.0970 -0.4424
  433SOL     OW 1729   1.550   0.736   0.755 -0.0930  0.5346 -0.4432
  433SOL    HW1 1730   1.479   0.694   0.804 -0.9058  1.6973 -0.5932
  433SOL    HW2 1731   1.630   0.708   0.800 -0.5632 -1.4147 -0.7205
  433SOL     MW 1732   1.551   0.727   0.767 -0.2618  0.4306 -0.4953
  434SOL     OW 1733   2.954   0.854   0.784 -0.2937  0.5142 -0.3420
  434SOL    HW1 1734   3.011   0.859   0.707 -0.3655 -0.1013 -0.4405
  434SOL    HW2 1735   2.912   0.769   0.777  0.6069 -0.0810  1.0119
  434SOL     MW 1736   2.956   0.844   0.773 -0.1860  0.3544 -0.1740
  435SOL     OW 1737   2.133   0.043   2.792 -0.2782 -0.3058 -0.8652
  435SOL    HW1 1738   2.189   0.100   2.739 -1.6435  0.2539 -1.7533
  435SOL    HW2 1739   2.064   0.101   2.823 -0.2358 -0.9318  0.4318
  435SOL     MW 1740   2.132   0.058   2.789 -0.4530 -0.3083 -0.8106
  436SOL     OW 1741   2.780   0.216   2.963  0.2919 -0.3471  0.0316
  436SOL    HW1 1742   2.740   0.244   3.046 -1.4068  0.4454 -1.0018
  436SOL    HW2 1743   2.793   0.122   2.973 -2.3241 -0.7630  0.3068
  436SOL     MW 1744   2.776   0.208   2.975 -0.2763 -0.2870 -0.0588
  437SOL     OW 1745   0.922   2.253   2.298  0.4877 -0.3593  0.4694
  437SOL    HW1 1746   0.881   2.332   2.261  1.0439 -0.4083 -0.2937
  437SOL    HW2 1747   0.924   2.191   2.225  1.5763 -0.4803  0.5828
  437SOL     MW 1748   0.917   2.255   2.283  0.6984 -0.3757  0.3870
  438SOL     OW 1749   0.684   2.866   1.316 -0.2556  0.1229  0.1464
  438SOL    HW1 1750   0.685   2.961   1.313 -3.1637  0.2333  0.2120
  438SOL    HW2 1751   0.655   2.844   1.404  0.2077 -0.8513  0.0783
  438SOL     MW 1752   0.681   2.875   1.327 -0.5773  0.0067  0.1432
  439SOL     OW 1753   0.777   0.881   1.594  0.2389 -0.0227  0.1096
  439SOL    HW1 1754   0.751   0.973   1.605 -2.4458 -0.6603 -0.4444
  439SOL    HW2 1755   0.696   0.832   1.598  1.3051 -2.1769 -2.1845
  439SOL     MW 1756   0.763   0.887   1.596  0.0210 -0.3942 -0.2651
  440SOL     OW 1757   2.947   1.533   2.913 -0.2743  0.6186  0.1819
  440SOL    HW1 1758   3.025   1.530   2.968 -0.7627 -1.5627  0.8312
  440SOL    HW2 1759   2.881   1.578   2.966 -0.6658 -1.2514  1.3577
  440SOL     MW 1760   2.949   1.539   2.927 -0.3958  0.0871  0.4201
  441SOL     OW 1761   2.929   0.395   1.332  0.2604  0.4515 -0.7931
  441SOL    HW1 1762   2.895   0.362   1.415  0.5021  1.5392 -0.2459
  441SOL    HW2 1763   2.938   0.317   1.277 -1.6919 -0.0451 -0.4606
  441SOL     MW 1764   2.926   0.381   1.336  0.0383  0.5216 -0.6737
  442SOL     OW 1765   1.524   2.720   2.615  0.2695 -0.1251 -0.3459
  442SOL    HW1 1766   1.543   2.737   2.708 -1.1801  1.2903 -0.2700
  442SOL    HW2 1767   1.610   2.718   2.574  0.9078 -0.0832  0.9248
  442SOL     MW 1768   1.538   2.722   2.622  0.1643  0.0616 -0.1647
  443SOL     OW 1769   2.904  -0.004   1.323 -0.0030  0.1923  0.4561
  443SOL    HW1 1770   2.938   0.045   1.248  1.5497 -0.7723  0.5044
  443SOL    HW2 1771   2.982  -0.030   1.372 -0.9319 -0.3714  1.6700
  443SOL     MW 1772   2.919  -0.001   1.320  0.0767 -0.0108  0.6227
  444SOL     OW 1773   1.970   1.278   2.781  0.3920 -0.2227 -0.1565
  444SOL    HW1 1774   2.062   1.303   2.790  0.1773 -0.0434  2.0823
  444SOL    HW2 1775   1.969   1.183   2.792  0.2448 -0.1283  0.7505
  444SOL     MW 1776   1.982   1.269   2.784  0.3434 -0.1968  0.2577
  445SOL     OW 1777   1.096   1.786   2.689  0.4428 -0.6624  0.4231
  445SOL    HW1 1778   1.159   1.778   2.761  0.8214  1.1674  0.3334
  445SOL    HW2 1779   1.014   1.754   2.727  1.3847 -3.1775  0.5027
  445SOL     MW 1780   1.093   1.781   2.704  0.6113 -0.7500  0.4238
  446SOL     OW 1781   0.423   0.878   0.349  0.0453  0.2616 -0.7019
  446SOL    HW1 1782   0.437   0.873   0.444  0.2039 -1.9224 -0.7950
  446SOL    HW2 1783   0.509   0.858   0.311 -0.5686 -1.4623 -1.2758
  446SOL     MW 1784   0.436   0.875   0.357 -0.0180 -0.2459 -0.7908
  447SOL     OW 1785   1.897   1.774   0.355  0.4905 -0.3726 -0.4360
  447SOL    HW1 1786   1.959   1.808   0.419  0.6616  1.4828 -1.4941
  447SOL    HW2 1787   1.916   1.825   0.275 -1.9727 -0.1655 -0.9598
  447SOL     MW 1788   1.908   1.785   0.353  0.1820 -0.1047 -0.6455
  448SOL     OW 1789   2.548   0.967   0.584 -0.8839 -0.7651  0.0231
  448SOL    HW1 1790   2.466   1.011   0.606  0.0582  1.4488 -0.6559
  448SOL    HW2 1791   2.525   0.874   0.580 -3.3715 -0.2006 -0.2989
  448SOL     MW 1792   2.534   0.961   0.587 -1.0965 -0.4010 -0.1102
  449SOL     OW 1793   1.578   0.312   0.577  0.4811 -0.6722  0.4953
  449SOL    HW1 1794   1.568   0.406   0.564  1.2860 -0.1835  2.7700
  449SOL    HW2 1795   1.612   0.304   0.667 -0.8855 -3.2003  0.8911
  449SOL     MW 1796   1.581   0.323   0.587  0.4073 -0.9342  0.8496
  450SOL     OW 1797   0.235   0.369   2.527 -0.0413  0.4616  0.6076
  450SOL    HW1 1798   0.303   0.302   2.540  0.6898  1.1501  0.3948
  450SOL    HW2 1799   0.283   0.446   2.498 -1.1259  0.2699 -1.9625
  450SOL     MW 1800   0.250   0.370   2.525 -0.0780  0.5254  0.2394
  451SOL     OW 1801   0.238   0.200   1.619 -0.3397  0.5603 -0.0967
  451SOL    HW1 1802   0.297   0.275   1.619  0.3366  0.0562 -1.4607
  451SOL    HW2 1803   0.198   0.200   1.532 -0.0253 -0.8795 -0.2698
  451SOL     MW 1804   0.241   0.210   1.608 -0.2078  0.2956 -0.3006
  452SOL     OW 1805   0.484   1.260   2.394  0.3327  0.0875 -0.3928
  452SOL    HW1 1806   0.462   1.188   2.453 -1.6694 -0.1359 -1.3326
  452SOL    HW2 1807   0.543   1.316   2.445  1.0512 -1.6065  0.7389
  452SOL     MW 1808   0.489   1.258   2.408  0.1680 -0.1668 -0.3624
  453SOL     OW 1809   1.359   0.588   0.950 -0.4570  0.1342  0.2970
  453SOL    HW1 1810   1.385   0.627   1.034  1.3435  0.3772 -0.3347
  453SOL    HW2 1811   1.349   0.494   0.969 -0.6049  0.2655  0.8886
  453SOL     MW 1812   1.361   0.581   0.964 -0.2374  0.1848  0.2895
  454SOL     OW 1813   2.474   0.054   0.896 -0.6385  0.2967  0.3598
  454SOL    HW1 1814   2.404   0.045   0.960  0.2627  0.0676  1.3353
  454SOL    HW2 1815   2.528  -0.024   0.908 -0.3815  0.3022 -0.6103
  454SOL     MW 1816   2.472   0.042   0.906 -0.4889  0.2654  0.3598
  455SOL     OW 1817   2.854   0.339   0.536 -0.1174  0.3017 -0.1787
  455SOL    HW1 1818   2.884   0.425   0.506  1.9599 -1.2579 -3.0742
  455SOL    HW2 1819   2.934   0.292   0.558 -1.2441 -0.8311  1.7924
  455SOL     MW 1820   2.868   0.344   0.535  0.0070 -0.0485 -0.3050
  456SOL     OW 1821   0.667   2.134   2.882  0.1997  0.2362 -0.2367
  456SOL    HW1 1822   0.753   2.094   2.871  0.6629  1.0231  0.4607
  456SOL    HW2 1823   0.672   2.216   2.832  0.5469  1.2521  1.3853
  456SOL     MW 1824   0.679   2.139   2.874  0.3107  0.4815  0.0794
  457SOL     OW 1825   1.942   1.253   1.863  0.8453  0.0402  0.0757
  457SOL    HW1 1826   1.874   1.210   1.811  0.2681  0.2140  0.6684
  457SOL    HW2 1827   1.964   1.332   1.815  2.0980 -1.0061 -1.1649
  457SOL     MW 1828   1.936   1.258   1.850  0.9292 -0.0718 -0.0098
  458SOL     OW 1829   2.602   0.898   1.279  0.3020  0.4259  0.7263
  458SOL    HW1 1830   2.644   0.864   1.200 -1.7705  0.8850 -0.6370
  458SOL    HW2 1831   2.531   0.837   1.297  0.6126  0.4526  2.1462
  458SOL     MW 1832   2.598   0.886   1.271  0.0707  0.4919  0.7299
  459SOL     OW 1833   1.987   2.293   0.452 -0.3195 -0.0583 -0.3828
  459SOL    HW1 1834   1.938   2.248   0.384  0.0316 -1.1667  0.0698
  459SOL    HW2 1835   1.925   2.355   0.490 -1.2043 -1.0223 -0.2102
  459SOL     MW 1836   1.973   2.295   0.448 -0.3805 -0.3310 -0.3010
  460SOL     OW 1837   1.718   0.090   1.870  0.4021  0.0199 -0.0006
  460SOL    HW1 1838   1.633   0.134   1.875  0.8133  0.7407  0.8057
  460SOL    HW2 1839   1.717   0.027   1.942  0.8592  0.5986  0.5220
  460SOL     MW 1840   1.706   0.087   1.880  0.5145  0.1865  0.1654
  461SOL     OW 1841   2.106   0.464   1.545  0.2872  0.2177  0.3042
  461SOL    HW1 1842   2.149   0.538   1.587  1.2755  0.6819 -1.3959
  461SOL    HW2 1843   2.166   0.391   1.557 -0.5058 -0.2327  1.6451
  461SOL     MW 1844   2.120   0.464   1.552  0.3126  0.2204  0.2570
  462SOL     OW 1845   1.412   2.499   2.468  0.1803 -0.5604 -0.4482
  462SOL    HW1 1846   1.459   2.419   2.491  0.1357 -0.6191 -0.5608
  462SOL    HW2 1847   1.446   2.565   2.529 -0.9519 -1.0328  0.7474
  462SOL     MW 1848   1.422   2.497   2.479  0.0185 -0.6313 -0.3027
  463SOL     OW 1849   2.953   1.954   1.626 -0.1400  0.2847  0.3472
  463SOL    HW1 1850   2.890   2.003   1.573  0.1888  0.5658  0.2139
  463SOL    HW2 1851   2.903   1.879   1.658 -0.6155  0.6476  0.4643
  463SOL     MW 1852   2.938   1.951   1.623 -0.1551  0.3694  0.3362
  464SOL     OW 1853   1.776   1.234   2.180 -0.4067 -0.7132  0.0342
  464SOL    HW1 1854   1.780   1.142   2.153 -0.6698 -0.8911  0.6065
  464SOL    HW2 1855   1.762   1.231   2.274  1.7577 -0.1055  0.4436
  464SOL     MW 1856   1.775   1.222   2.189 -0.1585 -0.6593  0.1687
  465SOL     OW 1857   0.730   1.618   1.601 -0.4733 -0.0655  0.1490
  465SOL    HW1 1858   0.801   1.644   1.543  0.3517  2.0088  1.9473
  465SOL    HW2 1859   0.660   1.590   1.542  0.2865  1.9718 -1.8762
  465SOL     MW 1860   0.730   1.618   1.586 -0.2562  0.4749  0.1178
  466SOL     OW 1861   0.421   2.850   0.707 -0.0839  0.8268  0.5093
  466SOL    HW1 1862   0.328   2.870   0.723 -0.6309 -0.2619 -1.0826
  466SOL    HW2 1863   0.419   2.773   0.651  1.7896  1.2506 -0.1912
  466SOL     MW 1864   0.408   2.842   0.702  0.0933  0.7430  0.2054
  467SOL     OW 1865   0.726   2.187   1.891 -0.3188 -0.2290  0.8219
  467SOL    HW1 1866   0.740   2.281   1.904  0.1677 -0.1072 -0.4401
  467SOL    HW2 1867   0.632   2.175   1.904 -0.6349  0.6946 -0.3763
  467SOL     MW 1868   0.715   2.198   1.895 -0.2928 -0.0972  0.5026
  468SOL     OW 1869   0.079   0.217   0.559  0.1044 -0.1013 -0.3040
  468SOL    HW1 1870   0.131   0.291   0.528  1.0288 -0.1722  1.0031
  468SOL    HW2 1871   0.117   0.141   0.516 -1.3294  0.2113 -2.2473
  468SOL     MW 1872   0.091   0.217   0.550  0.0374 -0.0708 -0.3808
  469SOL     OW 1873   0.118   0.893   0.539  0.0312 -0.3536 -0.2191
  469SOL    HW1 1874   0.061   0.926   0.470 -0.0786 -2.4740 -1.2266
  469SOL    HW2 1875   0.144   0.806   0.509  1.8818 -0.4133  1.3393
  469SOL     MW 1876   0.114   0.886   0.526  0.2571 -0.6362 -0.1378
  470SOL     OW 1877   1.679   1.778   1.360 -0.1484  0.4392 -0.2505
  470SOL    HW1 1878   1.743   1.723   1.314  0.3098 -0.5106  1.4462
  470SOL    HW2 1879   1.721   1.800   1.443 -2.2032 -0.7131  1.1811
  470SOL     MW 1880   1.693   1.774   1.365 -0.3668  0.1498  0.1571
  471SOL     OW 1881   1.290   0.916   2.505 -0.1925  0.2767 -0.2726
  471SOL    HW1 1882   1.363   0.977   2.490  0.2649 -0.3759 -0.8181
  471SOL    HW2 1883   1.212   0.967   2.487 -0.1966  2.1163  3.8301
  471SOL     MW 1884   1.290   0.930   2.501 -0.1310  0.4294  0.1905
  472SOL     OW 1885   1.749   1.268   2.465  0.0369 -0.1163 -0.0439
  472SOL    HW1 1886   1.724   1.359   2.477  3.1230  1.0892 -1.5928
  472SOL    HW2 1887   1.844   1.267   2.474  0.1357 -3.1967 -0.1214
  472SOL     MW 1888   1.758   1.280   2.468  0.4526 -0.3612 -0.2673
  473SOL     OW 1889   1.391   0.708   1.195  0.2701 -0.1054 -0.0940
  473SOL    HW1 1890   1.392   0.659   1.277 -0.4363  2.4434  1.5356
  473SOL    HW2 1891   1.481   0.735   1.181  0.1953  0.5283  0.5742
  473SOL     MW 1892   1.403   0.705   1.204  0.1589  0.3169  0.2139
  474SOL     OW 1893   0.458   2.501   1.143  0.0844  0.0349  0.7713
  474SOL    HW1 1894   0.472   2.575   1.083 -2.1499  0.2178  0.4156
  474SOL    HW2 1895   0.393   2.447   1.099  1.5526 -2.1224  1.0971
  474SOL     MW 1896   0.452   2.504   1.129 -0.0196 -0.2363  0.7693
  475SOL     OW 1897   2.258   2.254   0.471 -0.1811 -0.6731 -0.3843
  475SOL    HW1 1898   2.165   2.275   0.461 -0.4110 -1.5299 -0.0838
  475SOL    HW2 1899   2.292   2.253   0.381 -0.5442 -0.7361 -0.5224
  475SOL     MW 1900   2.250   2.257   0.458 -0.2676 -0.7864 -0.3607
  476SOL     OW 1901   0.861   2.809   1.979 -0.6150 -0.4926 -0.6127
  476SOL    HW1 1902   0.950   2.774   1.967 -0.1607  0.4488 -0.0782
  476SOL    HW2 1903   0.833   2.775   2.064 -0.0913  0.5801  0.0043
  476SOL     MW 1904   0.869   2.800   1.988 -0.4862 -0.2290 -0.4604
  477SOL     OW 1905   1.826   0.942   2.540 -0.0518 -0.6078 -0.3903
  477SOL    HW1 1906   1.760   0.988   2.591  1.0046  0.6527 -0.1104
  477SOL    HW2 1907   1.785   0.927   2.455 -0.4525  0.8273 -0.4764
  477SOL     MW 1908   1.812   0.946   2.535  0.0371 -0.2554 -0.3618
  478SOL     OW 1909   2.068   1.019   1.027 -0.7106  0.1074  0.0503
  478SOL    HW1 1910   2.073   0.923   1.021  1.2529  0.1034  0.8245
  478SOL    HW2 1911   2.097   1.039   1.115 -0.0191  1.4598 -0.4548
  478SOL     MW 1912   2.073   1.009   1.038 -0.3595  0.2842  0.0890
  479SOL     OW 1913   2.772   1.389   0.671 -0.2539 -0.3835  0.0250
  479SOL    HW1 1914   2.823   1.309   0.682 -4.0334 -2.8049  2.3300
  479SOL    HW2 1915   2.791   1.417   0.581  2.9328 -2.5249 -0.1342
  479SOL     MW 1916   2.781   1.382   0.660 -0.3241 -0.9882  0.2965
  480SOL     OW 1917   2.259   2.944   3.023  0.2735  0.2886  0.1737
  480SOL    HW1 1918   2.298   2.858   3.003  2.9006  1.3713  0.2086
  480SOL    HW2 1919   2.214   2.970   2.943  0.4749 -0.6020 -0.2381
  480SOL     MW 1920   2.258   2.936   3.010  0.6443  0.3083  0.1271
  481SOL     OW 1921   1.593   1.654   1.994  0.6403  0.3253  0.3361
  481SOL    HW1 1922   1.673   1.602   1.996  0.3443 -0.1819 -0.5934
  481SOL    HW2 1923   1.556   1.645   2.082  1.8074  0.9202  0.9230
  481SOL     MW 1924   1.599   1.646   2.006  0.7575  0.3437  0.2915
  482SOL     OW 1925   0.706   0.659   2.647 -0.4104  0.1743  0.2930
  482SOL    HW1 1926   0.655   0.714   2.706 -0.4237 -1.1256  1.5607
  482SOL    HW2 1927   0.734   0.585   2.702  0.7883 -0.3615 -0.9834
  482SOL     MW 1928   0.703   0.657   2.662 -0.2550 -0.0718  0.2857
  483SOL     OW 1929   1.892   2.712   2.057  0.5599 -0.0831  0.0839
  483SOL    HW1 1930   1.928   2.641   2.005 -0.8441  0.2298 -1.3860
  483SOL    HW2 1931   1.869   2.671   2.140  1.3143 -0.9550 -0.1158
  483SOL     MW 1932   1.894   2.697   2.061  0.4679 -0.1494 -0.1351
  484SOL     OW 1933   1.902   1.195   1.406 -0.2745 -0.0293 -0.2288
  484SOL    HW1 1934   1.958   1.163   1.477 -2.5742 -1.5969  0.9992
  484SOL    HW2 1935   1.871   1.281   1.436  1.3661  0.8532 -0.9205
  484SOL     MW 1936   1.906   1.202   1.419 -0.3648 -0.1164 -0.1543
  485SOL     OW 1937   1.028   1.599   1.268  0.3861  0.3974  0.3372
  485SOL    HW1 1938   1.025   1.638   1.356  0.7090  0.4930  0.3085
  485SOL    HW2 1939   1.068   1.667   1.213  1.6791 -0.2433  0.4430
  485SOL     MW 1940   1.033   1.613   1.273  0.5852  0.3253  0.3469
  486SOL     OW 1941   1.386   0.597   1.448 -0.3306  0.7098  0.1279
  486SOL    HW1 1942   1.379   0.503   1.432 -1.0065  0.7014  0.4479
  486SOL    HW2 1943   1.299   0.632   1.431 -0.0568  1.3042 -0.1109
  486SOL     MW 1944   1.374   0.590   1.444 -0.3856  0.7800  0.1413
  487SOL     OW 1945   2.711   1.000   0.812  0.4219 -0.2682  0.1219
  487SOL    HW1 1946   2.648   0.979   0.743  0.3395 -1.8331  0.6275
  487SOL    HW2 1947   2.794   0.962   0.781  0.4344 -0.7807  0.7611
  487SOL     MW 1948   2.714   0.992   0.799  0.4106 -0.5566  0.2760
  488SOL     OW 1949   2.666   1.280   2.438  0.3206 -0.0240  0.3346
  488SOL    HW1 1950   2.721   1.298   2.362  0.7608 -1.0944  0.3810
  488SOL    HW2 1951   2.721   1.228   2.496 -0.3122 -0.0035  0.9731
  488SOL     MW 1952   2.680   1.276   2.435  0.2999 -0.1667  0.4164
  489SOL     OW 1953   2.457   0.588   1.566 -0.3562 -0.1105  0.0412
  489SOL    HW1 1954   2.501   0.523   1.622 -0.6360  0.1063  0.5217
  489SOL    HW2 1955   2.398   0.634   1.625 -0.6038  0.1770 -0.4249
  489SOL     MW 1956   2.455   0.586   1.581 -0.4314 -0.0400  0.0443
  490SOL     OW 1957   2.507   1.035   2.583  0.7864 -0.1258 -0.1105
  490SOL    HW1 1958   2.566   1.092   2.632 -0.2050  1.2047 -0.3968
  490SOL    HW2 1959   2.419   1.069   2.603  0.3507  0.9543 -3.2781
  490SOL     MW 1960   2.503   1.047   2.592  0.5934  0.1943 -0.5736
  491SOL     OW 1961   2.007   2.515   0.966 -0.0342 -0.1856 -0.4189
  491SOL    HW1 1962   1.972   2.494   0.879 -0.9416 -0.1420 -0.0704
  491SOL    HW2 1963   1.950   2.584   0.999 -0.6306 -1.2379  0.8143
  491SOL     MW 1964   1.995   2.521   0.959 -0.2379 -0.3133 -0.2023
  492SOL     OW 1965   2.502   2.171   0.930 -0.4214 -0.1938  0.4291
  492SOL    HW1 1966   2.495   2.152   0.836 -0.0688 -2.6110  0.8319
  492SOL    HW2 1967   2.438   2.241   0.945 -0.1916  0.5457 -1.6602
  492SOL     MW 1968   2.493   2.178   0.920 -0.3368 -0.4109  0.2104
  493SOL     OW 1969   0.179   2.440   0.774  0.2093 -0.6800  0.1970
  493SOL    HW1 1970   0.167   2.356   0.730 -0.2891  0.2313 -1.5257
  493SOL    HW2 1971   0.099   2.453   0.824  0.5489 -1.4893  0.9747
  493SOL     MW 1972   0.167   2.431   0.775  0.1836 -0.6758  0.0703
  494SOL     OW 1973   0.705   0.997   1.920  0.0569  0.6947  0.0514
  494SOL    HW1 1974   0.763   1.045   1.980 -1.1428  0.8522  1.1361
  494SOL    HW2 1975   0.717   0.905   1.944  1.8418  0.4440 -1.5655
  494SOL     MW 1976   0.714   0.992   1.931  0.1361  0.6787 -0.0172
  495SOL     OW 1977   1.407   2.726   1.272 -0.1903  0.5190  0.1577
  495SOL    HW1 1978   1.465   2.657   1.306 -1.1697 -0.3258  0.1638
  495SOL    HW2 1979   1.319   2.689   1.280 -0.6858  1.5450 -0.4097
  495SOL     MW 1980   1.403   2.712   1.278 -0.3904  0.5369  0.0934
  496SOL     OW 1981   1.020   2.102   0.171  0.0110  0.7743 -0.5304
  496SOL    HW1 1982   0.957   2.062   0.112  0.8816  1.6319 -2.1043
  496SOL    HW2 1983   1.005   2.197   0.163  0.0458  0.9152  0.7644
  496SOL     MW 1984   1.010   2.110   0.162  0.1286  0.9019 -0.5723
  497SOL     OW 1985   1.997   0.113   0.539 -0.8152 -0.4750 -0.0116
  497SOL    HW1 1986   2.083   0.129   0.500  0.0776  0.2023  2.0877
  497SOL    HW2 1987   1.957   0.200   0.543 -0.5823 -0.4128  1.2034
  497SOL     MW 1988   2.003   0.127   0.534 -0.6586 -0.3887  0.4227
  498SOL     OW 1989   2.006   2.804   0.054 -0.4941  0.0124 -0.1907
  498SOL    HW1 1990   2.089   2.847   0.073 -0.5295  0.0873 -0.2044
  498SOL    HW2 1991   1.946   2.876   0.032 -0.8270  0.0489  0.7774
  498SOL     MW 1992   2.009   2.819   0.053 -0.5397  0.0342 -0.0509
  499SOL     OW 1993   1.903   2.134   1.495  0.5546 -0.5467  0.0725
  499SOL    HW1 1994   1.958   2.086   1.434  0.5851 -1.7459  1.0121
  499SOL    HW2 1995   1.964   2.172   1.558  0.5295  0.7455 -0.6300
  499SOL     MW 1996   1.918   2.133   1.495  0.5556 -0.5352  0.1003
  500SOL     OW 1997   2.254   1.136   0.849  0.0925  0.0349 -0.6822
  500SOL    HW1 1998   2.201   1.101   0.920  1.0511  0.0425  0.0490
  500SOL    HW2 1999   2.308   1.204   0.890 -0.2587  0.9432 -1.6665
  500SOL     MW 2000   2.254   1.141   0.864  0.1732  0.1518 -0.7151
  501SOL     OW 2001   1.801   1.473   2.055  1.0629 -1.2614 -0.1026
  501SOL    HW1 2002   1.868   1.489   1.988 -0.6006 -0.8644 -1.7453
  501SOL    HW2 2003   1.811   1.380   2.076  1.3623 -1.5041 -1.2175
  501SOL     MW 2004   1.811   1.463   2.049  0.8810 -1.2447 -0.4625
  502SOL     OW 2005   0.825   1.656   0.969 -0.4287  0.2709 -0.9867
  502SOL    HW1 2006   0.764   1.667   0.896  0.7670  2.9248 -1.7479
  502SOL    HW2 2007   0.909   1.637   0.927  0.1622  1.2815 -0.3330
  502SOL     MW 2008   0.828   1.655   0.954 -0.1929  0.7620 -1.0055
  503SOL     OW 2009   1.680   0.864   2.331  0.2331  0.0587 -0.1272
  503SOL    HW1 2010   1.615   0.929   2.360  0.6662  0.2685  0.4001
  503SOL    HW2 2011   1.649   0.782   2.368 -0.8368 -0.2447 -1.5812
  503SOL     MW 2012   1.667   0.862   2.340  0.1513  0.0479 -0.2388
  504SOL     OW 2013   0.845   2.747   2.254 -0.0016 -0.5252 -0.1017
  504SOL    HW1 2014   0.826   2.653   2.261  0.2805 -0.6925 -1.3369
  504SOL    HW2 2015   0.938   2.754   2.276 -0.3968 -0.2826  1.6623
  504SOL     MW 2016   0.854   2.735   2.258 -0.0285 -0.5102 -0.0479
  505SOL     OW 2017   2.367   1.717   0.444  0.0125  0.4267 -0.0261
  505SOL    HW1 2018   2.332   1.773   0.375  1.2451 -0.2080 -1.1881
  505SOL    HW2 2019   2.289   1.676   0.483 -0.7616  1.5476 -0.3554
  505SOL     MW 2020   2.352   1.719   0.440  0.0752  0.4908 -0.2302
  506SOL     OW 2021   1.796   0.172   1.627 -0.3769  0.3998  0.0066
  506SOL    HW1 2022   1.771   0.112   1.698  0.1381  1.9025  1.5190
  506SOL    HW2 2023   1.881   0.140   1.597 -0.4551 -0.0615  0.2672
  506SOL     MW 2024   1.804   0.160   1.632 -0.3129  0.5307  0.2326
  507SOL     OW 2025   1.403   1.894   0.809 -0.3228 -0.0989 -0.2435
  507SOL    HW1 2026   1.347   1.873   0.735 -0.2850 -0.4094 -0.1881
  507SOL    HW2 2027   1.462   1.962   0.777 -1.7637  1.3995  0.1698
  507SOL     MW 2028   1.403   1.900   0.795 -0.5134  0.0547 -0.1718
  508SOL     OW 2029   2.681   2.554   2.989  0.4730  0.8155 -0.3240
  508SOL    HW1 2030   2.703   2.537   3.081  0.3219  0.8315 -0.2848
  508SOL    HW2 2031   2.765   2.573   2.948  0.9526 -1.8785 -0.7828
  508SOL     MW 2032   2.695   2.554   2.996  0.5027  0.4632 -0.3760
  509SOL     OW 2033   2.460   0.272   2.316  0.0377  0.3808  0.7621
  509SOL    HW1 2034   2.461   0.177   2.322  2.5722  0.1515 -1.3461
  509SOL    HW2 2035   2.553   0.296   2.311 -0.5755  2.7116 -1.3747
  509SOL     MW 2036   2.472   0.263   2.316  0.2919  0.6609  0.2016
  510SOL     OW 2037   1.518   0.011   0.412 -0.3049 -0.2754 -0.0964
  510SOL    HW1 2038   1.533  -0.061   0.473  0.0057 -0.0995  0.0353
  510SOL    HW2 2039   1.514   0.089   0.468 -0.2741 -0.1458 -0.2742
  510SOL     MW 2040   1.519   0.012   0.428 -0.2652 -0.2378 -0.1053
  511SOL     OW 2041   2.853   0.315   1.590 -0.4458  0.0566  0.7718
  511SOL    HW1 2042   2.779   0.262   1.558  1.0010 -1.1765 -0.6980
  511SOL    HW2 2043   2.908   0.252   1.636  0.1671  0.7754  1.0264
  511SOL     MW 2044   2.850   0.299   1.592 -0.1763 -0.0173  0.6057
  512SOL     OW 2045   0.320   0.292   2.244  1.0213 -0.1469 -0.2496
  512SOL    HW1 2046   0.290   0.362   2.187  1.8450 -0.0398 -0.5646
  512SOL    HW2 2047   0.270   0.304   2.325  0.0256 -0.1558 -0.8526
  512SOL     MW 2048   0.309   0.303   2.248  1.0000 -0.1321 -0.3666
  513SOL     OW 2049   1.295   0.351   0.678 -0.0033 -0.1062 -0.2735
  513SOL    HW1 2050   1.226   0.365   0.613  0.3045 -1.1476 -0.8399
  513SOL    HW2 2051   1.377   0.356   0.628  0.3563  1.0243  0.3781
  513SOL     MW 2052   1.297   0.354   0.663  0.0796 -0.0890 -0.2580
  514SOL     OW 2053   2.937   0.899   1.049  0.5704 -0.0356  0.0541
  514SOL    HW1 2054   2.901   0.987   1.051  0.2651 -0.1703  1.1660
  514SOL    HW2 2055   2.936   0.875   0.956 -1.9248  0.0932 -0.0403
  514SOL     MW 2056   2.932   0.907   1.037  0.2025 -0.0412  0.1881
  515SOL     OW 2057   1.443   1.057   1.083  0.2056  0.0384  0.2835
  515SOL    HW1 2058   1.460   1.151   1.086  0.4004 -0.0044  0.5938
  515SOL    HW2 2059   1.348   1.050   1.082  0.1706  0.2109  1.5240
  515SOL     MW 2060   1.433   1.069   1.083  0.2286  0.0576  0.4876
  516SOL     OW 2061   1.200   1.845   0.630  0.3489 -0.0413  0.5254
  516SOL    HW1 2062   1.131   1.848   0.696  0.2037 -1.3131  0.4495
  516SOL    HW2 2063   1.179   1.918   0.571 -0.3977  0.1488  1.0085
  516SOL     MW 2064   1.188   1.855   0.631  0.2335 -0.1864  0.5861
  517SOL     OW 2065   1.752   0.418   1.300 -0.1181  0.1127  0.4328
  517SOL    HW1 2066   1.691   0.348   1.323 -0.1802 -0.4141 -1.1827
  517SOL    HW2 2067   1.838   0.375   1.296 -0.0803  0.2196 -0.0622
  517SOL     MW 2068   1.755   0.403   1.302 -0.1227  0.0582  0.1647
  518SOL     OW 2069   1.381   2.756   0.072 -0.4354 -0.2043  0.2119
  518SOL    HW1 2070   1.393   2.836   0.123 -0.5031  0.3080 -0.5619
  518SOL    HW2 2071   1.379   2.686   0.138  1.3269  0.2409  0.7979
  518SOL     MW 2072   1.383   2.757   0.088 -0.2061 -0.0752  0.1868
  519SOL     OW 2073   1.771   1.351   1.070 -0.2748  0.7110 -0.1182
  519SOL    HW1 2074   1.758   1.315   0.983  0.5283  0.5702 -0.1836
  519SOL    HW2 2075   1.684   1.350   1.110 -0.1610 -2.3140  0.2925
  519SOL     MW 2076   1.758   1.346   1.064 -0.1547  0.2809 -0.0720
  520SOL     OW 2077   0.095   1.663   1.852  0.5341 -0.5785 -0.5744
  520SOL    HW1 2078   0.002   1.646   1.839  0.1929 -0.1864  1.1114
  520SOL    HW2 2079   0.100   1.757   1.870  1.2874 -0.5634 -0.8194
  520SOL     MW 2080   0.083   1.673   1.852  0.5885 -0.5276 -0.3848
  521SOL     OW 2081   1.044   0.114   0.534 -0.2633 -0.0987 -0.0339
  521SOL    HW1 2082   1.075   0.073   0.453 -0.2581 -0.8598  0.3372
  521SOL    HW2 2083   1.046   0.208   0.517  0.0644 -0.2408 -0.7955
  521SOL     MW 2084   1.048   0.121   0.521 -0.2190 -0.2148 -0.0864
  522SOL     OW 2085   0.890   1.692   2.846  0.5148 -0.2837  0.1209
  522SOL    HW1 2086   0.803   1.729   2.858  0.3105  0.0469 -1.9413
  522SOL    HW2 2087   0.884   1.604   2.881  0.2095  0.6421  2.5769
  522SOL     MW 2088   0.878   1.685   2.852  0.4419 -0.1118  0.1739
  523SOL     OW 2089   1.850   1.607   0.790  0.1243  0.1016  0.6549
  523SOL    HW1 2090   1.768   1.578   0.828 -1.4072  2.6743 -0.4528
  523SOL    HW2 2091   1.825   1.660   0.714  2.7224  1.7416  0.7938
  523SOL     MW 2092   1.836   1.610   0.785  0.2738  0.6583  0.5329
  524SOL     OW 2093   1.771   0.666   0.921  1.0577 -0.4555  0.1176
  524SOL    HW1 2094   1.745   0.729   0.988 -3.3557  0.4171 -2.0481
  524SOL    HW2 2095   1.759   0.581   0.962  0.6398  0.0710  1.1177
  524SOL     MW 2096   1.766   0.663   0.935  0.4187 -0.2738 -0.0467
  525SOL     OW 2097   2.054   1.318   0.923 -0.6193  0.1104  0.1373
  525SOL    HW1 2098   1.962   1.293   0.926 -0.6965 -0.1647 -2.3579
  525SOL    HW2 2099   2.099   1.239   0.893  0.0697  0.9250 -1.0637
  525SOL     MW 2100   2.048   1.304   0.920 -0.5366  0.1838 -0.3478
  526SOL     OW 2101   2.488   2.347   0.141 -0.1004  0.1312  0.2467
  526SOL    HW1 2102   2.411   2.293   0.155 -1.6785  2.5011  1.3222
  526SOL    HW2 2103   2.491   2.361   0.047  0.2811 -1.6179 -0.0479
  526SOL     MW 2104   2.479   2.342   0.131 -0.2588  0.2162  0.3511
  527SOL     OW 2105   1.352   0.060   1.818 -0.6465  0.0302  0.3021
  527SOL    HW1 2106   1.392   0.142   1.791  0.2450 -0.5328 -0.1268
  527SOL    HW2 2107   1.258   0.074   1.805 -0.4636  0.8040 -0.2465
  527SOL     MW 2108   1.345   0.073   1.813 -0.5031  0.0593  0.1741
  528SOL     OW 2109   0.193   0.981   2.529  0.3611  0.0115  0.6737
  528SOL    HW1 2110   0.145   0.899   2.537  0.7312 -0.1863  0.8692
  528SOL    HW2 2111   0.175   1.011   2.440 -0.6600  0.2738  0.9496
  528SOL     MW 2112   0.184   0.974   2.518  0.2738  0.0053  0.7396
  529SOL     OW 2113   1.176   1.993   2.205  0.3609  0.3751 -0.4462
  529SOL    HW1 2114   1.169   2.071   2.258  0.9773  0.1972 -0.0963
  529SOL    HW2 2115   1.091   1.950   2.213 -0.0571  1.1191 -0.8261
  529SOL     MW 2116   1.164   1.997   2.213  0.3836  0.4423 -0.4407
  530SOL     OW 2117   2.375   2.310   1.436 -0.3201 -0.5429 -0.0451
  530SOL    HW1 2118   2.332   2.282   1.355  1.6710 -0.2470 -1.2742
  530SOL    HW2 2119   2.324   2.385   1.466 -2.0846 -1.6887 -0.0747
  530SOL     MW 2120   2.363   2.316   1.429 -0.2953 -0.6541 -0.2172
  531SOL     OW 2121   0.941   1.843   2.278  0.8235  0.2060  0.2509
  531SOL    HW1 2122   0.869   1.893   2.240  1.3744  0.8008 -0.0330
  531SOL    HW2 2123   0.911   1.752   2.276 -0.2033  0.5090  0.7858
  531SOL     MW 2124   0.927   1.838   2.273  0.7683  0.3297  0.2793
  532SOL     OW 2125   2.326   1.906   1.490  0.3096  0.1672  0.4641
  532SOL    HW1 2126   2.359   1.827   1.448 -0.4219 -0.5369  1.1717
  532SOL    HW2 2127   2.246   1.927   1.442 -0.1428 -0.2261  1.0373
  532SOL     MW 2128   2.320   1.898   1.478  0.1576  0.0193  0.6298
  533SOL     OW 2129   2.101   0.647   1.336  0.0216  0.3084  0.4200
  533SOL    HW1 2130   2.045   0.724   1.344  1.5851  1.5552 -0.1379
  533SOL    HW2 2131   2.083   0.596   1.415 -0.5839  1.5606  1.1162
  533SOL     MW 2132   2.091   0.650   1.347  0.1484  0.6419  0.4418
  534SOL     OW 2133   0.788   2.752   0.507  0.0579  0.0391 -0.1687
  534SOL    HW1 2134   0.873   2.761   0.463  1.0429 -0.7532  1.4545
  534SOL    HW2 2135   0.763   2.841   0.530  0.3343  0.3037 -0.8856
  534SOL     MW 2136   0.796   2.765   0.504  0.2335 -0.0362 -0.0517
  535SOL     OW 2137   2.400   0.537   2.429 -0.3133  0.3487 -0.3655
  535SOL    HW1 2138   2.444   0.452   2.433 -0.8341  0.0617 -0.8016
  535SOL    HW2 2139   2.365   0.550   2.517 -1.6763 -0.6557 -0.7392
  535SOL     MW 2140   2.401   0.528   2.441 -0.5723  0.1859 -0.4725
  536SOL     OW 2141   1.388   2.595   1.884 -0.0558  0.0420 -0.0770
  536SOL    HW1 2142   1.375   2.505   1.857 -1.2660 -0.3613  1.6860
  536SOL    HW2 2143   1.415   2.589   1.976 -0.2959  1.4706  0.1110
  536SOL     MW 2144   1.390   2.583   1.892 -0.2493  0.1799  0.1848
  537SOL     OW 2145   2.293   0.263   1.578 -0.1273 -0.3740 -0.1422
  537SOL    HW1 2146   2.335   0.270   1.492  0.0192 -1.6712 -0.2043
  537SOL    HW2 2147   2.360   0.224   1.634 -0.2648  0.3480  0.5421
  537SOL     MW 2148   2.307   0.259   1.574 -0.1187 -0.4522 -0.0610
  538SOL     OW 2149   0.514   1.573   1.438 -0.1623 -0.7204 -0.2706
  538SOL    HW1 2150   0.445   1.618   1.487 -0.3042  0.0809 -1.1911
  538SOL    HW2 2151   0.520   1.620   1.355  2.8114  0.4311  0.4890
  538SOL     MW 2152   0.505   1.585   1.434  0.2216 -0.4618 -0.2939
  539SOL     OW 2153   1.494   1.834   2.294  0.4233  0.2264  0.0564
  539SOL    HW1 2154   1.436   1.898   2.335  0.0620 -0.8296  1.2407
  539SOL    HW2 2155   1.577   1.844   2.341  0.5732  0.2906 -0.2208
  539SOL     MW 2156   1.497   1.844   2.305  0.4035  0.0954  0.1844
  540SOL     OW 2157   1.002   0.767   1.693  0.4336  0.2958 -0.4914
  540SOL    HW1 2158   0.922   0.815   1.674  1.3427  1.9274 -0.4194
  540SOL    HW2 2159   1.041   0.814   1.767  0.2592 -1.9376  1.1008
  540SOL     MW 2160   0.997   0.780   1.700  0.5385  0.2139 -0.2654
  541SOL     OW 2161   2.288   0.109   0.696 -0.0120 -0.0080  0.6883
  541SOL    HW1 2162   2.263   0.017   0.688 -0.9732  0.2695  0.3938
  541SOL    HW2 2163   2.337   0.113   0.778 -0.8519 -0.6141  1.2432
  541SOL     MW 2164   2.291   0.098   0.706 -0.2475 -0.0610  0.7187
  542SOL     OW 2165   0.141   1.435   0.636 -0.2288 -0.1364  0.5769
  542SOL    HW1 2166   0.184   1.435   0.550  0.5739 -1.2847  0.9611
  542SOL    HW2 2167   0.065   1.493   0.624  0.7477  1.0018 -0.4388
  542SOL     MW 2168   0.137   1.443   0.623 -0.0004 -0.1333  0.4966
  543SOL     OW 2169   0.710   2.210   0.267 -0.0595 -0.0954  0.5080
  543SOL    HW1 2170   0.763   2.265   0.210  1.0575  0.0316  1.6227
  543SOL    HW2 2171   0.627   2.200   0.221  1.0265 -0.5630 -1.4430
  543SOL     MW 2172   0.706   2.216   0.254  0.2302 -0.1419  0.4003
  544SOL     OW 2173   1.003   0.601   1.967 -0.0632 -0.6339  0.2211
  544SOL    HW1 2174   0.928   0.642   2.009  0.7665  0.3740  0.7510
  544SOL    HW2 2175   0.968   0.565   1.885 -1.0280  0.2181  0.2477
  544SOL     MW 2176   0.989   0.602   1.962 -0.0957 -0.3871  0.3040
  545SOL     OW 2177   1.681   1.487   0.037  0.1501  0.5448 -0.4039
  545SOL    HW1 2178   1.738   1.527   0.103  0.6329  1.7266 -1.4761
  545SOL    HW2 2179   1.712   1.397   0.029 -0.3743  0.1751  1.4494
  545SOL     MW 2180   1.693   1.480   0.044  0.1441  0.6519 -0.3063
  546SOL     OW 2181   1.880   1.455   0.575 -0.2223 -0.0641 -0.3220
  546SOL    HW1 2182   1.815   1.386   0.586  0.6050 -1.1557 -1.8571
  546SOL    HW2 2183   1.871   1.510   0.653 -1.7684 -1.1773  0.3238
  546SOL     MW 2184   1.870   1.453   0.587 -0.3060 -0.3510 -0.4399
  547SOL     OW 2185   1.857   2.727   1.076 -0.0103 -0.0706 -0.4345
  547SOL    HW1 2186   1.763   2.710   1.071 -0.3570  1.6792 -0.4967
  547SOL    HW2 2187   1.870   2.759   1.165  0.3846  0.4523 -0.6794
  547SOL     MW 2188   1.846   2.729   1.087  0.0019  0.2346 -0.4783
  548SOL     OW 2189   1.193   1.822   1.220 -0.9032 -0.9655 -0.6186
  548SOL    HW1 2190   1.222   1.875   1.147  0.0544  0.7682  0.9381
  548SOL    HW2 2191   1.160   1.884   1.285  0.7274 -2.1482  1.4926
  548SOL     MW 2192   1.193   1.837   1.219 -0.5533 -0.8894 -0.1429
  549SOL     OW 2193   2.980   0.050   0.198  0.3182 -0.3404  0.6871
  549SOL    HW1 2194   2.908   0.060   0.261  0.6735  0.5068  0.9752
  549SOL    HW2 2195   2.990  -0.044   0.189 -0.7116 -0.4782  0.7839
  549SOL     MW 2196   2.972   0.039   0.205  0.2242 -0.2381  0.7417
  550SOL     OW 2197   0.597   2.600   1.783 -0.1548 -0.1380  0.3111
  550SOL    HW1 2198   0.626   2.676   1.733  0.5797  0.8316  2.1377
  550SOL    HW2 2199   0.524   2.564   1.732  1.4590 -0.0894 -2.1803
  550SOL     MW 2200   0.591   2.605   1.770  0.1478 -0.0013  0.2203
  551SOL     OW 2201   1.702   2.903   2.067  0.1581  0.2037  0.1082
  551SOL    HW1 2202   1.768   2.848   2.025  1.1431  0.5316  1.1710
  551SOL    HW2 2203   1.631   2.842   2.090  0.0686 -0.1508 -1.0434
  551SOL     MW 2204   1.701   2.887   2.065  0.2747  0.1929  0.1031
  552SOL     OW 2205   1.774   1.243   0.009  1.0257 -0.1669  0.1501
  552SOL    HW1 2206   1.864   1.246  -0.025  0.6888 -1.6235 -0.9762
  552SOL    HW2 2207   1.767   1.156   0.050 -0.2175 -0.5739 -0.8655
  552SOL     MW 2208   1.785   1.232   0.010  0.8187 -0.4115 -0.1309
  553SOL     OW 2209   2.069   1.693   1.475  0.2052 -0.3142  0.4261
  553SOL    HW1 2210   2.090   1.730   1.561  1.8327 -0.3799  0.0906
  553SOL    HW2 2211   2.150   1.649   1.448 -0.1689 -0.0071 -1.2838
  553SOL     MW 2212   2.083   1.692   1.483  0.3678 -0.2896  0.1625
  554SOL     OW 2213   1.154   2.967   2.491 -0.1079  0.0712  0.5656
  554SOL    HW1 2214   1.248   2.961   2.511 -0.1454 -2.9964  0.3426
  554SOL    HW2 2215   1.111   2.958   2.576 -0.1888 -0.2496  0.4935
  554SOL     MW 2216   1.161   2.965   2.505 -0.1191 -0.3774  0.5275
  555SOL     OW 2217   0.826   1.408   2.932  0.2462  0.4104  0.3395
  555SOL    HW1 2218   0.908   1.372   2.966 -0.1382  2.1034  3.4471
  555SOL    HW2 2219   0.794   1.342   2.871  3.8426 -0.3231 -0.9499
  555SOL     MW 2220   0.832   1.394   2.929  0.6593  0.5354  0.5884
  556SOL     OW 2221   1.445   1.127   0.336  0.3415 -0.2771 -0.3008
  556SOL    HW1 2222   1.386   1.064   0.377  1.1317 -0.0282  1.3244
  556SOL    HW2 2223   1.532   1.090   0.349  1.0945  2.1513  2.9463
  556SOL     MW 2224   1.449   1.114   0.343  0.5371  0.0756  0.3448
  557SOL     OW 2225   0.773   2.454   1.960 -0.6486 -0.5100 -0.4041
  557SOL    HW1 2226   0.853   2.479   1.915 -0.7039  2.0059  0.6877
  557SOL    HW2 2227   0.702   2.475   1.899 -0.5547 -3.1768 -1.5566
  557SOL     MW 2228   0.774   2.460   1.946 -0.6428 -0.5287 -0.4134
  558SOL     OW 2229   2.884   0.618   1.180 -0.5667  0.2113  0.0157
  558SOL    HW1 2230   2.810   0.653   1.229  1.4789  2.5340  1.6776
  558SOL    HW2 2231   2.900   0.532   1.219 -0.1227  1.2542  2.2926
  558SOL     MW 2232   2.877   0.611   1.192 -0.2376  0.6621  0.5365
  559SOL     OW 2233   0.856   1.357   1.637 -0.3855 -0.4789 -0.8507
  559SOL    HW1 2234   0.807   1.377   1.557  1.9177  0.6778 -2.0979
  559SOL    HW2 2235   0.931   1.306   1.606  0.0968 -0.7601  0.7192
  559SOL     MW 2236   0.859   1.353   1.622 -0.0160 -0.3579 -0.8098
  560SOL     OW 2237   1.590   0.118   2.570 -0.6227  0.4000 -0.3693
  560SOL    HW1 2238   1.656   0.091   2.506  0.0488 -0.5534  0.6901
  560SOL    HW2 2239   1.552   0.198   2.533  1.0079  0.8799 -1.0867
  560SOL     MW 2240   1.594   0.125   2.556 -0.3247  0.3368 -0.3169
  561SOL     OW 2241   0.051   0.638   1.443 -0.0026  0.1424 -0.6250
  561SOL    HW1 2242   0.028   0.553   1.404  0.2006 -0.0549 -0.3206
  561SOL    HW2 2243   0.018   0.703   1.381  0.8665 -0.1786 -1.4464
  561SOL     MW 2244   0.044   0.635   1.430  0.1443  0.0725 -0.6874
  562SOL     OW 2245   2.232   2.822   1.351 -0.3095 -0.4051  0.1736
  562SOL    HW1 2246   2.177   2.885   1.304  0.9307  0.8579  0.3549
  562SOL    HW2 2247   2.307   2.873   1.382  1.0345 -2.0862 -0.1457
  562SOL     MW 2248   2.234   2.837   1.349  0.0328 -0.4575  0.1702
  563SOL     OW 2249   2.689   1.188   1.777  0.5026  0.5381 -0.3893
  563SOL    HW1 2250   2.631   1.162   1.706  1.4563  0.2437 -1.0906
  563SOL    HW2 2251   2.690   1.113   1.836  0.1600  0.5463 -0.3758
  563SOL     MW 2252   2.682   1.175   1.775  0.5831  0.5026 -0.4749
  564SOL     OW 2253   0.908   0.824   0.980  0.4812  0.5454  0.0470
  564SOL    HW1 2254   0.979   0.774   1.019  0.0781 -0.8953 -0.9613
  564SOL    HW2 2255   0.828   0.776   1.004  0.0047  1.1427 -0.2961
  564SOL     MW 2256   0.907   0.811   0.988  0.3651  0.4367 -0.1344
  565SOL     OW 2257   2.742   1.904   1.190 -0.2166  0.0455  1.0505
  565SOL    HW1 2258   2.752   1.953   1.108 -0.2904 -1.1880  0.2762
  565SOL    HW2 2259   2.777   1.818   1.170 -1.0008 -0.5254  2.0761
  565SOL     MW 2260   2.748   1.899   1.176 -0.3287 -0.1973  1.0850
  566SOL     OW 2261   1.832   0.668   2.608 -0.1654 -0.3582 -0.9836
  566SOL    HW1 2262   1.747   0.638   2.574 -0.4362  0.0443 -0.6685
  566SOL    HW2 2263   1.841   0.758   2.575  0.8475 -0.9001 -2.2987
  566SOL     MW 2264   1.822   0.676   2.599 -0.0703 -0.3785 -1.1137
  567SOL     OW 2265   0.355   0.617   2.459 -0.1159  0.3406 -0.0279
  567SOL    HW1 2266   0.356   0.676   2.534 -0.3067 -0.8130  0.9017
  567SOL    HW2 2267   0.447   0.608   2.434  0.0116  0.1938  0.4935
  567SOL     MW 2268   0.367   0.624   2.466 -0.1287  0.1556  0.1650
  568SOL     OW 2269   1.226   1.385   1.052  0.6931  0.3664  0.5329
  568SOL    HW1 2270   1.199   1.387   0.960  1.5762 -0.2446  0.2388
  568SOL    HW2 2271   1.236   1.292   1.072  2.4084  0.5358  0.6372
  568SOL     MW 2272   1.224   1.373   1.043  1.0355  0.3079  0.5053
  569SOL     OW 2273   0.480   2.706   2.001  0.1853 -0.2397 -0.5324
  569SOL    HW1 2274   0.510   2.795   1.982 -0.6069 -0.0938 -1.1705
  569SOL    HW2 2275   0.509   2.655   1.926 -1.0800 -0.1066 -1.1328
  569SOL     MW 2276   0.488   2.711   1.989 -0.0893 -0.2030 -0.7022
  570SOL     OW 2277   2.469   0.494   1.087  0.0740  0.2505 -0.3520
  570SOL    HW1 2278   2.433   0.538   1.010 -0.8744  1.1916  0.5970
  570SOL    HW2 2279   2.530   0.429   1.051 -1.4011 -0.3331 -1.9595
  570SOL     MW 2280   2.472   0.491   1.072 -0.2475  0.2999 -0.4398
  571SOL     OW 2281   2.225   2.538   0.500  0.6394  0.5814 -0.3306
  571SOL    HW1 2282   2.194   2.592   0.427  0.4647 -0.3803 -0.9828
  571SOL    HW2 2283   2.233   2.450   0.463 -2.2768 -0.5900  1.4945
  571SOL     MW 2284   2.222   2.534   0.485  0.2372  0.2960 -0.1725
  572SOL     OW 2285   0.756   1.907   2.501  0.3043  0.2680 -0.1955
  572SOL    HW1 2286   0.755   2.001   2.517 -0.9804  0.4792 -1.3568
  572SOL    HW2 2287   0.803   1.896   2.418 -1.4241  0.1307 -1.2053
  572SOL     MW 2288   0.762   1.918   2.492 -0.0826  0.2759 -0.4834
  573SOL     OW 2289   2.978   2.311   2.548 -0.0060  0.1385 -0.5716
  573SOL    HW1 2290   2.967   2.255   2.625  1.3412 -0.5567 -0.8583
  573SOL    HW2 2291   2.958   2.399   2.580  1.5117  0.0104  0.8643
  573SOL     MW 2292   2.974   2.316   2.563  0.3774  0.0198 -0.4177
  574SOL     OW 2293   1.771   0.290   2.305  0.6095  0.0008  0.1838
  574SOL    HW1 2294   1.812   0.377   2.311 -0.2540  0.4120  0.1726
  574SOL    HW2 2295   1.680   0.305   2.328  0.0322 -0.5801 -1.5869
  574SOL     MW 2296   1.765   0.304   2.309  0.4091 -0.0277 -0.0501
  575SOL     OW 2297   0.278   2.115   0.309 -0.0056 -1.1038  0.0271
  575SOL    HW1 2298   0.311   2.060   0.380  3.2164 -0.5939 -0.9140
  575SOL    HW2 2299   0.329   2.088   0.233 -0.6247  0.9923 -1.2105
  575SOL     MW 2300   0.289   2.104   0.308  0.3356 -0.7592 -0.2552
  576SOL     OW 2301   1.093   0.194   2.053 -0.6647  0.3790 -0.0139
  576SOL    HW1 2302   1.032   0.207   2.126  1.1082  0.9996  1.4294
  576SOL    HW2 2303   1.133   0.109   2.069  1.1309  1.3259  0.8960
  576SOL     MW 2304   1.090   0.185   2.064 -0.1969  0.5833  0.2970
  577SOL     OW 2305   0.165   0.305   2.790 -0.3131 -0.0788  0.3915
  577SOL    HW1 2306   0.236   0.352   2.834  0.0882 -0.5231  0.2195
  577SOL    HW2 2307   0.175   0.327   2.698 -1.0647  0.7307  0.4894
  577SOL     MW 2308   0.176   0.314   2.784 -0.3583 -0.0380  0.3852
  578SOL     OW 2309   2.236   0.339   1.174  0.2239 -0.0407 -0.1358
  578SOL    HW1 2310   2.304   0.404   1.154  1.4902 -0.8930  1.1970
  578SOL    HW2 2311   2.284   0.264   1.210 -1.3640 -0.9764  0.1219
  578SOL     MW 2312   2.251   0.338   1.176  0.1757 -0.2682  0.0774
  579SOL     OW 2313   1.168   1.119   1.039  0.2926 -0.5251  0.1770
  579SOL    HW1 2314   1.098   1.096   1.101 -1.3733 -0.2922 -1.5340
  579SOL    HW2 2315   1.152   1.062   0.963  2.2975 -0.8249 -0.0745
  579SOL     MW 2316   1.156   1.108   1.037  0.3346 -0.5335 -0.0831
  580SOL     OW 2317   2.536   0.643   0.308 -0.3529 -0.4141 -0.1642
  580SOL    HW1 2318   2.453   0.649   0.260  0.1554  0.5563 -0.9754
  580SOL    HW2 2319   2.602   0.673   0.245  0.8322 -2.5800 -0.0319
  580SOL     MW 2320   2.533   0.648   0.293 -0.1253 -0.5699 -0.2618
  581SOL     OW 2321   2.705   2.400   0.673  0.3054  0.2352  0.2781
  581SOL    HW1 2322   2.712   2.396   0.769 -1.8120 -0.6653  0.4452
  581SOL    HW2 2323   2.656   2.480   0.656  1.1941  0.7143 -0.1366
  581SOL     MW 2324   2.700   2.410   0.684  0.1488  0.1713  0.2518
  582SOL     OW 2325   2.742   0.460   2.620 -0.2598 -0.4897  0.3576
  582SOL    HW1 2326   2.773   0.536   2.571  1.7601 -0.7784  1.1311
  582SOL    HW2 2327   2.802   0.452   2.693 -1.5885 -1.7152  1.3733
  582SOL     MW 2328   2.754   0.469   2.623 -0.1661 -0.6912  0.5929
  583SOL     OW 2329   1.710   2.348   1.571  0.2635 -0.6491 -0.1263
  583SOL    HW1 2330   1.663   2.323   1.651 -0.6806  1.3404  0.0098
  583SOL    HW2 2331   1.702   2.272   1.514  0.3936 -1.8682  1.4178
  583SOL     MW 2332   1.702   2.335   1.574  0.1587 -0.5444  0.0989
  584SOL     OW 2333   2.020   0.777   2.371 -0.0439 -0.2478 -0.0918
  584SOL    HW1 2334   2.083   0.725   2.321 -0.6799 -0.3048 -0.8686
  584SOL    HW2 2335   1.937   0.731   2.357 -1.1174  2.2304 -2.7992
  584SOL     MW 2336   2.017   0.764   2.362 -0.2699  0.0735 -0.5482
  585SOL     OW 2337   2.457   2.334   1.950 -0.7315  0.0862  0.2539
  585SOL    HW1 2338   2.361   2.330   1.945 -0.6305 -1.7207 -3.1032
  585SOL    HW2 2339   2.482   2.401   1.886  0.2755 -1.5532 -1.1448
  585SOL     MW 2340   2.448   2.342   1.941 -0.5817 -0.3643 -0.3818
  586SOL     OW 2341   0.095   0.695   0.061  0.2723 -0.0033  0.7166
  586SOL    HW1 2342   0.048   0.756   0.118  2.1432 -0.7987  3.3564
  586SOL    HW2 2343   0.146   0.751   0.002  1.1870  1.0591  2.4160
  586SOL     MW 2344   0.096   0.710   0.061  0.6350  0.0292  1.2864
  587SOL     OW 2345   1.755   1.574   2.409 -0.2557  0.2648  0.0801
  587SOL    HW1 2346   1.756   1.669   2.415 -0.1106  0.4151 -1.8069
  587SOL    HW2 2347   1.838   1.546   2.448 -0.3465  0.8836  0.7377
  587SOL     MW 2348   1.766   1.583   2.415 -0.2571  0.3647 -0.0876
  588SOL     OW 2349   2.568   0.427   1.758 -0.0131  0.6851  0.1121
  588SOL    HW1 2350   2.659   0.399   1.760  0.1048  1.0733  1.1958
  588SOL    HW2 2351   2.519   0.350   1.785 -0.2003 -0.0705 -2.1788
  588SOL     MW 2352   2.573   0.413   1.762 -0.0248  0.6376 -0.0451
  589SOL     OW 2353   0.053   1.301   2.623 -0.4740  0.0196 -0.3495
  589SOL    HW1 2354  -0.006   1.375   2.636  1.5239  1.8295 -0.9097
  589SOL    HW2 2355   0.079   1.276   2.711  0.2934  1.2946 -0.1866
  589SOL     MW 2356   0.049   1.308   2.636 -0.1092  0.4200 -0.4096
  590SOL     OW 2357   2.067   0.805   0.744  0.1086  0.0937 -0.4270
  590SOL    HW1 2358   2.026   0.891   0.747  0.4557  0.2269  0.9890
  590SOL    HW2 2359   2.068   0.775   0.835  1.4006 -0.7428 -0.6834
  590SOL     MW 2360   2.061   0.812   0.756  0.3356  0.0035 -0.2786
  591SOL     OW 2361   1.868   1.611   1.271  0.0306 -0.1556  0.1633
  591SOL    HW1 2362   1.946   1.630   1.323 -0.2433 -0.5121  0.7123
  591SOL    HW2 2363   1.827   1.536   1.314 -0.2885 -0.3619 -0.4789
  591SOL     MW 2364   1.872   1.604   1.283 -0.0470 -0.2269  0.1450
  592SOL     OW 2365   1.163   2.154   1.675 -0.1348 -0.1394 -0.0235
  592SOL    HW1 2366   1.187   2.098   1.749  1.5456  0.2346 -0.2331
  592SOL    HW2 2367   1.070   2.171   1.686 -0.2541 -1.3739  1.1230
  592SOL     MW 2368   1.154   2.149   1.686  0.0674 -0.2495  0.1029
  593SOL     OW 2369   0.662   1.521   0.405  0.5572  0.0055 -0.1176
  593SOL    HW1 2370   0.653   1.437   0.449 -3.3371  0.3530  0.0613
  593SOL    HW2 2371   0.665   1.499   0.311  0.6030 -0.3519 -0.0327
  593SOL     MW 2372   0.661   1.507   0.398  0.0436  0.0080 -0.0863
  594SOL     OW 2373   1.535   1.000   0.826  0.2362 -0.4463  0.2555
  594SOL    HW1 2374   1.552   0.906   0.825  3.4988  0.0115  1.6759
  594SOL    HW2 2375   1.505   1.017   0.916 -1.8535 -0.2598 -0.4187
  594SOL     MW 2376   1.533   0.990   0.838  0.3942 -0.3585  0.3558
  595SOL     OW 2377   2.942   2.545   0.598  0.7877  0.2303  0.0729
  595SOL    HW1 2378   2.996   2.535   0.677  0.0131  0.5568  0.6604
  595SOL    HW2 2379   2.858   2.506   0.622  0.5124  0.4308 -0.5544
  595SOL     MW 2380   2.938   2.539   0.612  0.6481  0.2955  0.0753
  596SOL     OW 2381   2.049   2.482   2.793 -0.5510 -0.0253  0.1936
  596SOL    HW1 2382   2.090   2.478   2.707 -0.1239 -0.0353  0.3953
  596SOL    HW2 2383   2.013   2.570   2.798  0.6195  0.4573  0.5401
  596SOL     MW 2384   2.050   2.493   2.782 -0.3381  0.0383  0.2686
  597SOL     OW 2385   2.004   2.926   2.588  0.3922  0.0978  0.7741
  597SOL    HW1 2386   2.053   2.937   2.507  1.1158 -1.0749  1.0216
  597SOL    HW2 2387   2.038   2.994   2.646  1.6587 -0.5834  0.8802
  597SOL     MW 2388   2.015   2.936   2.585  0.6536 -0.1498  0.8198
  598SOL     OW 2389   2.700   0.023   1.540  0.0203  0.0635 -0.0975
  598SOL    HW1 2390   2.621  -0.028   1.523 -0.2264  0.2820  0.3971
  598SOL    HW2 2391   2.746   0.024   1.455 -0.6775  0.2339 -0.4842
  598SOL     MW 2392   2.696   0.017   1.526 -0.1030  0.1096 -0.0821
  599SOL     OW 2393   2.383   0.231   1.843  0.3042 -0.2123  0.0195
  599SOL    HW1 2394   2.442   0.194   1.909  1.7025  1.1249 -0.4274
  599SOL    HW2 2395   2.304   0.254   1.892  0.3088 -1.6181  0.7184
  599SOL     MW 2396   2.380   0.229   1.858  0.4923 -0.2243  0.0593
  600SOL     OW 2397   0.968   2.729   0.953 -0.1016 -0.2774  0.3006
  600SOL    HW1 2398   0.994   2.665   0.886 -2.4674  1.5424 -2.5877
  600SOL    HW2 2399   1.045   2.785   0.964  0.8266 -1.4974  0.3177
  600SOL     MW 2400   0.982   2.728   0.946 -0.2882 -0.1957 -0.0811
  601SOL     OW 2401   2.189   2.630   0.231 -0.2385 -0.1895 -0.3507
  601SOL    HW1 2402   2.141   2.709   0.254 -0.5193 -0.0248 -1.4302
  601SOL    HW2 2403   2.140   2.594   0.157 -0.5021 -1.7462  0.5350
  601SOL     MW 2404   2.176   2.635   0.224 -0.2999 -0.3709 -0.3743
  602SOL     OW 2405   1.179   1.657   1.897  0.4469  0.6891  0.1804
  602SOL    HW1 2406   1.190   1.735   1.950  0.3725  0.8418 -0.0279
  602SOL    HW2 2407   1.243   1.666   1.827 -0.3223  1.1154 -0.4843
  602SOL     MW 2408   1.189   1.668   1.895  0.3338  0.7667  0.0702
  603SOL     OW 2409   2.019   2.079   0.629 -0.6312 -0.2830  0.5750
  603SOL    HW1 2410   2.022   2.145   0.560  1.4441 -0.3026  0.5977
  603SOL    HW2 2411   2.024   1.995   0.583 -2.0676 -0.4313  0.6233
  603SOL     MW 2412   2.020   2.077   0.614 -0.5500 -0.2964  0.5876
  604SOL     OW 2413   1.395   0.272   0.914 -0.0066 -0.1892 -0.2051
  604SOL    HW1 2414   1.382   0.180   0.937 -0.0908 -1.1056 -3.4145
  604SOL    HW2 2415   1.356   0.281   0.827  2.2445  2.2198 -1.1282
  604SOL     MW 2416   1.388   0.261   0.906  0.2711  0.0073 -0.7461
  605SOL     OW 2417   0.982   1.342   2.164 -0.1176  0.3179 -0.3625
  605SOL    HW1 2418   0.922   1.416   2.151 -0.5859 -0.1807 -1.1181
  605SOL    HW2 2419   1.057   1.380   2.209 -0.8395  1.0294  0.2875
  605SOL     MW 2420   0.984   1.357   2.168 -0.2755  0.3429 -0.3759
  606SOL     OW 2421   1.574   2.779   2.899 -0.1537 -0.1256 -0.2071
  606SOL    HW1 2422   1.507   2.778   2.967  0.3830  0.0221  0.3345
  606SOL    HW2 2423   1.597   2.872   2.890 -0.2173 -0.1448 -0.5872
  606SOL     MW 2424   1.568   2.791   2.906 -0.0898 -0.1092 -0.1889
  607SOL     OW 2425   2.491   0.705   0.569  0.1004  0.0291 -0.2268
  607SOL    HW1 2426   2.401   0.706   0.538  0.1022 -0.4326 -0.2640
  607SOL    HW2 2427   2.544   0.710   0.489  0.1047 -0.4063 -0.2546
  607SOL     MW 2428   2.486   0.706   0.554  0.1073 -0.0901 -0.2273
  608SOL     OW 2429   0.861   0.349   0.296 -0.5946  0.2963  0.5376
  608SOL    HW1 2430   0.806   0.270   0.298 -5.3064  3.1206 -1.6079
  608SOL    HW2 2431   0.830   0.402   0.369  1.0229  1.0713  0.7012
  608SOL     MW 2432   0.849   0.345   0.306 -1.0054  0.7737  0.2772
  609SOL     OW 2433   2.937   0.410   2.824  0.2762  0.3263 -0.5696
  609SOL    HW1 2434   3.028   0.382   2.825  1.0346  2.2855  2.9463
  609SOL    HW2 2435   2.889   0.336   2.861  1.1947  0.8065  1.7735
  609SOL     MW 2436   2.942   0.397   2.829  0.4939  0.6448  0.2027
  610SOL     OW 2437   0.020   1.701   0.263 -0.4171  0.3048  0.5372
  610SOL    HW1 2438   0.062   1.779   0.227  1.5496 -0.5983  0.7437
  610SOL    HW2 2439  -0.058   1.689   0.210 -0.0118  1.6049 -0.4090
  610SOL     MW 2440   0.015   1.710   0.252 -0.1052  0.3529  0.4399
  611SOL     OW 2441   1.714   2.813   1.319 -0.2232  0.4575 -0.3758
  611SOL    HW1 2442   1.640   2.862   1.356  0.8774  0.9934  1.2552
  611SOL    HW2 2443   1.698   2.722   1.344  0.1020  0.7031  0.8071
  611SOL     MW 2444   1.702   2.808   1.327 -0.0429  0.5555 -0.0066
  612SOL     OW 2445   1.311   1.242   2.928 -0.3971 -0.0249 -0.1251
  612SOL    HW1 2446   1.344   1.173   2.985 -1.1607 -0.4022 -0.1361
  612SOL    HW2 2447   1.369   1.317   2.945 -0.3437 -0.2699  0.8073
  612SOL     MW 2448   1.323   1.243   2.938 -0.4914 -0.1111 -0.0069
  613SOL     OW 2449   1.118   0.696   1.468 -0.1509  0.5881  0.6998
  613SOL    HW1 2450   1.087   0.715   1.557  0.4359 -0.8774  1.2497
  613SOL    HW2 2451   1.047   0.726   1.411 -1.9359 -1.2171  1.8233
  613SOL     MW 2452   1.105   0.702   1.473 -0.3068  0.1578  0.9210
  614SOL     OW 2453   1.387   2.458   0.853  0.4213  0.0949 -0.1352
  614SOL    HW1 2454   1.412   2.416   0.770  1.1086  1.3318 -0.5868
  614SOL    HW2 2455   1.352   2.387   0.906  1.4243 -1.0245 -0.9089
  614SOL     MW 2456   1.386   2.443   0.849  0.6524  0.1111 -0.2926
  615SOL     OW 2457   1.470   1.043   1.381 -0.2080  0.8216 -0.0826
  615SOL    HW1 2458   1.458   1.014   1.290 -1.1087 -2.7375  0.9987
  615SOL    HW2 2459   1.398   1.003   1.428  0.9191  1.5628  2.4264
  615SOL     MW 2460   1.459   1.034   1.375 -0.1829  0.4478  0.3914
  616SOL     OW 2461   2.089   1.950   1.367 -0.5609  0.3562 -0.3246
  616SOL    HW1 2462   2.130   1.935   1.282  3.3721  0.1637  1.3914
  616SOL    HW2 2463   2.076   1.862   1.402  0.2030  0.4594  0.2394
  616SOL     MW 2464   2.093   1.936   1.360  0.0640  0.3465 -0.0232
  617SOL     OW 2465   0.553   0.254   0.498  0.5954 -0.0110 -0.3207
  617SOL    HW1 2466   0.544   0.200   0.576 -0.6362 -0.7255 -0.9254
  617SOL    HW2 2467   0.525   0.341   0.526  0.6880 -0.1392  0.1751
  617SOL     MW 2468   0.548   0.259   0.512  0.4477 -0.1238 -0.3338
  618SOL     OW 2469   0.700   1.129   0.802 -0.2230  0.4807  0.0352
  618SOL    HW1 2470   0.647   1.183   0.744  1.8866  0.7508 -1.7751
  618SOL    HW2 2471   0.694   1.041   0.764  1.6449  0.7676 -1.0898
  618SOL     MW 2472   0.693   1.124   0.789  0.2997  0.5620 -0.3527
  619SOL     OW 2473   2.814   2.225   0.486  0.0094 -0.2713 -0.0753
  619SOL    HW1 2474   2.757   2.149   0.496 -0.2605 -0.1611 -0.7550
  619SOL    HW2 2475   2.804   2.273   0.568  0.0662 -0.8861  0.2997
  619SOL     MW 2476   2.806   2.221   0.498 -0.0130 -0.3335 -0.1262
  620SOL     OW 2477   1.926   0.199   2.530  0.5331  0.4136 -0.2823
  620SOL    HW1 2478   1.890   0.222   2.444 -0.9861  0.7300  0.4058
  620SOL    HW2 2479   1.861   0.231   2.592  0.8560 -1.1851  0.9346
  620SOL     MW 2480   1.912   0.207   2.527  0.3797  0.2472 -0.0272
  621SOL     OW 2481   0.148   2.620   0.434 -0.6365  0.0875 -0.3296
  621SOL    HW1 2482   0.118   2.530   0.443 -0.1120 -0.1676 -1.0425
  621SOL    HW2 2483   0.189   2.624   0.347  0.2698  0.7330  0.1056
  621SOL     MW 2484   0.150   2.609   0.424 -0.4479  0.1345 -0.3715
  622SOL     OW 2485   1.776   0.068   0.940  0.4231 -0.4220 -0.0499
  622SOL    HW1 2486   1.738   0.154   0.926 -0.5400 -0.7027  0.7470
  622SOL    HW2 2487   1.780   0.058   1.035 -0.2159 -1.5628 -0.1234
  622SOL     MW 2488   1.772   0.078   0.951  0.2084 -0.5996  0.0465
  623SOL     OW 2489   0.450   0.016   1.683 -0.0978 -0.1252  0.7932
  623SOL    HW1 2490   0.512   0.073   1.637  1.7720 -1.8060  1.0846
  623SOL    HW2 2491   0.364   0.054   1.665  0.5128 -0.3624 -3.6135
  623SOL     MW 2492   0.447   0.029   1.675  0.2204 -0.3770  0.2407
  624SOL     OW 2493   2.802   1.502   1.411 -0.0293 -0.1256 -0.2838
  624SOL    HW1 2494   2.820   1.463   1.497  0.7430  3.4927  1.3765
  624SOL    HW2 2495   2.712   1.535   1.419 -0.0364  0.0165 -0.9466
  624SOL     MW 2496   2.792   1.501   1.424  0.0724  0.3698 -0.1494
  625SOL     OW 2497   0.981   2.475   1.790 -0.0986 -0.2302 -0.2943
  625SOL    HW1 2498   1.052   2.509   1.737  0.3119 -0.5448  0.0491
  625SOL    HW2 2499   0.923   2.430   1.728  0.6517 -1.0589 -0.4067
  625SOL     MW 2500   0.983   2.474   1.775  0.0584 -0.3715 -0.2643
  626SOL     OW 2501   2.621   0.043   2.578 -0.1222  0.4406 -0.4293
  626SOL    HW1 2502   2.594   0.122   2.624  1.8247  1.1602 -0.4139
  626SOL    HW2 2503   2.582   0.050   2.491 -2.0666  0.1174  0.3816
  626SOL     MW 2504   2.612   0.054   2.573 -0.1256  0.4907 -0.3276
  627SOL     OW 2505   0.866   0.772   0.554 -0.0627 -0.0443 -0.0311
  627SOL    HW1 2506   0.876   0.681   0.527 -0.3323  0.0578 -0.4831
  627SOL    HW2 2507   0.901   0.823   0.482 -0.5845  0.2240 -0.1045
  627SOL     MW 2508   0.872   0.766   0.541 -0.1652  0.0052 -0.0956
  628SOL     OW 2509   1.442   2.387   0.579  0.0973  0.6245  0.3492
  628SOL    HW1 2510   1.394   2.464   0.550 -1.0897 -0.0815  0.3540
  628SOL    HW2 2511   1.383   2.313   0.559  1.5075 -0.3564 -0.3702
  628SOL     MW 2512   1.428   2.387   0.573  0.1196  0.4014  0.2610
  629SOL     OW 2513   0.266   3.034   1.112  0.3016 -0.5715 -0.4441
  629SOL    HW1 2514   0.325   2.990   1.173  0.4358  0.3856  0.1376
  629SOL    HW2 2515   0.227   2.964   1.061  1.2615 -1.2875 -0.2173
  629SOL     MW 2516   0.269   3.019   1.113  0.4400 -0.5352 -0.3363
  630SOL     OW 2517   0.600   0.135   1.228 -0.2168  0.0294  0.3913
  630SOL    HW1 2518   0.677   0.187   1.208  0.1199  0.2233  2.0071
  630SOL    HW2 2519   0.526   0.195   1.215  0.0854  0.5496  1.0111
  630SOL     MW 2520   0.600   0.150   1.224 -0.1360  0.1230  0.6956
  631SOL     OW 2521   0.469   0.867   0.607  0.1487 -0.5022  0.3987
  631SOL    HW1 2522   0.428   0.784   0.631 -0.5355 -0.4300 -0.4585
  631SOL    HW2 2523   0.403   0.933   0.627 -0.7618 -0.4922 -2.1861
  631SOL     MW 2524   0.455   0.865   0.613 -0.0623 -0.4956 -0.0461
  632SOL     OW 2525   2.448   0.234   0.116 -0.4208  0.8294  0.3151
  632SOL    HW1 2526   2.529   0.258   0.160  0.8522 -0.9084 -0.9679
  632SOL    HW2 2527   2.412   0.163   0.168 -0.6515  0.9923  0.3793
  632SOL     MW 2528   2.454   0.228   0.129 -0.2750  0.6213  0.1512
  633SOL     OW 2529   2.906   0.640   0.483 -0.2868  0.1283 -0.4608
  633SOL    HW1 2530   2.906   0.625   0.389  0.2772  0.2426 -0.4891
  633SOL    HW2 2531   2.851   0.717   0.495  1.4985  1.5656 -0.9843
  633SOL     MW 2532   2.899   0.648   0.472  0.0297  0.3428 -0.5343
  634SOL     OW 2533   0.417   0.416   1.585  1.1043 -0.7485 -0.1852
  634SOL    HW1 2534   0.419   0.420   1.489 -0.3197 -0.9641 -0.2441
  634SOL    HW2 2535   0.507   0.435   1.612  1.2047  0.8173 -1.4939
  634SOL     MW 2536   0.430   0.419   1.576  0.9247 -0.5763 -0.3678
  635SOL     OW 2537   2.841   1.463   0.435 -0.3271  0.5335 -0.1498
  635SOL    HW1 2538   2.765   1.483   0.382 -0.1541 -0.2787 -0.7267
  635SOL    HW2 2539   2.874   1.380   0.400 -1.7891 -1.5208  2.9364
  635SOL     MW 2540   2.835   1.455   0.424 -0.4946  0.1557  0.1811
  636SOL     OW 2541   2.965   1.736   2.733 -0.4950  0.0989  0.2452
  636SOL    HW1 2542   2.969   1.665   2.797  1.2606 -0.1439 -0.0715
  636SOL    HW2 2543   3.050   1.780   2.741 -1.4290  2.0103  0.2402
  636SOL     MW 2544   2.977   1.732   2.743 -0.3887  0.3184  0.2018
  637SOL     OW 2545   3.000   1.741   0.522  0.4966 -0.4473 -0.0688
  637SOL    HW1 2546   3.012   1.729   0.428  0.9439 -1.1266  0.0613
  637SOL    HW2 2547   2.919   1.791   0.531  0.6362 -0.0864 -0.8246
  637SOL     MW 2548   2.991   1.746   0.511  0.5784 -0.4944 -0.1626
  638SOL     OW 2549   0.422   1.438   2.809 -0.5893 -0.1329 -0.4251
  638SOL    HW1 2550   0.379   1.361   2.773 -0.1458 -0.9745  0.7790
  638SOL    HW2 2551   0.501   1.449   2.757  1.0136 -2.4455  1.3242
  638SOL     MW 2552   0.427   1.429   2.798 -0.3118 -0.5516 -0.0323
  639SOL     OW 2553   0.156   0.063   1.995 -0.5613  0.0941  0.0738
  639SOL    HW1 2554   0.225   0.069   2.060  0.7664 -2.4550 -0.9353
  639SOL    HW2 2555   0.075   0.072   2.045  0.4511  1.2295  1.5875
  639SOL     MW 2556   0.154   0.065   2.010 -0.2573 -0.1016  0.1394
  640SOL     OW 2557   2.737   2.911   2.145  0.1074 -0.3273 -0.0604
  640SOL    HW1 2558   2.780   2.996   2.133 -0.5821  0.1974  1.0411
  640SOL    HW2 2559   2.800   2.859   2.194 -0.2300  0.2255  0.9861
  640SOL     MW 2560   2.751   2.915   2.150 -0.0254 -0.1869  0.2208
  641SOL     OW 2561   2.034   2.547   1.349 -0.0246 -0.1440  0.1727
  641SOL    HW1 2562   1.980   2.533   1.427 -2.0472  2.3994 -0.6436
  641SOL    HW2 2563   1.989   2.499   1.279 -2.6813  3.5336 -0.9588
  641SOL     MW 2564   2.021   2.539   1.350 -0.6444  0.6797 -0.0871
  642SOL     OW 2565   2.267   0.672   2.238 -0.1413  0.4686  0.3160
  642SOL    HW1 2566   2.334   0.734   2.212 -1.3871  1.9320  0.4708
  642SOL    HW2 2567   2.306   0.623   2.310  1.4696 -0.1289 -0.8897
  642SOL     MW 2568   2.281   0.673   2.244 -0.0916  0.5808  0.1742
  643SOL     OW 2569   0.570   2.281   0.746 -0.1884  0.7999  0.4582
  643SOL    HW1 2570   0.505   2.241   0.688  0.8346 -1.6671  0.9305
  643SOL    HW2 2571   0.640   2.309   0.687  0.6541 -1.3126  0.3973
  643SOL     MW 2572   0.570   2.280   0.730  0.0590  0.1950  0.5071
  644SOL     OW 2573   0.357   0.447   2.926 -0.0748 -0.5232  0.0091
  644SOL    HW1 2574   0.307   0.431   3.006  0.1257 -0.0498  0.2297
  644SOL    HW2 2575   0.416   0.372   2.920 -0.0623 -0.5395  0.3213
  644SOL     MW 2576   0.358   0.435   2.936 -0.0448 -0.4608  0.0784
  645SOL     OW 2577   1.527   1.792   0.085  0.0450  0.0201  0.0225
  645SOL    HW1 2578   1.533   1.781   0.180  1.6046 -1.2453 -0.1780
  645SOL    HW2 2579   1.600   1.741   0.050 -0.7782  0.0675 -1.8977
  645SOL     MW 2580   1.538   1.784   0.093  0.1395 -0.1405 -0.2651
  646SOL     OW 2581   1.514   2.028   1.699  0.0336  0.0961 -0.4044
  646SOL    HW1 2582   1.597   1.998   1.663 -0.7231 -0.1000 -2.1422
  646SOL    HW2 2583   1.450   2.006   1.631 -1.1555  1.9715  0.0160
  646SOL     MW 2584   1.516   2.021   1.685 -0.2218  0.3263 -0.5770
  647SOL     OW 2585   0.302   2.615   1.346  0.1435  0.7869  0.3087
  647SOL    HW1 2586   0.361   2.557   1.298 -0.1210  0.0272  0.8714
  647SOL    HW2 2587   0.219   2.566   1.350 -0.2855  1.4960  0.2172
  647SOL     MW 2588   0.299   2.601   1.340  0.0454  0.7842  0.3780
  648SOL     OW 2589   0.151   1.739   2.168  0.1237  0.4635  0.2762
  648SOL    HW1 2590   0.101   1.757   2.088  2.0296 -0.5056 -1.2289
  648SOL    HW2 2591   0.172   1.825   2.203 -0.6798  0.9106 -0.3111
  648SOL     MW 2592   0.147   1.752   2.162  0.2637  0.3916  0.0005
  649SOL     OW 2593   0.936   0.400   2.200 -0.2613 -0.1056  0.8905
  649SOL    HW1 2594   0.959   0.345   2.274 -0.2999  0.0034  0.9851
  649SOL    HW2 2595   0.932   0.489   2.237  2.4440  0.3856  0.2116
  649SOL     MW 2596   0.938   0.405   2.215  0.0935 -0.0186  0.8106
  650SOL     OW 2597   2.473   1.132   1.614  0.3730  0.7094  0.2853
  650SOL    HW1 2598   2.416   1.173   1.680 -0.7778 -0.0190 -0.2241
  650SOL    HW2 2599   2.429   1.050   1.592  0.4674  1.1775 -1.7843
  650SOL     MW 2600   2.460   1.126   1.620  0.2298  0.6698 -0.0648
  651SOL     OW 2601   0.173   2.771   1.024  0.1736  0.2770 -0.0601
  651SOL    HW1 2602   0.159   2.811   0.938 -1.3720  1.7427  0.8153
  651SOL    HW2 2603   0.262   2.736   1.020 -0.7109 -2.0534 -3.1371
  651SOL     MW 2604   0.183   2.772   1.012 -0.1542  0.1705 -0.3524
  652SOL     OW 2605   1.936   2.829   0.815  0.5895  0.0265 -0.4662
  652SOL    HW1 2606   1.939   2.789   0.901  1.7373  3.1904  1.1027
  652SOL    HW2 2607   1.842   2.844   0.799  0.4112  0.1245  0.6162
  652SOL     MW 2608   1.924   2.826   0.824  0.7141  0.4481 -0.1169
  653SOL     OW 2609   0.110   1.081   2.246 -0.2600 -0.1045 -0.5426
  653SOL    HW1 2610   0.030   1.065   2.196  2.2772 -1.1997 -4.7882
  653SOL    HW2 2611   0.148   1.159   2.206  0.5505  0.8218  1.8470
  653SOL     MW 2612   0.104   1.089   2.234  0.1832 -0.1328 -0.7893
  654SOL     OW 2613   1.770   2.476   0.543 -0.1939  0.0118 -0.6012
  654SOL    HW1 2614   1.742   2.397   0.589  1.5023 -0.1024  0.3266
  654SOL    HW2 2615   1.832   2.517   0.603 -0.8902  1.9534 -1.1558
  654SOL     MW 2616   1.774   2.471   0.557 -0.0532  0.2493 -0.5546
  655SOL     OW 2617   1.239   1.989   0.990 -0.3214  0.6440  0.0562
  655SOL    HW1 2618   1.302   1.949   0.930 -1.0597  1.3571 -1.2468
  655SOL    HW2 2619   1.153   1.973   0.950 -0.9186  0.4503  1.3406
  655SOL     MW 2620   1.236   1.982   0.977 -0.5053  0.7206  0.0514
  656SOL     OW 2621   1.244   0.979   1.505  0.8478  0.0103 -0.8309
  656SOL    HW1 2622   1.180   1.049   1.497  0.8297  0.8836  4.2158
  656SOL    HW2 2623   1.191   0.899   1.515  0.6246  0.2482 -0.0648
  656SOL     MW 2624   1.229   0.977   1.505  0.8098  0.1532 -0.0718
  657SOL     OW 2625   0.352   2.320   0.937  0.2181  0.1794 -0.5403
  657SOL    HW1 2626   0.435   2.317   0.888 -1.1680 -0.5201 -2.9699
  657SOL    HW2 2627   0.298   2.382   0.889 -0.8315  0.3811  0.8326
  657SOL     MW 2628   0.356   2.328   0.924 -0.0964  0.1150 -0.6842
  658SOL     OW 2629   1.736   2.723   0.100 -0.0642  0.2788  0.2964
  658SOL    HW1 2630   1.687   2.720   0.019  0.2225  1.0428  0.0833
  658SOL    HW2 2631   1.826   2.742   0.073  0.0570  0.4145  0.7819
  658SOL     MW 2632   1.742   2.725   0.086 -0.0088  0.3964  0.3267
  659SOL     OW 2633   1.356   0.340   1.342 -0.3563  0.2341 -0.5475
  659SOL    HW1 2634   1.302   0.298   1.409 -0.5264  1.6543  0.2576
  659SOL    HW2 2635   1.428   0.279   1.326 -1.1461 -0.8152 -0.2096
  659SOL     MW 2636   1.358   0.327   1.348 -0.4853  0.2846 -0.3966
  660SOL     OW 2637   1.036   0.440   1.390 -0.0967  0.3050  0.5675
  660SOL    HW1 2638   1.059   0.531   1.411 -1.7639  0.5989  1.2714
  660SOL    HW2 2639   1.072   0.427   1.302  2.1940  0.8527  1.3389
  660SOL     MW 2640   1.044   0.450   1.381 -0.0100  0.4051  0.7577
  661SOL     OW 2641   0.115   1.119   0.287  0.5888 -0.5531 -0.5772
  661SOL    HW1 2642   0.039   1.176   0.274  1.6998  0.7094 -1.9331
  661SOL    HW2 2643   0.173   1.169   0.344  0.2241 -1.7348  0.8987
  661SOL     MW 2644   0.112   1.133   0.293  0.6833 -0.5465 -0.5563
  662SOL     OW 2645   0.456   0.210   2.582  0.0481  0.3563  0.2407
  662SOL    HW1 2646   0.457   0.117   2.559  1.0102  0.4624 -0.1985
  662SOL    HW2 2647   0.534   0.246   2.540 -0.1792  1.3177  0.6118
  662SOL     MW 2648   0.466   0.203   2.573  0.1434  0.4917  0.2320
  663SOL     OW 2649   2.655   2.957   1.886  0.0216  0.2271 -0.0916
  663SOL    HW1 2650   2.731   2.936   1.832  0.2249 -0.7091  0.5386
  663SOL    HW2 2651   2.675   2.918   1.971 -1.5653 -0.8630 -0.1817
  663SOL     MW 2652   2.668   2.949   1.890 -0.1565 -0.0443 -0.0146
  664SOL     OW 2653   1.125   0.625   0.335  0.2257  0.2410 -0.0140
  664SOL    HW1 2654   1.133   0.709   0.289  1.3939  0.2544  0.1878
  664SOL    HW2 2655   1.184   0.634   0.410  0.2476 -0.7153  0.0861
  664SOL     MW 2656   1.134   0.637   0.339  0.3868  0.1097  0.0194
  665SOL     OW 2657   2.752   2.375   0.243 -0.4445 -0.4365  0.2812
  665SOL    HW1 2658   2.751   2.325   0.324 -0.2090 -2.0591 -0.6633
  665SOL    HW2 2659   2.661   2.375   0.213 -0.9152  1.8637  1.4739
  665SOL     MW 2660   2.740   2.368   0.250 -0.4663 -0.3455  0.3146
  666SOL     OW 2661   2.658   1.436   0.996  0.0074  0.2033 -0.6204
  666SOL    HW1 2662   2.574   1.393   1.008  0.4721 -0.6102 -0.2125
  666SOL    HW2 2663   2.719   1.366   0.973  0.6469  0.7265 -0.5695
  666SOL     MW 2664   2.655   1.421   0.995  0.1581  0.1631 -0.5606
  667SOL     OW 2665   1.206   2.268   2.318  0.3466  0.1557 -0.6385
  667SOL    HW1 2666   1.113   2.273   2.340  0.4167 -2.7896  0.7893
  667SOL    HW2 2667   1.229   2.357   2.292 -2.7561  1.0712 -0.6753
  667SOL     MW 2668   1.196   2.280   2.318 -0.0522 -0.1137 -0.4497
  668SOL     OW 2669   0.364   2.512   1.623  0.0340  0.4822  0.5241
  668SOL    HW1 2670   0.377   2.440   1.561 -1.0429  0.3532  0.4268
  668SOL    HW2 2671   0.345   2.588   1.568  1.8224  1.0202  0.5966
  668SOL     MW 2672   0.363   2.513   1.607  0.1240  0.5345  0.5231
  669SOL     OW 2673   1.703   1.272   0.310  0.2077 -0.0663 -0.4943
  669SOL    HW1 2674   1.662   1.358   0.304  2.7406  1.2125 -0.6640
  669SOL    HW2 2675   1.734   1.254   0.221  0.8934 -0.5226 -0.1672
  669SOL     MW 2676   1.702   1.281   0.297  0.6245  0.0373 -0.4732
  670SOL     OW 2677   0.406   1.898   1.964  0.2939 -0.0163 -0.3284
  670SOL    HW1 2678   0.401   1.865   1.874  0.2118 -0.6261 -0.1018
  670SOL    HW2 2679   0.437   1.824   2.015  2.1660  0.8255 -0.1363
  670SOL     MW 2680   0.410   1.884   1.959  0.5232  0.0200 -0.2648
  671SOL     OW 2681   2.835   1.030   2.204  0.0850 -0.1670  0.8670
  671SOL    HW1 2682   2.827   1.126   2.207 -0.6573 -0.2181  0.6725
  671SOL    HW2 2683   2.842   1.010   2.111  0.7806 -0.2678  0.9365
  671SOL     MW 2684   2.835   1.040   2.192  0.0659 -0.1939  0.8460
  672SOL     OW 2685   0.747   0.003   0.540 -0.8785 -0.2113 -0.1065
  672SOL    HW1 2686   0.685   0.029   0.609 -1.3330 -0.6953 -0.3273
  672SOL    HW2 2687   0.830   0.043   0.567 -1.1902  0.1137  0.4022
  672SOL     MW 2688   0.750   0.012   0.553 -0.9741 -0.2345 -0.0707
  673SOL     OW 2689   1.425   2.920   2.471 -0.4090  0.2292 -0.2509
  673SOL    HW1 2690   1.456   2.851   2.529  0.1806  1.2238  0.6485
  673SOL    HW2 2691   1.488   2.991   2.481 -0.8745  0.8214 -1.3237
  673SOL     MW 2692   1.437   2.920   2.480 -0.3943  0.4358 -0.2677
  674SOL     OW 2693   1.607   0.355   2.068  0.0747 -0.2910 -0.6534
  674SOL    HW1 2694   1.678   0.332   2.127  0.2587  1.1553 -0.2679
  674SOL    HW2 2695   1.535   0.297   2.094  0.8685 -1.2601 -0.5598
  674SOL     MW 2696   1.607   0.345   2.079  0.2000 -0.2308 -0.5922
  675SOL     OW 2697   1.656   1.974   1.168 -0.6242 -0.2885  0.2208
  675SOL    HW1 2698   1.671   1.922   1.247 -0.7335  0.6908  0.9159
  675SOL    HW2 2699   1.596   1.921   1.115 -1.3354 -0.5519  1.2423
  675SOL     MW 2700   1.650   1.960   1.172 -0.7294 -0.1901  0.4497
  676SOL     OW 2701   2.516   1.918   2.073 -0.1850  0.2404  0.6353
  676SOL    HW1 2702   2.553   1.974   2.005 -1.1209 -0.6467 -0.6490
  676SOL    HW2 2703   2.548   1.956   2.155  2.3587  0.3526 -0.3294
  676SOL     MW 2704   2.525   1.931   2.075  0.0240  0.1388  0.3315
  677SOL     OW 2705   1.534   1.752   1.022  0.3793  0.1154  0.0577
  677SOL    HW1 2706   1.478   1.707   1.086  1.1587  0.5730  1.1004
  677SOL    HW2 2707   1.473   1.786   0.957 -0.3870 -0.8593  0.2475
  677SOL     MW 2708   1.518   1.751   1.022  0.3790  0.0524  0.2207
  678SOL     OW 2709   0.938   0.692   2.962 -0.3751 -0.2148  0.1328
  678SOL    HW1 2710   0.849   0.659   2.978 -1.0481  1.1460 -0.6372
  678SOL    HW2 2711   0.927   0.758   2.894  1.1593  0.3770  0.4264
  678SOL     MW 2712   0.924   0.696   2.955 -0.2591  0.0357  0.0650
  679SOL     OW 2713   2.836   2.166   1.518 -0.2146 -0.0032  0.4104
  679SOL    HW1 2714   2.907   2.160   1.455  0.1917  0.5891  0.8073
  679SOL    HW2 2715   2.759   2.190   1.466  0.6243  3.0768  0.4144
  679SOL     MW 2716   2.835   2.168   1.503 -0.0449  0.4802  0.4613
  680SOL     OW 2717   0.330   1.449   0.422 -0.5923  0.2865 -0.0079
  680SOL    HW1 2718   0.362   1.359   0.430 -1.0682  0.1987  1.0695
  680SOL    HW2 2719   0.333   1.466   0.328 -1.8221 -1.3685 -0.4077
  680SOL     MW 2720   0.334   1.439   0.410 -0.8179  0.0556  0.0838
  681SOL     OW 2721   2.399   2.890   1.812  0.1431  0.0662  0.1965
  681SOL    HW1 2722   2.486   2.930   1.817 -0.0721  0.5593  0.0535
  681SOL    HW2 2723   2.338   2.959   1.837 -0.1494 -0.5753  1.3228
  681SOL     MW 2724   2.402   2.904   1.816  0.0832  0.0405  0.3219
  682SOL     OW 2725   2.129   2.870   0.610  0.0248  0.1043 -0.2776
  682SOL    HW1 2726   2.068   2.881   0.683 -0.7586  0.2075 -0.9390
  682SOL    HW2 2727   2.082   2.904   0.533  0.1844 -1.5626 -1.1473
  682SOL     MW 2728   2.115   2.876   0.609 -0.0587 -0.0927 -0.4821
  683SOL     OW 2729   0.720   1.212   1.042 -0.2521 -0.0377 -0.5782
  683SOL    HW1 2730   0.699   1.200   0.949 -0.9937  0.4373 -0.4858
  683SOL    HW2 2731   0.711   1.307   1.056 -0.7819 -0.1835  0.1167
  683SOL     MW 2732   0.716   1.223   1.031 -0.4154  0.0068 -0.4701
  684SOL     OW 2733   2.493   2.138   2.699 -0.2643 -0.1506  0.0712
  684SOL    HW1 2734   2.563   2.187   2.740 -1.1767  0.4473  0.9502
  684SOL    HW2 2735   2.417   2.196   2.703 -0.8289 -0.7986 -0.8228
  684SOL     MW 2736   2.492   2.152   2.705 -0.4644 -0.1607  0.0583
  685SOL     OW 2737   0.289   1.581   1.041 -0.0883 -0.4387  0.9794
  685SOL    HW1 2738   0.313   1.590   0.949 -1.7084 -1.3688  0.4300
  685SOL    HW2 2739   0.198   1.610   1.046 -1.8135 -5.0113  1.1963
  685SOL     MW 2740   0.280   1.586   1.029 -0.5350 -1.1584  0.9338
  686SOL     OW 2741   0.063   2.151   1.761  0.4765 -0.6007  0.7628
  686SOL    HW1 2742  -0.000   2.134   1.692  0.4000  1.3870  0.3060
  686SOL    HW2 2743   0.067   2.069   1.810 -2.9386 -0.6169  1.2166
  686SOL     MW 2744   0.055   2.138   1.758  0.0230 -0.3341  0.7580
  687SOL     OW 2745   2.071   0.060   1.316  0.0739 -0.4687  0.1849
  687SOL    HW1 2746   2.074   0.025   1.405  1.6885 -1.7939 -0.3380
  687SOL    HW2 2747   2.084   0.154   1.326  0.2860 -0.6095  1.3332
  687SOL     MW 2748   2.073   0.067   1.329  0.3130 -0.6607  0.2578
  688SOL     OW 2749   1.516   1.758   0.357 -0.3548 -0.1786 -0.3308
  688SOL    HW1 2750   1.569   1.679   0.361 -0.6542 -0.3943 -0.5707
  688SOL    HW2 2751   1.435   1.736   0.403  0.2978  0.5944  1.2652
  688SOL     MW 2752   1.512   1.745   0.363 -0.3046 -0.1112 -0.1546
  689SOL     OW 2753   2.634   2.293   1.374  0.1397  0.5088  0.0446
  689SOL    HW1 2754   2.680   2.357   1.429  0.4393  2.1807 -2.0506
  689SOL    HW2 2755   2.542   2.305   1.395  0.3380 -0.5393  1.8212
  689SOL     MW 2756   2.628   2.303   1.384  0.2058  0.5882 -0.0017
  690SOL     OW 2757   1.500   0.335   2.434  0.1795 -0.7564  0.6065
  690SOL    HW1 2758   1.423   0.335   2.376 -0.1712 -0.7879  1.0611
  690SOL    HW2 2759   1.507   0.426   2.464  1.8711 -0.1375 -1.4216
  690SOL     MW 2760   1.490   0.347   2.430  0.3574 -0.6843  0.4041
  691SOL     OW 2761   2.623   2.840   0.209 -0.5181 -0.5883  0.2725
  691SOL    HW1 2762   2.571   2.760   0.210 -0.8601 -0.3660  1.3176
  691SOL    HW2 2763   2.648   2.854   0.300 -0.1700  0.3055  0.0537
  691SOL     MW 2764   2.620   2.831   0.221 -0.5114 -0.4388  0.3857
  692SOL     OW 2765   1.349   0.712   2.322  0.4434  0.3029  0.0949
  692SOL    HW1 2766   1.365   0.761   2.242  0.9668 -0.3617 -0.2078
  692SOL    HW2 2767   1.327   0.780   2.387  0.0070  0.8402 -0.5951
  692SOL     MW 2768   1.348   0.728   2.320  0.4574  0.2820 -0.0358
  693SOL     OW 2769   1.186   2.580   1.612  0.1378  0.3647 -0.4610
  693SOL    HW1 2770   1.230   2.540   1.687 -1.9583  0.3283  0.8278
  693SOL    HW2 2771   1.177   2.672   1.636  1.1538  0.7634 -1.5448
  693SOL     MW 2772   1.190   2.587   1.625 -0.0032  0.4129 -0.4315
  694SOL     OW 2773   2.810   0.101   0.399 -0.2371 -0.2352 -0.3176
  694SOL    HW1 2774   2.763   0.041   0.457  1.3967 -0.7784  0.5279
  694SOL    HW2 2775   2.821   0.180   0.450 -3.2704  1.2967 -1.7844
  694SOL     MW 2776   2.805   0.103   0.413 -0.4215 -0.1087 -0.3993
  695SOL     OW 2777   1.615   2.285   0.391 -0.7105  0.2114  0.4932
  695SOL    HW1 2778   1.551   2.312   0.456  0.3786 -0.2242  1.7978
  695SOL    HW2 2779   1.611   2.189   0.391 -1.6312  0.2171 -1.0778
  695SOL     MW 2780   1.606   2.276   0.399 -0.6714  0.1558  0.4606
  696SOL     OW 2781   1.038   2.756   0.384  0.0365  0.4463  0.0787
  696SOL    HW1 2782   1.052   2.713   0.299  1.8141 -0.5246  0.8178
  696SOL    HW2 2783   1.064   2.847   0.369 -0.4645  0.4908 -0.6115
  696SOL     MW 2784   1.043   2.762   0.371  0.2086  0.3210  0.0884
  697SOL     OW 2785   1.840   2.261   1.876  0.3167 -0.2947 -0.0599
  697SOL    HW1 2786   1.843   2.181   1.929  0.4514 -0.0174  0.3563
  697SOL    HW2 2787   1.747   2.279   1.865  0.2589  0.6626  1.6565
  697SOL     MW 2788   1.828   2.252   1.882  0.3309 -0.1316  0.2140
  698SOL     OW 2789   1.798   2.913   0.509  0.3128  0.1848 -0.0992
  698SOL    HW1 2790   1.843   2.997   0.506 -1.4133  1.1554 -0.8679
  698SOL    HW2 2791   1.776   2.900   0.601  0.7099  0.5040  0.0432
  698SOL     MW 2792   1.801   2.922   0.521  0.1342  0.3523 -0.1865
  699SOL     OW 2793   1.704   2.432   0.161  0.5133  0.5308 -0.7643
  699SOL    HW1 2794   1.699   2.414   0.255  0.1615 -1.1168 -1.0682
  699SOL    HW2 2795   1.711   2.527   0.155  0.5004  0.6632  0.9249
  699SOL     MW 2796   1.704   2.442   0.173  0.4582  0.3310 -0.5845
  700SOL     OW 2797   0.757   2.483   2.229  0.5381  0.3165  0.1161
  700SOL    HW1 2798   0.661   2.486   2.234  0.4156  0.6036 -1.8340
  700SOL    HW2 2799   0.776   2.488   2.136  2.4575 -0.1514  0.4532
  700SOL     MW 2800   0.747   2.484   2.217  0.7813  0.2882 -0.0933
  701SOL     OW 2801   2.030   0.993   2.004  0.1743 -0.0489  0.7122
  701SOL    HW1 2802   2.029   0.898   1.991 -0.3076  0.0046  0.3649
  701SOL    HW2 2803   1.945   1.023   1.974 -0.2825  0.3095  2.2423
  701SOL     MW 2804   2.019   0.984   1.998  0.0410  0.0021  0.8742
  702SOL     OW 2805   0.763   0.709   2.060  0.5740 -0.1503 -0.0981
  702SOL    HW1 2806   0.744   0.711   2.154  1.2616  0.3434  0.0447
  702SOL    HW2 2807   0.701   0.646   2.024  0.3261 -0.3765  0.6951
  702SOL     MW 2808   0.752   0.701   2.068  0.6338 -0.1218  0.0231
  703SOL     OW 2809   0.234   1.372   2.406  0.2514  0.0437  0.5014
  703SOL    HW1 2810   0.212   1.330   2.489 -0.6821  1.5498  1.0492
  703SOL    HW2 2811   0.312   1.325   2.376 -0.5252 -1.8281  1.2357
  703SOL     MW 2812   0.241   1.360   2.413  0.0258 -0.0072  0.6748
  704SOL     OW 2813   0.174   1.145   1.460  0.8960  0.5183 -0.1984
  704SOL    HW1 2814   0.222   1.227   1.447  1.1439  0.2891 -0.7441
  704SOL    HW2 2815   0.172   1.104   1.374 -1.1085  0.9581 -0.4044
  704SOL     MW 2816   0.180   1.150   1.447  0.6637  0.5465 -0.2931
  705SOL     OW 2817   2.820   2.255   2.236  0.4084 -0.7644 -0.1613
  705SOL    HW1 2818   2.806   2.272   2.329  1.0862 -0.3477 -0.1274
  705SOL    HW2 2819   2.757   2.311   2.191  0.1849 -0.8520  0.0405
  705SOL     MW 2820   2.810   2.265   2.243  0.4637 -0.7181 -0.1322
  706SOL     OW 2821   2.813   1.717   1.692  0.0347  0.3777  0.3325
  706SOL    HW1 2822   2.721   1.694   1.708 -0.4696  1.5435 -0.6386
  706SOL    HW2 2823   2.828   1.689   1.601  0.5178  0.5554  0.3586
  706SOL     MW 2824   2.803   1.710   1.682  0.0309  0.5522  0.2054
  707SOL     OW 2825   2.513   1.364   0.625 -0.5003 -0.2542 -0.4167
  707SOL    HW1 2826   2.597   1.345   0.666 -0.0924 -0.4140 -1.2901
  707SOL    HW2 2827   2.510   1.459   0.619 -0.4727 -0.2399 -0.1935
  707SOL     MW 2828   2.524   1.374   0.629 -0.4445 -0.2720 -0.4997
  708SOL     OW 2829   0.555   0.931   2.385 -0.3477 -0.3399  0.0744
  708SOL    HW1 2830   0.480   0.951   2.330 -0.0070  0.4375 -0.1187
  708SOL    HW2 2831   0.565   0.836   2.379 -2.2106 -0.6626  1.2680
  708SOL     MW 2832   0.547   0.921   2.377 -0.5596 -0.2852  0.2112
  709SOL     OW 2833   1.755   1.850   2.371 -0.8711 -0.2767 -0.5014
  709SOL    HW1 2834   1.771   1.916   2.439 -3.1640 -0.8537  0.6983
  709SOL    HW2 2835   1.815   1.874   2.300 -0.2221  1.8948  0.6860
  709SOL     MW 2836   1.765   1.862   2.370 -1.0903 -0.0700 -0.1843
  710SOL     OW 2837   1.275   0.824   2.773  0.0240  0.3416  0.2100
  710SOL    HW1 2838   1.256   0.859   2.686  2.4212 -0.6497 -0.7912
  710SOL    HW2 2839   1.201   0.766   2.793 -1.1323  1.4941 -0.6069
  710SOL     MW 2840   1.263   0.821   2.764  0.1897  0.3600 -0.0328
  711SOL     OW 2841   0.344   2.098   1.652  0.1566  0.4799 -0.1218
  711SOL    HW1 2842   0.393   2.121   1.731 -0.3487 -1.6695  0.8780
  711SOL    HW2 2843   0.255   2.128   1.669  0.1161  0.2971 -0.0159
  711SOL     MW 2844   0.339   2.105   1.664  0.0699  0.1725  0.0230
  712SOL     OW 2845   0.900   1.637   1.873 -0.1231 -0.9632  0.0991
  712SOL    HW1 2846   0.995   1.637   1.875 -0.1331 -1.6207  0.6997
  712SOL    HW2 2847   0.877   1.577   1.802 -0.0933 -0.8658  0.0068
  712SOL     MW 2848   0.909   1.629   1.864 -0.1222 -1.0356  0.1689
  713SOL     OW 2849   1.308   0.549   0.141 -0.0377 -0.3379 -0.4449
  713SOL    HW1 2850   1.247   0.568   0.213  0.1040  2.0861 -0.8810
  713SOL    HW2 2851   1.394   0.576   0.175  0.3976 -1.2694 -0.7710
  713SOL     MW 2852   1.311   0.555   0.155  0.0415 -0.1512 -0.5400
  714SOL     OW 2853   1.104   1.385   0.792 -0.1498  0.2192  0.6479
  714SOL    HW1 2854   1.168   1.375   0.721  0.9210  1.2648  1.4142
  714SOL    HW2 2855   1.065   1.472   0.776 -0.1599  0.3040  1.1290
  714SOL     MW 2856   1.107   1.395   0.780 -0.0222  0.3667  0.8180
  715SOL     OW 2857   0.522   2.045   2.216  0.1564  0.4593 -0.2688
  715SOL    HW1 2858   0.584   1.992   2.166 -1.2347 -0.9122 -0.6031
  715SOL    HW2 2859   0.512   1.999   2.299 -0.5766  0.5481 -0.3052
  715SOL     MW 2860   0.529   2.032   2.220 -0.1236  0.2897 -0.3135
  716SOL     OW 2861   2.055   0.061   1.589 -0.7918 -0.0357 -0.1081
  716SOL    HW1 2862   2.035   0.004   1.663  0.4783  0.7809  0.9133
  716SOL    HW2 2863   2.128   0.116   1.620 -0.2575  0.3654 -1.9432
  716SOL     MW 2864   2.062   0.061   1.603 -0.5548  0.1224 -0.2198
  717SOL     OW 2865   0.056   2.538   2.218 -0.0497 -0.3562  0.1438
  717SOL    HW1 2866   0.081   2.569   2.131  0.4370  0.9483  0.7278
  717SOL    HW2 2867   0.050   2.617   2.271 -1.3897 -1.0345  1.0520
  717SOL     MW 2868   0.059   2.553   2.214 -0.1582 -0.2745  0.3318
  718SOL     OW 2869   1.840   0.822   1.346  0.2255  0.6864 -0.7077
  718SOL    HW1 2870   1.813   0.738   1.382  3.3455 -0.8556 -1.6425
  718SOL    HW2 2871   1.797   0.887   1.403 -0.6452 -1.5206  1.3275
  718SOL     MW 2872   1.830   0.820   1.358  0.5225  0.1940 -0.5596
  719SOL     OW 2873   2.549   1.650   0.657  0.7600  0.1112 -0.5782
  719SOL    HW1 2874   2.503   1.704   0.593 -0.3214  0.2030  0.2462
  719SOL    HW2 2875   2.629   1.699   0.678  1.4869 -0.2528 -2.3460
  719SOL     MW 2876   2.554   1.664   0.652  0.7142  0.0667 -0.7070
  720SOL     OW 2877   0.819   2.871   1.723  0.6747  0.5021  0.3760
  720SOL    HW1 2878   0.818   2.838   1.813 -2.5490  1.8476  0.9751
  720SOL    HW2 2879   0.818   2.966   1.732  3.2862  0.7676 -1.2148
  720SOL     MW 2880   0.819   2.879   1.736  0.6029  0.7159  0.2450
  721SOL     OW 2881   1.723   1.034   1.495 -0.0049  0.5137  0.2648
  721SOL    HW1 2882   1.634   1.026   1.461 -0.0886  1.2224  0.2993
  721SOL    HW2 2883   1.762   1.104   1.443  0.0889  1.1384  1.1588
  721SOL     MW 2884   1.717   1.042   1.484 -0.0103  0.6815  0.3819
  722SOL     OW 2885   2.359   1.698   1.329 -0.1341 -0.5088  0.0811
  722SOL    HW1 2886   2.435   1.650   1.362  0.3719 -1.1408 -1.8838
  722SOL    HW2 2887   2.395   1.763   1.269 -0.9091  1.5872  1.7701
  722SOL     MW 2888   2.373   1.700   1.325 -0.1664 -0.3183  0.0356
  723SOL     OW 2889   2.517   0.336   2.703 -0.2890 -0.5168 -0.0519
  723SOL    HW1 2890   2.583   0.397   2.669 -1.0965  1.4846  1.7490
  723SOL    HW2 2891   2.556   0.301   2.783 -0.6075 -0.9454 -0.0787
  723SOL     MW 2892   2.531   0.339   2.709 -0.4315 -0.3138  0.1854
  724SOL     OW 2893   2.347   2.595   1.156  0.0877 -0.2762  0.4234
  724SOL    HW1 2894   2.302   2.525   1.108  0.5497 -1.1556  1.2352
  724SOL    HW2 2895   2.280   2.631   1.214  0.3750 -1.5577  1.6012
  724SOL     MW 2896   2.332   2.590   1.157  0.1819 -0.5662  0.6838
  725SOL     OW 2897   2.390   0.481   2.945  0.0690  0.8263 -0.1671
  725SOL    HW1 2898   2.473   0.527   2.943 -0.0024  0.9612 -0.0502
  725SOL    HW2 2899   2.411   0.394   2.980  0.0371  1.1205  0.6012
  725SOL     MW 2900   2.403   0.475   2.949  0.0460  0.8815 -0.0427
  726SOL     OW 2901   2.846   1.173   1.015  0.1994  0.1463  0.7294
  726SOL    HW1 2902   2.936   1.197   0.991 -0.8699  1.9014 -2.1321
  726SOL    HW2 2903   2.816   1.118   0.942 -0.7455 -1.3335  2.1773
  726SOL     MW 2904   2.854   1.169   1.002 -0.0708  0.1854  0.5483
  727SOL     OW 2905   0.925   2.009   2.905  0.7601  0.3371 -0.3613
  727SOL    HW1 2906   0.986   2.033   2.835  2.5758 -1.6843  0.4117
  727SOL    HW2 2907   0.939   1.915   2.918 -0.8329  0.2884  1.4991
  727SOL     MW 2908   0.935   2.000   2.898  0.7899  0.0657 -0.0124
  728SOL     OW 2909   2.343   0.878   1.587 -0.1929 -0.3626 -0.3753
  728SOL    HW1 2910   2.356   0.816   1.515  1.2139 -0.7103  0.1495
  728SOL    HW2 2911   2.265   0.845   1.633 -0.0243 -1.1951 -0.6697
  728SOL     MW 2912   2.334   0.866   1.584  0.0174 -0.5178 -0.3381
  729SOL     OW 2913   1.656   1.415   1.738  0.1116 -0.2185 -0.7006
  729SOL    HW1 2914   1.696   1.328   1.731  0.2362 -0.4961  2.2550
  729SOL    HW2 2915   1.728   1.472   1.766 -0.6425  0.1175  0.6365
  729SOL     MW 2916   1.671   1.411   1.741  0.0265 -0.2049 -0.1331
  730SOL     OW 2917   0.090   2.164   2.171  0.2170  0.0083 -0.2139
  730SOL    HW1 2918   0.019   2.224   2.195 -0.7192 -1.2555  0.2607
  730SOL    HW2 2919   0.168   2.219   2.174 -0.4307  0.9260  1.4868
  730SOL     MW 2920   0.091   2.179   2.175  0.0139 -0.0354  0.0715
  731SOL     OW 2921  -0.008   0.160   1.764  0.0689 -0.3003 -0.6682
  731SOL    HW1 2922  -0.017   0.208   1.846 -0.2980  0.9596 -1.4210
  731SOL    HW2 2923   0.086   0.154   1.749  0.1306 -0.3618 -0.2611
  731SOL     MW 2924   0.003   0.165   1.773  0.0208 -0.1407 -0.7192
  732SOL     OW 2925   2.782   0.641   0.798  0.3709 -0.4544 -0.2761
  732SOL    HW1 2926   2.724   0.566   0.790  0.4523 -0.6599  0.8812
  732SOL    HW2 2927   2.754   0.685   0.879  0.8838  0.2681 -0.4745
  732SOL     MW 2928   2.771   0.637   0.808  0.4476 -0.3856 -0.1444
  733SOL     OW 2929   1.239   0.439   2.323  0.2547  0.1003 -0.3690
  733SOL    HW1 2930   1.258   0.531   2.339  0.8479 -0.1285  0.2686
  733SOL    HW2 2931   1.231   0.432   2.228 -0.0371  0.8536 -0.4042
  733SOL     MW 2932   1.240   0.450   2.313  0.3041  0.1707 -0.2888
  734SOL     OW 2933   2.447   0.928   0.936  0.0339  0.0291  0.0305
  734SOL    HW1 2934   2.401   0.997   0.889  1.1024  0.3335 -0.5994
  734SOL    HW2 2935   2.380   0.888   0.991 -0.7894  1.0029 -0.2317
  734SOL     MW 2936   2.432   0.932   0.937  0.0708  0.1951 -0.0916
  735SOL     OW 2937   2.283   0.661   0.198 -0.0206 -0.1687 -0.0914
  735SOL    HW1 2938   2.265   0.626   0.110  2.0062 -1.0183 -0.2312
  735SOL    HW2 2939   2.227   0.738   0.205  0.9999  0.9823 -2.8590
  735SOL     MW 2940   2.273   0.666   0.187  0.3862 -0.1331 -0.4779
  736SOL     OW 2941   1.121   0.846   1.953  0.2314  0.3148 -0.5857
  736SOL    HW1 2942   1.087   0.908   2.017  1.2947  1.1019 -0.7521
  736SOL    HW2 2943   1.071   0.766   1.968 -1.9042  1.5033 -1.0702
  736SOL     MW 2944   1.110   0.844   1.963  0.0854  0.5808 -0.6753
  737SOL     OW 2945   2.837   1.303   2.195  0.2967  0.2862  0.0398
  737SOL    HW1 2946   2.797   1.386   2.167  0.6505  0.7361  0.8051
  737SOL    HW2 2947   2.921   1.329   2.233  1.6855 -0.7074 -2.1870
  737SOL     MW 2948   2.843   1.318   2.197  0.5207  0.2147 -0.1590
  738SOL     OW 2949   1.872   0.605   2.864  0.6489 -0.3684  0.3210
  738SOL    HW1 2950   1.875   0.624   2.770 -0.0998  1.8505  0.6803
  738SOL    HW2 2951   1.964   0.604   2.891  0.8231  1.5043 -0.0436
  738SOL     MW 2952   1.884   0.607   2.855  0.5698  0.1667  0.3220
  739SOL     OW 2953   2.175   0.512   0.801  0.9725 -0.2268 -0.4644
  739SOL    HW1 2954   2.093   0.552   0.774  0.9003  1.1474  1.6039
  739SOL    HW2 2955   2.151   0.454   0.873  1.8299  0.4972  0.4354
  739SOL     MW 2956   2.161   0.510   0.807  1.0718  0.0541 -0.0638
  740SOL     OW 2957   0.053   0.891   1.292 -0.2821 -0.2671  0.0898
  740SOL    HW1 2958  -0.034   0.901   1.332 -0.4914 -1.7251  0.0483
  740SOL    HW2 2959   0.038   0.906   1.199  0.2463  3.3695  0.4477
  740SOL     MW 2960   0.039   0.894   1.285 -0.2341  0.0204  0.1351
  741SOL     OW 2961   1.712   0.044   0.236 -0.1510 -0.4695 -0.1001
  741SOL    HW1 2962   1.650   0.030   0.308 -0.3077 -1.9303 -0.4798
  741SOL    HW2 2963   1.773   0.111   0.268 -0.8425 -0.3421  0.9756
  741SOL     MW 2964   1.712   0.051   0.249 -0.2627 -0.6450 -0.0034
  742SOL     OW 2965   0.762   1.334   1.913  0.0259  0.0060 -0.4095
  742SOL    HW1 2966   0.707   1.408   1.886 -0.1484  0.2053  0.4743
  742SOL    HW2 2967   0.839   1.339   1.856 -1.2550 -0.8257 -2.3007
  742SOL     MW 2968   0.765   1.344   1.902 -0.1706 -0.0764 -0.5481
  743SOL     OW 2969   1.079   1.206   1.890 -0.6419  0.0806  0.2014
  743SOL    HW1 2970   1.124   1.286   1.916 -1.6502  0.5002  0.6968
  743SOL    HW2 2971   1.147   1.153   1.848  0.3084  0.6818  0.9435
  743SOL     MW 2972   1.094   1.210   1.888 -0.6562  0.2070  0.3797
  744SOL     OW 2973   0.360   2.265   2.179  0.7657  0.4214 -0.2307
  744SOL    HW1 2974   0.330   2.295   2.265 -0.7356 -0.3341 -0.4609
  744SOL    HW2 2975   0.428   2.200   2.198 -0.2258 -0.4500  0.4276
  744SOL     MW 2976   0.365   2.260   2.193  0.4357  0.1966 -0.1732
  745SOL     OW 2977   1.885   2.629   2.341 -0.2666  0.4182  0.3699
  745SOL    HW1 2978   1.852   2.708   2.386  1.0251  1.5646 -0.5994
  745SOL    HW2 2979   1.967   2.609   2.386  0.8069  1.3059 -1.0701
  745SOL     MW 2980   1.892   2.637   2.353  0.0409  0.6912  0.0399
  746SOL     OW 2981   1.937   2.332   1.160 -0.1324 -0.6232  0.2766
  746SOL    HW1 2982   2.023   2.316   1.198 -0.3370 -0.0544  1.0034
  746SOL    HW2 2983   1.950   2.408   1.102  0.0566 -1.1399 -0.3710
  746SOL     MW 2984   1.950   2.340   1.157 -0.1386 -0.6132  0.2928
  747SOL     OW 2985   0.557   2.010   1.437 -0.0125  0.7055  0.2983
  747SOL    HW1 2986   0.595   2.097   1.425  2.0635 -0.2792 -0.6827
  747SOL    HW2 2987   0.508   1.994   1.356 -2.0712  1.6779  1.2681
  747SOL     MW 2988   0.555   2.020   1.424 -0.0111  0.7067  0.3023
  748SOL     OW 2989   1.022   1.073   2.586 -0.8162 -0.3510 -0.2688
  748SOL    HW1 2990   1.005   1.080   2.492 -2.0196 -0.0280 -0.0496
  748SOL    HW2 2991   1.081   1.146   2.605  1.9953 -2.2092 -1.2664
  748SOL     MW 2992   1.028   1.084   2.576 -0.6093 -0.5502 -0.3673
  749SOL     OW 2993   1.174   2.322   1.269  0.9014 -0.2408  0.1518
  749SOL    HW1 2994   1.198   2.389   1.333 -1.8319  0.3704  0.6967
  749SOL    HW2 2995   1.118   2.369   1.206  0.3389 -1.6446 -0.4225
  749SOL     MW 2996   1.169   2.337   1.269  0.4640 -0.3363  0.1445
  750SOL     OW 2997   0.725   1.893   2.113 -0.0250 -0.4170 -0.3381
  750SOL    HW1 2998   0.784   1.895   2.037  1.5081 -1.4033  0.7644
  750SOL    HW2 2999   0.664   1.821   2.095  0.8499 -1.1895 -0.3004
  750SOL     MW 3000   0.725   1.884   2.101  0.2865 -0.6551 -0.1844
  751SOL     OW 3001   0.189   2.383   1.851  0.0903 -0.1947  0.2087
  751SOL    HW1 3002   0.129   2.321   1.810 -0.9186  0.8641  0.0466
  751SOL    HW2 3003   0.236   2.423   1.778 -0.4983  0.4749  0.1945
  751SOL     MW 3004   0.188   2.380   1.836 -0.1172  0.0302  0.1863
  752SOL     OW 3005   0.636   2.491   1.434 -0.3425  0.3325 -0.2376
  752SOL    HW1 3006   0.638   2.519   1.342  1.6038  0.9630 -0.0603
  752SOL    HW2 3007   0.634   2.573   1.484  0.3512  0.0495  0.2784
  752SOL     MW 3008   0.636   2.506   1.429  0.0073  0.3729 -0.1443
  753SOL     OW 3009   1.722   1.489   2.746 -0.1261  0.3686 -0.0439
  753SOL    HW1 3010   1.786   1.418   2.735 -0.1770  0.3914 -0.5250
  753SOL    HW2 3011   1.700   1.487   2.839  2.2727  1.8210  0.6346
  753SOL     MW 3012   1.727   1.479   2.757  0.1810  0.5630 -0.0087
  754SOL     OW 3013   2.841   2.244   1.913 -0.4117  0.1794  0.2947
  754SOL    HW1 3014   2.766   2.186   1.899 -0.3996  0.4210 -0.8608
  754SOL    HW2 3015   2.915   2.198   1.872 -0.3802  0.9397 -0.5235
  754SOL     MW 3016   2.841   2.230   1.906 -0.4114  0.3072  0.0362
  755SOL     OW 3017   0.546   2.995   2.907  0.1430 -0.2820  0.0079
  755SOL    HW1 3018   0.484   2.951   2.966 -1.2585  0.2477 -1.0135
  755SOL    HW2 3019   0.540   2.946   2.825  1.0402 -0.1674 -0.1408
  755SOL     MW 3020   0.537   2.983   2.904  0.0839 -0.1931 -0.1469
  756SOL     OW 3021   2.543   1.534   1.447 -0.3805  0.6057 -0.7465
  756SOL    HW1 3022   2.534   1.553   1.540  2.7777 -1.1836  0.0737
  756SOL    HW2 3023   2.523   1.441   1.439  1.9586  0.0647 -1.2554
  756SOL     MW 3024   2.539   1.524   1.458  0.3375  0.2972 -0.7058
  757SOL     OW 3025   2.566   1.869   2.668  0.1861 -0.0027  0.1742
  757SOL    HW1 3026   2.522   1.803   2.614 -0.3976  0.2060  0.3927
  757SOL    HW2 3027   2.517   1.950   2.652  0.3346  0.1767  0.6161
  757SOL     MW 3028   2.554   1.871   2.658  0.1266  0.0596  0.2625
  758SOL     OW 3029   0.878   0.607   2.360 -0.0658 -0.5766 -0.8460
  758SOL    HW1 3030   0.946   0.672   2.340 -1.2302  1.3121  0.8513
  758SOL    HW2 3031   0.915   0.555   2.431  0.0299 -0.2306 -0.6374
  758SOL     MW 3032   0.892   0.609   2.367 -0.2144 -0.2860 -0.6031
  759SOL     OW 3033   1.727   1.151   1.750  0.3393 -0.1278  0.3753
  759SOL    HW1 3034   1.647   1.110   1.784  0.1068 -0.5843 -0.6855
  759SOL    HW2 3035   1.730   1.124   1.658 -1.0622  4.0970 -1.1336
  759SOL     MW 3036   1.717   1.142   1.742  0.1221  0.3691  0.0432
  760SOL     OW 3037   2.998   0.175   2.404  0.1348  0.1294  0.0912
  760SOL    HW1 3038   3.046   0.255   2.424 -1.3100  1.9361 -2.9289
  760SOL    HW2 3039   2.906   0.200   2.413 -0.4109 -0.5384 -2.6358
  760SOL     MW 3040   2.992   0.189   2.408 -0.1336  0.2929 -0.6676
  761SOL     OW 3041   1.769   2.248   0.700 -0.1358 -0.2208  0.7820
  761SOL    HW1 3042   1.850   2.197   0.698  0.0824  0.1472 -0.0976
  761SOL    HW2 3043   1.763   2.279   0.791  0.1651 -1.1016  1.1126
  761SOL     MW 3044   1.779   2.245   0.712 -0.0634 -0.2887  0.7167
  762SOL     OW 3045   1.318   2.357   1.796 -0.3987 -0.6504  0.3563
  762SOL    HW1 3046   1.254   2.338   1.864 -0.7623 -0.9350 -0.0586
  762SOL    HW2 3047   1.287   2.308   1.720 -1.1740  1.2769 -0.6483
  762SOL     MW 3048   1.306   2.348   1.795 -0.5489 -0.4370  0.1721
  763SOL     OW 3049   1.010   1.330   1.292  0.0991 -0.4634 -0.2912
  763SOL    HW1 3050   1.032   1.417   1.260  1.6567 -1.1929 -1.3412
  763SOL    HW2 3051   1.005   1.276   1.214 -2.1158 -1.1123  0.2192
  763SOL     MW 3052   1.013   1.334   1.278  0.0244 -0.6474 -0.3655
  764SOL     OW 3053   1.414   1.197   2.679  0.1965 -0.0554 -0.3903
  764SOL    HW1 3054   1.389   1.203   2.771 -0.0396  0.2950 -0.4740
  764SOL    HW2 3055   1.506   1.169   2.681 -0.6500 -3.1974 -0.1106
  764SOL     MW 3056   1.423   1.194   2.691  0.0543 -0.4107 -0.3625
  765SOL     OW 3057   2.993   2.607   2.676 -0.1245  0.2834  0.2761
  765SOL    HW1 3058   2.982   2.565   2.761 -0.0311  0.4975  0.3939
  765SOL    HW2 3059   2.986   2.700   2.694  0.4926  0.3563  0.1374
  765SOL     MW 3060   2.990   2.613   2.689 -0.0223  0.3216  0.2686
  766SOL     OW 3061   0.328   2.222   1.186 -0.4939  0.1515 -0.4690
  766SOL    HW1 3062   0.235   2.245   1.195 -0.5125 -0.1841  0.1938
  766SOL    HW2 3063   0.352   2.258   1.100 -1.6209 -1.0624 -1.3454
  766SOL     MW 3064   0.319   2.230   1.176 -0.6443 -0.0640 -0.4988
  767SOL     OW 3065   0.366   1.549   0.040 -0.1951  0.3687  0.0186
  767SOL    HW1 3066   0.372   1.644   0.033 -4.2804  0.7922  0.3219
  767SOL    HW2 3067   0.368   1.518  -0.051 -0.7299  0.9311 -0.1889
  767SOL     MW 3068   0.367   1.558   0.027 -0.8036  0.5006  0.0322
  768SOL     OW 3069   1.857   0.989   0.069 -0.2525  0.5914  0.2900
  768SOL    HW1 3070   1.911   0.944   0.134  1.2718 -0.9600 -1.8870
  768SOL    HW2 3071   1.911   0.990  -0.010 -2.4405  1.3288 -1.2964
  768SOL     MW 3072   1.872   0.983   0.067 -0.3448  0.4843 -0.2022
  769SOL     OW 3073   2.595   1.387   1.921 -0.2410  0.0387  0.0277
  769SOL    HW1 3074   2.637   1.315   1.874 -1.1251  0.2010 -1.0407
  769SOL    HW2 3075   2.542   1.345   1.989  0.7812 -0.2113  0.6965
  769SOL     MW 3076   2.594   1.372   1.924 -0.2165  0.0147 -0.0305
  770SOL     OW 3077   0.543   0.725   1.888  0.0954 -0.2071 -0.0021
  770SOL    HW1 3078   0.458   0.686   1.866  1.3526 -2.4591 -1.1797
  770SOL    HW2 3079   0.530   0.819   1.876 -2.4292 -0.4012  0.6555
  770SOL     MW 3080   0.530   0.732   1.884 -0.0671 -0.5353 -0.0686
  771SOL     OW 3081   2.096   1.844   0.542 -0.0843  0.6683  0.2440
  771SOL    HW1 3082   2.097   1.750   0.556  0.6737  0.7156  0.5784
  771SOL    HW2 3083   2.178   1.875   0.582 -1.2746  1.7412  1.9498
  771SOL     MW 3084   2.107   1.836   0.549 -0.1425  0.8185  0.5206
  772SOL     OW 3085   1.469   1.536   2.585  0.1116  0.5696 -0.0138
  772SOL    HW1 3086   1.546   1.519   2.638 -0.9794 -2.5375  0.8012
  772SOL    HW2 3087   1.500   1.537   2.495  1.4318  2.2573  0.3973
  772SOL     MW 3088   1.483   1.534   2.580  0.1432  0.3793  0.1528
  773SOL     OW 3089   2.275   1.590   1.063 -0.0097  0.5797  0.0119
  773SOL    HW1 3090   2.302   1.618   1.150  2.3574  3.2642 -1.4304
  773SOL    HW2 3091   2.179   1.595   1.066 -0.0845 -0.4055  2.6686
  773SOL     MW 3092   2.266   1.594   1.075  0.2973  0.7946  0.1680
  774SOL     OW 3093   1.218   0.435   2.054  0.1364 -0.1069 -0.1166
  774SOL    HW1 3094   1.140   0.491   2.051 -0.0352 -0.3313  0.0770
  774SOL    HW2 3095   1.186   0.348   2.029  0.6997  0.1905 -2.0227
  774SOL     MW 3096   1.203   0.431   2.051  0.1920 -0.1054 -0.3510
  775SOL     OW 3097   0.474   1.909   2.437  0.3729  0.1695 -0.6311
  775SOL    HW1 3098   0.440   1.822   2.416  1.4197 -0.4305  0.0440
  775SOL    HW2 3099   0.557   1.892   2.482 -0.2300  1.4450  1.0906
  775SOL     MW 3100   0.480   1.895   2.440  0.4350  0.2484 -0.3148
  776SOL     OW 3101   2.797   1.682   0.075  0.5703  0.3347  0.3089
  776SOL    HW1 3102   2.733   1.655   0.141  0.1721 -0.6232 -0.4418
  776SOL    HW2 3103   2.805   1.776   0.087 -1.9982  0.7250 -0.4485
  776SOL     MW 3104   2.790   1.691   0.086  0.1779  0.2569  0.1120
  777SOL     OW 3105   0.803   0.138   1.713 -0.2956  1.2749 -0.1033
  777SOL    HW1 3106   0.745   0.147   1.637 -0.7822 -1.5819 -0.1807
  777SOL    HW2 3107   0.756   0.182   1.784 -0.3095  3.0892 -1.1558
  777SOL     MW 3108   0.789   0.145   1.712 -0.3638  1.1446 -0.2568
  778SOL     OW 3109   0.924   2.445   2.870  0.2362  0.1932 -0.0306
  778SOL    HW1 3110   0.961   2.365   2.831 -1.5135 -0.4033 -0.5358
  778SOL    HW2 3111   0.972   2.516   2.826 -0.6858 -0.4969 -2.3293
  778SOL     MW 3112   0.935   2.444   2.859 -0.1238  0.0180 -0.3996
  779SOL     OW 3113   2.644   1.579   0.286 -0.2079 -0.2862  0.2424
  779SOL    HW1 3114   2.562   1.557   0.242  0.5965 -1.0818 -0.9342
  779SOL    HW2 3115   2.628   1.664   0.326 -1.1591  0.2296 -1.1631
  779SOL     MW 3116   2.631   1.587   0.285 -0.2209 -0.3239 -0.0975
  780SOL     OW 3117   2.528   3.006   2.311  0.4494 -0.0126 -0.3139
  780SOL    HW1 3118   2.596   2.975   2.251  1.1276 -1.2051  1.0059
  780SOL    HW2 3119   2.475   2.929   2.329  1.0636 -0.0494  1.6245
  780SOL     MW 3120   2.530   2.992   2.306  0.6230 -0.1767  0.1186
  781SOL     OW 3121   1.219   2.373   2.674 -0.5331  0.3902  0.1707
  781SOL    HW1 3122   1.268   2.385   2.593  1.1240  0.6440  1.1554
  781SOL    HW2 3123   1.287   2.359   2.741 -1.8668 -0.4628  1.4096
  781SOL     MW 3124   1.234   2.373   2.672 -0.4880  0.3113  0.4648
  782SOL     OW 3125   0.096   0.627   0.999  0.4336 -0.1714  1.3020
  782SOL    HW1 3126   0.022   0.641   1.057  0.1145 -0.3051  0.9311
  782SOL    HW2 3127   0.057   0.608   0.914  0.8888  1.1944  0.7561
  782SOL     MW 3128   0.081   0.627   0.995  0.4522 -0.0051  1.1792
  783SOL     OW 3129   0.619   0.157   1.507  0.8391 -0.7809  0.2930
  783SOL    HW1 3130   0.665   0.242   1.506 -0.8692  0.2503  2.2519
  783SOL    HW2 3131   0.579   0.151   1.420 -0.1457  1.1363  0.5423
  783SOL     MW 3132   0.620   0.168   1.495  0.4854 -0.3822  0.5797
  784SOL     OW 3133   2.375   1.336   0.987  0.0651  0.4175 -0.5121
  784SOL    HW1 3134   2.404   1.300   1.070  0.4871 -0.1613 -0.9043
  784SOL    HW2 3135   2.331   1.418   1.010  0.4923  0.4403  0.2436
  784SOL     MW 3136   2.373   1.342   1.001  0.1832  0.3425 -0.4630
  785SOL     OW 3137   0.917   2.133   2.079  0.0671  0.4315 -0.3487
  785SOL    HW1 3138   0.852   2.150   2.010  1.7446 -1.0079 -2.4482
  785SOL    HW2 3139   0.992   2.186   2.054  1.0138 -0.7727 -0.1305
  785SOL     MW 3140   0.918   2.142   2.066  0.4150  0.0676 -0.6003
  786SOL     OW 3141   2.678   1.145   2.786  0.6125  0.3934  0.0269
  786SOL    HW1 3142   2.696   1.231   2.824 -0.1090  0.7017 -0.3228
  786SOL    HW2 3143   2.745   1.134   2.719  0.1410  1.0891 -0.5622
  786SOL     MW 3144   2.689   1.155   2.783  0.4562  0.5258 -0.1087
  787SOL     OW 3145   1.356   2.549   0.281 -0.4476 -0.4958 -0.2456
  787SOL    HW1 3146   1.350   2.453   0.280 -0.1600 -0.5085 -1.1176
  787SOL    HW2 3147   1.436   2.568   0.329 -0.4151 -0.6913 -0.2218
  787SOL     MW 3148   1.366   2.539   0.287 -0.4088 -0.5302 -0.3645
  788SOL     OW 3149   2.262   1.327   2.748  0.5167 -0.0410  0.0957
  788SOL    HW1 3150   2.313   1.318   2.828  2.1282  0.3911 -0.8264
  788SOL    HW2 3151   2.274   1.419   2.723 -0.5872  0.0224 -0.2543
  788SOL     MW 3152   2.270   1.338   2.755  0.5834  0.0282 -0.0751
  789SOL     OW 3153   0.492   1.699   1.202  0.4237  0.1723 -0.1897
  789SOL    HW1 3154   0.418   1.659   1.156 -0.0824  2.5209 -1.5793
  789SOL    HW2 3155   0.459   1.786   1.228  2.2826  0.7553  0.3403
  789SOL     MW 3156   0.478   1.705   1.199  0.5981  0.5648 -0.3087
  790SOL     OW 3157   1.131   0.388   1.136 -0.0258 -0.0730  0.4246
  790SOL    HW1 3158   1.083   0.315   1.097  2.0286 -0.4751 -1.5337
  790SOL    HW2 3159   1.215   0.350   1.162  0.5914  1.3446  0.5663
  790SOL     MW 3160   1.135   0.373   1.135  0.3331  0.0528  0.1844
  791SOL     OW 3161   0.071   2.604   1.956  0.1596 -0.4294  0.7520
  791SOL    HW1 3162   0.127   2.527   1.939  0.9538  0.3858 -0.5008
  791SOL    HW2 3163   0.119   2.677   1.917 -0.6979  0.6818  1.7142
  791SOL     MW 3164   0.085   2.603   1.948  0.1582 -0.1801  0.7138
  792SOL     OW 3165   0.636   2.914   1.042 -0.5105  0.2130  0.4201
  792SOL    HW1 3166   0.582   2.987   1.009 -0.2553  0.1556 -0.1393
  792SOL    HW2 3167   0.626   2.918   1.137 -1.0473  0.5573  0.3549
  792SOL     MW 3168   0.627   2.924   1.050 -0.5518  0.2525  0.3391
  793SOL     OW 3169   0.626   0.463   1.149  0.0931 -0.6471  0.0709
  793SOL    HW1 3170   0.646   0.535   1.090 -0.2199 -2.0362 -1.8196
  793SOL    HW2 3171   0.708   0.447   1.196  0.0129  1.2426  0.9285
  793SOL     MW 3172   0.640   0.470   1.147  0.0403 -0.5823 -0.0659
  794SOL     OW 3173   1.797   0.043   1.226 -0.0933 -0.3125  0.4353
  794SOL    HW1 3174   1.769  -0.041   1.260  0.1310  0.4061  2.5727
  794SOL    HW2 3175   1.882   0.058   1.268  0.5007  0.3895 -0.9561
  794SOL     MW 3176   1.805   0.034   1.236  0.0065 -0.1180  0.5431
  795SOL     OW 3177   2.223   0.265   0.362 -0.4350 -0.0989  0.1904
  795SOL    HW1 3178   2.198   0.351   0.396 -1.6093 -0.7941  1.1697
  795SOL    HW2 3179   2.318   0.267   0.361 -0.4406  1.4613 -0.4822
  795SOL     MW 3180   2.232   0.277   0.367 -0.5825  0.0126  0.2326
  796SOL     OW 3181   2.378   1.524   0.241  0.5968  0.3632 -0.5655
  796SOL    HW1 3182   2.359   1.446   0.293 -0.1924 -0.9148 -2.6397
  796SOL    HW2 3183   2.374   1.596   0.304  0.1271 -1.1141  1.2034
  796SOL     MW 3184   2.375   1.523   0.256  0.4263 -0.0024 -0.6028
  797SOL     OW 3185   1.610   2.618   0.371 -0.1276  0.0755  0.5710
  797SOL    HW1 3186   1.671   2.563   0.420  0.3698 -1.2722 -1.4310
  797SOL    HW2 3187   1.666   2.681   0.326 -0.2953 -0.4405 -0.3784
  797SOL     MW 3188   1.625   2.619   0.372 -0.0797 -0.1612  0.1755
  798SOL     OW 3189   2.715   0.720   1.711  0.4017 -0.0356  0.3130
  798SOL    HW1 3190   2.777   0.766   1.655 -0.2664 -0.9950 -1.2864
  798SOL    HW2 3191   2.644   0.694   1.652 -1.1013  0.2645  1.9165
  798SOL     MW 3192   2.714   0.723   1.696  0.1155 -0.1271  0.3146
  799SOL     OW 3193   0.293   1.113   0.020 -0.0792  0.1071 -0.6463
  799SOL    HW1 3194   0.384   1.125   0.049 -0.1964 -0.7284  0.1011
  799SOL    HW2 3195   0.242   1.109   0.101 -0.5082 -1.5497 -0.9699
  799SOL     MW 3196   0.298   1.114   0.034 -0.1517 -0.2218 -0.5914
  800SOL     OW 3197   2.506   0.373   0.361  0.4385  0.7096  0.0515
  800SOL    HW1 3198   2.473   0.359   0.450 -1.6274  0.2549 -0.7329
  800SOL    HW2 3199   2.494   0.467   0.346 -0.2699  0.5961 -0.1260
  800SOL     MW 3200   2.500   0.384   0.371  0.0618  0.6355 -0.0782
  801SOL     OW 3201   2.900   2.798   2.337  0.9315  0.1473  0.5291
  801SOL    HW1 3202   2.990   2.799   2.304  0.4963  2.2643 -0.7645
  801SOL    HW2 3203   2.894   2.876   2.392 -0.4086  0.7105 -0.3663
  801SOL     MW 3204   2.911   2.808   2.340  0.6994  0.4970  0.2404
  802SOL     OW 3205   0.432   0.817   1.591  0.0090  0.1290  0.2370
  802SOL    HW1 3206   0.357   0.867   1.625 -1.2696 -1.0159 -0.7944
  802SOL    HW2 3207   0.403   0.786   1.505  1.5713 -0.6198 -0.0508
  802SOL     MW 3208   0.418   0.820   1.584  0.0426 -0.1251  0.0614
  803SOL     OW 3209   2.077   1.386   1.648  0.5018  0.0147  0.5197
  803SOL    HW1 3210   2.165   1.393   1.685  1.0360 -1.5326 -0.3978
  803SOL    HW2 3211   2.091   1.391   1.553 -0.6949  2.4314  0.3968
  803SOL     MW 3212   2.091   1.388   1.640  0.4114  0.1279  0.3790
  804SOL     OW 3213   0.586   0.426   2.255 -0.5413  0.2665  0.3133
  804SOL    HW1 3214   0.636   0.412   2.336  0.0188 -0.3689 -0.1301
  804SOL    HW2 3215   0.505   0.376   2.268  0.3561 -1.4240 -0.2453
  804SOL     MW 3216   0.582   0.417   2.267 -0.3498 -0.0474  0.1792
  805SOL     OW 3217   2.671   0.778   1.045  0.2820  0.5110 -0.6155
  805SOL    HW1 3218   2.628   0.847   0.994  0.9881  2.1732  0.9413
  805SOL    HW2 3219   2.762   0.806   1.052  0.5891 -0.5812  0.0867
  805SOL     MW 3220   2.678   0.791   1.039  0.4071  0.5877 -0.3135
  806SOL     OW 3221   2.246   1.091   2.596  0.4545 -0.6612  0.4594
  806SOL    HW1 3222   2.161   1.103   2.554  0.0541 -2.0288  0.8148
  806SOL    HW2 3223   2.253   1.163   2.659 -0.8415 -1.0177  1.0376
  806SOL     MW 3224   2.236   1.102   2.599  0.2218 -0.8959  0.5956
  807SOL     OW 3225   0.587   1.265   0.570  0.2775 -0.2912  0.0044
  807SOL    HW1 3226   0.539   1.203   0.515  0.2637 -0.2324 -0.0498
  807SOL    HW2 3227   0.520   1.306   0.624  0.0877  0.7521 -1.0006
  807SOL     MW 3228   0.572   1.262   0.570  0.2513 -0.1395 -0.1325
  808SOL     OW 3229   2.947   2.869   2.773 -0.4010 -0.1659 -0.0832
  808SOL    HW1 3230   2.919   2.905   2.689 -0.5132 -0.8066 -0.3295
  808SOL    HW2 3231   2.868   2.868   2.826 -0.0283  1.6468  0.5655
  808SOL     MW 3232   2.933   2.874   2.769 -0.3586 -0.0087 -0.0310
  809SOL     OW 3233   2.424   2.119   0.649 -0.4482  0.0893  0.4817
  809SOL    HW1 3234   2.367   2.051   0.686 -0.9387  1.0076  1.4622
  809SOL    HW2 3235   2.364   2.188   0.622  0.1460  0.8091  0.9612
  809SOL     MW 3236   2.409   2.119   0.651 -0.4292  0.2939  0.6761
  810SOL     OW 3237   2.793   1.227   1.297  0.0199  0.1066  0.2424
  810SOL    HW1 3238   2.822   1.213   1.207 -1.5724 -1.7385 -0.0471
  810SOL    HW2 3239   2.815   1.319   1.315  0.6053  0.4491 -1.9168
  810SOL     MW 3240   2.800   1.237   1.287 -0.1172 -0.0935 -0.0735
  811SOL     OW 3241   2.248   1.605   2.754  0.0783 -0.5265 -0.5453
  811SOL    HW1 3242   2.283   1.645   2.675 -0.7476  0.9633 -0.1808
  811SOL    HW2 3243   2.299   1.643   2.825  0.1643 -1.1287 -0.2716
  811SOL     MW 3244   2.260   1.615   2.753 -0.0134 -0.4107 -0.4507
  812SOL     OW 3245   1.018   1.969   0.831  0.0098  0.2561  0.0902
  812SOL    HW1 3246   0.961   1.984   0.906  0.6680 -0.4880  0.7471
  812SOL    HW2 3247   0.966   1.999   0.756 -0.3786  1.6755  0.8950
  812SOL     MW 3248   1.003   1.975   0.831  0.0483  0.3506  0.2887
  813SOL     OW 3249   0.706   0.157   1.997  0.4406 -0.1923  0.5842
  813SOL    HW1 3250   0.701   0.249   2.020 -1.4306 -0.2098  0.4008
  813SOL    HW2 3251   0.734   0.113   2.077  0.4854  0.4393  0.9147
  813SOL     MW 3252   0.709   0.163   2.010  0.2113 -0.1128  0.6058
  814SOL     OW 3253   1.158   1.325   2.586 -0.0341  0.4649  0.0027
  814SOL    HW1 3254   1.244   1.296   2.616 -0.3569  1.6968  2.3549
  814SOL    HW2 3255   1.171   1.417   2.562 -0.6369  0.6039  0.1906
  814SOL     MW 3256   1.171   1.333   2.587 -0.1523  0.6483  0.3328
  815SOL     OW 3257   0.901   0.862   2.765 -0.3326 -0.6987 -0.7417
  815SOL    HW1 3258   0.861   0.816   2.692 -0.1126 -0.8748 -0.7530
  815SOL    HW2 3259   0.961   0.925   2.723  1.2828 -2.1434 -0.7007
  815SOL     MW 3260   0.904   0.865   2.750 -0.0873 -0.9135 -0.7355
  816SOL     OW 3261   1.901   2.082   1.000  0.7103  0.0132 -0.2313
  816SOL    HW1 3262   1.913   2.134   1.080  0.3363  1.4631 -1.0760
  816SOL    HW2 3263   1.830   2.021   1.022  2.3658 -1.4501  1.3628
  816SOL     MW 3264   1.893   2.081   1.014  0.8767  0.0057 -0.1303
  817SOL     OW 3265   0.101   2.742   1.629 -0.1572 -0.7584  0.4300
  817SOL    HW1 3266   0.164   2.748   1.701 -0.1162 -1.8697  0.4970
  817SOL    HW2 3267   0.024   2.789   1.661  0.9670  1.5905 -0.0699
  817SOL     MW 3268   0.099   2.749   1.643 -0.0083 -0.5953  0.3758
  818SOL     OW 3269   1.894   1.572   1.818 -0.3646  0.3103  0.4671
  818SOL    HW1 3270   1.964   1.555   1.755  3.2842  0.8851  3.9975
  818SOL    HW2 3271   1.880   1.667   1.814  0.7499  0.5248  1.2875
  818SOL     MW 3272   1.901   1.583   1.809  0.2715  0.4137  1.0464
  819SOL     OW 3273   2.887   0.082   0.961  0.1749  0.2714 -0.0036
  819SOL    HW1 3274   2.848   0.086   0.874 -1.1208 -1.4686  0.4306
  819SOL    HW2 3275   2.886  -0.011   0.984 -0.4194  0.7484  2.2203
  819SOL     MW 3276   2.882   0.070   0.953 -0.0787  0.1030  0.3446
  820SOL     OW 3277   2.014   0.149   0.843 -0.3268  0.3514 -0.0041
  820SOL    HW1 3278   1.936   0.111   0.885  1.4567 -0.4725  2.9240
  820SOL    HW2 3279   2.014   0.113   0.755 -2.2771 -1.1423  0.5271
  820SOL     MW 3280   2.004   0.139   0.837 -0.3529  0.0506  0.4477
  821SOL     OW 3281   0.356   2.183   0.608 -0.2232 -0.4315  0.5032
  821SOL    HW1 3282   0.376   2.247   0.539 -0.3092  2.0051  2.5735
  821SOL    HW2 3283   0.380   2.098   0.570 -0.3386  0.7576 -2.5005
  821SOL     MW 3284   0.362   2.180   0.594 -0.2454  0.0461  0.3805
  822SOL     OW 3285   2.734   2.826   0.466 -0.1837 -0.1260 -0.0519
  822SOL    HW1 3286   2.760   2.748   0.418  0.4855 -0.2543  0.4927
  822SOL    HW2 3287   2.666   2.797   0.527 -1.4454  0.1512 -1.2846
  822SOL     MW 3288   2.729   2.812   0.468 -0.2633 -0.1100 -0.1376
  823SOL     OW 3289   1.301   1.091   0.695 -0.1700  0.5862 -0.1100
  823SOL    HW1 3290   1.253   1.030   0.750  1.7453 -0.0241  0.9998
  823SOL    HW2 3291   1.392   1.086   0.726  0.6768  1.5520 -2.1625
  823SOL     MW 3292   1.307   1.083   0.706  0.1948  0.6329 -0.2409
  824SOL     OW 3293   2.322   2.525   2.393 -0.4541  0.4269  0.1168
  824SOL    HW1 3294   2.302   2.469   2.318  0.1183  1.8293 -1.1322
  824SOL    HW2 3295   2.413   2.506   2.414 -0.3709  0.6377 -0.0621
  824SOL     MW 3296   2.331   2.515   2.386 -0.3623  0.6427 -0.0703
  825SOL     OW 3297   2.923   0.123   2.128  0.3443 -0.7922 -0.0434
  825SOL    HW1 3298   2.912   0.210   2.089 -2.1763 -1.8460 -1.9995
  825SOL    HW2 3299   2.967   0.139   2.211  1.0600  2.2048 -0.8718
  825SOL     MW 3300   2.927   0.136   2.134  0.1105 -0.5470 -0.4122
  826SOL     OW 3301   0.401   1.349   0.762  0.4505 -0.1650 -0.0420
  826SOL    HW1 3302   0.316   1.335   0.721  0.3893  1.0182 -0.3484
  826SOL    HW2 3303   0.390   1.316   0.851 -0.9163  1.6199  0.5041
  826SOL     MW 3304   0.388   1.343   0.768  0.2612  0.2207 -0.0176
  827SOL     OW 3305   1.904   0.561   0.676  0.4518  0.4849 -0.1598
  827SOL    HW1 3306   1.875   0.611   0.600  1.2638  0.6945 -0.3386
  827SOL    HW2 3307   1.852   0.597   0.749  1.5762  2.1846 -0.1337
  827SOL     MW 3308   1.893   0.572   0.676  0.7105  0.7269 -0.1812
  828SOL     OW 3309   1.546   0.638   0.265  0.2264  0.3733 -0.4192
  828SOL    HW1 3310   1.567   0.560   0.213 -0.7352 -1.1188  1.3134
  828SOL    HW2 3311   1.539   0.708   0.200 -1.8362 -1.5531 -2.4994
  828SOL     MW 3312   1.548   0.637   0.249 -0.1748 -0.0820 -0.4620
  829SOL     OW 3313   0.214   0.467   2.036 -0.3658  0.0343  0.2009
  829SOL    HW1 3314   0.134   0.422   2.010 -1.1318  0.5775  1.5206
  829SOL    HW2 3315   0.259   0.485   1.953 -0.9827 -1.3848 -0.4737
  829SOL     MW 3316   0.210   0.464   2.022 -0.5461 -0.0813  0.2892
  830SOL     OW 3317   1.020   2.296   1.029 -0.0905  0.2742  0.2934
  830SOL    HW1 3318   1.113   2.283   1.013  0.3070  0.1326  2.3890
  830SOL    HW2 3319   0.982   2.307   0.942  1.6647 -1.0229 -0.7229
  830SOL     MW 3320   1.027   2.296   1.015  0.1815  0.0851  0.4366
  831SOL     OW 3321   1.294   0.368   2.938  1.0329  0.0384  0.4603
  831SOL    HW1 3322   1.315   0.450   2.983 -1.1858  0.3636  1.0320
  831SOL    HW2 3323   1.225   0.329   2.992 -1.8696  0.5033 -2.6195
  831SOL     MW 3324   1.288   0.374   2.951  0.3496  0.1431  0.1245
  832SOL     OW 3325   2.586   1.869   0.258 -0.2722  0.0920 -0.5461
  832SOL    HW1 3326   2.652   1.909   0.201 -0.4681 -0.5459 -1.2362
  832SOL    HW2 3327   2.577   1.931   0.331  0.6824  0.4508 -0.7185
  832SOL     MW 3328   2.593   1.883   0.260 -0.1611  0.0577 -0.6638
  833SOL     OW 3329   0.923   1.052   1.137  0.7256  0.0249 -0.5381
  833SOL    HW1 3330   0.898   0.976   1.085  0.1080 -1.5853  1.9494
  833SOL    HW2 3331   0.852   1.115   1.124 -0.1922 -0.9747 -0.4197
  833SOL     MW 3332   0.910   1.050   1.128  0.5275 -0.3195 -0.1982
  834SOL     OW 3333   1.109   2.935   0.754 -0.1032 -0.2217 -0.4260
  834SOL    HW1 3334   1.108   2.988   0.675 -0.1655 -1.9376 -1.6356
  834SOL    HW2 3335   1.019   2.939   0.787  0.6115  3.2701  1.6103
  834SOL     MW 3336   1.097   2.943   0.748 -0.0223  0.0057 -0.3144
  835SOL     OW 3337   0.662   0.359   2.503 -0.8897 -0.1247 -0.1415
  835SOL    HW1 3338   0.729   0.305   2.545 -0.6959 -0.3788 -0.7706
  835SOL    HW2 3339   0.668   0.444   2.548  0.7074  0.2527 -1.0264
  835SOL     MW 3340   0.671   0.363   2.515 -0.6596 -0.1162 -0.3457
  836SOL     OW 3341   2.694   0.709   0.096  0.1129 -0.2761  0.0564
  836SOL    HW1 3342   2.652   0.671   0.019  3.6327 -2.0883 -1.2052
  836SOL    HW2 3343   2.696   0.803   0.079 -1.3736 -0.3844 -0.8295
  836SOL     MW 3344   2.689   0.716   0.084  0.3778 -0.5326 -0.2288
  837SOL     OW 3345   1.486   2.908   1.464 -0.5707 -0.4435  0.4792
  837SOL    HW1 3346   1.453   2.836   1.410  0.8388 -0.1348 -0.8792
  837SOL    HW2 3347   1.475   2.878   1.554 -2.3934 -1.2522  0.0232
  837SOL     MW 3348   1.480   2.894   1.469 -0.6219 -0.5081  0.2332
  838SOL     OW 3349   0.331   0.568   1.797 -0.2887 -0.1779 -0.0343
  838SOL    HW1 3350   0.368   0.529   1.718 -1.4846 -1.3470 -0.0408
  838SOL    HW2 3351   0.259   0.623   1.765 -1.9745 -2.0805  0.3103
  838SOL     MW 3352   0.326   0.570   1.782 -0.6700 -0.5847  0.0064
  839SOL     OW 3353   0.899   2.194   1.682 -0.2144 -0.1987  0.4628
  839SOL    HW1 3354   0.842   2.184   1.606  0.4524 -0.9897  0.0497
  839SOL    HW2 3355   0.841   2.178   1.757 -0.7665  0.0747  0.1018
  839SOL     MW 3356   0.884   2.190   1.682 -0.2062 -0.2680  0.3610
  840SOL     OW 3357   1.944   0.209   2.918 -0.3094 -0.2312  0.1974
  840SOL    HW1 3358   1.926   0.271   2.848 -1.8213 -0.4294  0.3939
  840SOL    HW2 3359   1.990   0.261   2.984  0.8692  0.0256 -0.7788
  840SOL     MW 3360   1.948   0.224   2.918 -0.3520 -0.2263  0.0992
  841SOL     OW 3361   2.293   2.184   0.182 -0.5230  0.0802 -0.6844
  841SOL    HW1 3362   2.304   2.089   0.184 -0.0759  0.1380 -0.1736
  841SOL    HW2 3363   2.214   2.198   0.129 -1.3837 -0.6464  0.3498
  841SOL     MW 3364   2.284   2.173   0.176 -0.5832 -0.0018 -0.4705
  842SOL     OW 3365   2.237   2.462   2.065  0.0427 -0.0057  0.1173
  842SOL    HW1 3366   2.151   2.486   2.030 -0.0111  0.0504  0.2868
  842SOL    HW2 3367   2.296   2.531   2.034 -0.2602  0.7972  1.2653
  842SOL     MW 3368   2.234   2.474   2.057 -0.0217  0.1028  0.2896
  843SOL     OW 3369   1.250   2.522   2.241 -0.1399  0.1271  0.0143
  843SOL    HW1 3370   1.300   2.528   2.322 -0.9304 -1.2547  0.6433
  843SOL    HW2 3371   1.183   2.589   2.249 -0.9789 -0.7944  1.0984
  843SOL     MW 3372   1.248   2.532   2.253 -0.3566 -0.1768  0.2414
  844SOL     OW 3373   2.342   1.835   2.933  0.5827 -0.7305 -0.4112
  844SOL    HW1 3374   2.424   1.860   2.891  0.7924  1.6119  1.2150
  844SOL    HW2 3375   2.276   1.842   2.864  1.0151  2.4191 -0.6355
  844SOL     MW 3376   2.344   1.839   2.919  0.6691 -0.0043 -0.2332
  845SOL     OW 3377   2.250   2.104   1.858  0.5556 -0.2998  0.2007
  845SOL    HW1 3378   2.181   2.152   1.813 -0.2182  1.8586  3.4097
  845SOL    HW2 3379   2.328   2.119   1.805 -0.1392  2.7599 -0.1070
  845SOL     MW 3380   2.251   2.112   1.845  0.3598  0.3847  0.5753
  846SOL     OW 3381   1.586   2.271   1.803 -0.0429 -0.1093 -0.0687
  846SOL    HW1 3382   1.510   2.323   1.828 -0.5076  1.7169 -4.3512
  846SOL    HW2 3383   1.550   2.194   1.761  0.5434 -0.7089  0.5081
  846SOL     MW 3384   1.571   2.268   1.801 -0.0270  0.0547 -0.5559
  847SOL     OW 3385   1.283   1.817   2.883  0.0399 -0.2469  0.3284
  847SOL    HW1 3386   1.377   1.827   2.863  0.1266 -0.7994  0.4538
  847SOL    HW2 3387   1.281   1.767   2.965 -0.3676 -0.1566  0.3767
  847SOL     MW 3388   1.295   1.812   2.892 -0.0017 -0.3138  0.3520
  848SOL     OW 3389   2.009   1.641   1.039 -0.1650  0.2890 -0.2618
  848SOL    HW1 3390   1.972   1.593   0.964  0.5156 -2.0092  0.7775
  848SOL    HW2 3391   1.946   1.625   1.109  0.2342  0.6760  0.1837
  848SOL     MW 3392   1.995   1.632   1.038 -0.0170  0.0346 -0.0665
  849SOL     OW 3393   2.393   2.745   2.249 -0.0672 -0.7509 -0.3272
  849SOL    HW1 3394   2.378   2.677   2.315 -0.8867 -1.4831 -1.2356
  849SOL    HW2 3395   2.305   2.779   2.231  0.0690 -0.9776 -1.4631
  849SOL     MW 3396   2.379   2.741   2.255 -0.1599 -0.8802 -0.5968
  850SOL     OW 3397   2.465   1.640   2.275  0.2732 -0.2362  0.3647
  850SOL    HW1 3398   2.399   1.619   2.210 -0.4846  0.9570  0.7217
  850SOL    HW2 3399   2.545   1.597   2.243 -0.7818 -2.2361  0.2530
  850SOL     MW 3400   2.467   1.631   2.262  0.0411 -0.3338  0.4021
  851SOL     OW 3401   1.744   1.406   1.468  0.1570 -0.0420  0.4339
  851SOL    HW1 3402   1.680   1.347   1.427 -1.3610  1.5991  0.3255
  851SOL    HW2 3403   1.706   1.427   1.553  0.9888  0.2979  0.7301
  851SOL     MW 3404   1.730   1.401   1.474  0.0677  0.2177  0.4674
  852SOL     OW 3405   0.364   2.262   1.456  0.3715 -0.2797 -0.1467
  852SOL    HW1 3406   0.339   2.236   1.368 -0.4768  1.6361 -0.5323
  852SOL    HW2 3407   0.378   2.180   1.503  1.6956 -1.3601 -2.2689
  852SOL     MW 3408   0.363   2.248   1.451  0.4387 -0.1684 -0.4811
  853SOL     OW 3409   0.615   2.817   1.563 -0.7741 -0.3505  0.0468
  853SOL    HW1 3410   0.689   2.857   1.609 -0.7989 -0.0095 -0.2064
  853SOL    HW2 3411   0.539   2.867   1.593 -0.5156  1.8036 -2.4311
  853SOL     MW 3412   0.615   2.829   1.573 -0.7503 -0.0144 -0.3192
  854SOL     OW 3413   0.749   1.348   1.383  0.1449  0.0678 -0.0903
  854SOL    HW1 3414   0.828   1.363   1.332  1.4890 -1.2786  1.4767
  854SOL    HW2 3415   0.680   1.333   1.318  1.2130  0.9454 -1.4839
  854SOL     MW 3416   0.750   1.348   1.368  0.4669  0.0065 -0.0649
  855SOL     OW 3417   2.890   2.688   1.406 -0.1173  0.1239  0.4387
  855SOL    HW1 3418   2.943   2.745   1.461 -0.2986 -1.2823  2.1732
  855SOL    HW2 3419   2.951   2.652   1.342  0.2873  1.0955  0.2548
  855SOL     MW 3420   2.905   2.691   1.405 -0.0888  0.0662  0.6387
  856SOL     OW 3421   1.171   2.947   2.122 -0.0647 -0.2465  0.0594
  856SOL    HW1 3422   1.132   2.892   2.054  0.7957  1.3210 -1.8225
  856SOL    HW2 3423   1.248   2.899   2.150 -0.3297 -0.8407 -0.2124
  856SOL     MW 3424   1.176   2.934   2.116  0.0094 -0.1130 -0.2215
  857SOL     OW 3425   1.569   2.256   2.483 -0.0863 -0.2754 -0.1135
  857SOL    HW1 3426   1.559   2.220   2.395  1.3407  0.0372 -0.4349
  857SOL    HW2 3427   1.576   2.179   2.540 -0.9803 -0.4761 -0.2655
  857SOL     MW 3428   1.569   2.241   2.479 -0.0073 -0.2692 -0.1873
  858SOL     OW 3429   0.905   0.847   1.334  0.0267 -0.2127  0.3788
  858SOL    HW1 3430   0.921   0.930   1.290 -0.9804 -0.9182 -1.4113
  858SOL    HW2 3431   0.859   0.871   1.414 -0.8678  0.9078 -0.4426
  858SOL     MW 3432   0.901   0.861   1.339 -0.2174 -0.1560  0.0438
  859SOL     OW 3433   0.954   1.164   0.215  0.1675 -0.2388  0.1411
  859SOL    HW1 3434   0.931   1.242   0.266  0.7122 -1.2615  2.0247
  859SOL    HW2 3435   0.956   1.093   0.279  2.7022 -1.2617 -0.9368
  859SOL     MW 3436   0.951   1.165   0.230  0.5743 -0.5070  0.2417
  860SOL     OW 3437   0.619   2.567   0.429 -0.5003  0.8020 -0.0721
  860SOL    HW1 3438   0.548   2.562   0.493 -0.0942 -0.8136  0.2857
  860SOL    HW2 3439   0.674   2.639   0.460 -0.9299  0.7954  0.7374
  860SOL     MW 3440   0.617   2.576   0.441 -0.5048  0.5926  0.0812
  861SOL     OW 3441   0.717   1.711   0.710 -0.0107 -0.1537  0.1189
  861SOL    HW1 3442   0.644   1.650   0.726  0.5244 -0.6604  0.7148
  861SOL    HW2 3443   0.675   1.792   0.683 -0.7887 -0.5203  0.1881
  861SOL     MW 3444   0.701   1.713   0.709 -0.0390 -0.2606  0.2143
  862SOL     OW 3445   2.276   0.214   2.621  0.0829 -0.1900 -0.2018
  862SOL    HW1 3446   2.218   0.281   2.585  0.5188  0.0806 -0.4128
  862SOL    HW2 3447   2.356   0.262   2.645  0.1283 -0.5136  0.3211
  862SOL     MW 3448   2.279   0.229   2.620  0.1464 -0.1940 -0.1484
  863SOL     OW 3449   2.112   2.196   0.873 -0.1591  0.5593 -0.1011
  863SOL    HW1 3450   2.109   2.156   0.786  0.3488  0.3229 -0.0144
  863SOL    HW2 3451   2.033   2.166   0.917  0.0890 -0.1451 -0.1288
  863SOL     MW 3452   2.101   2.187   0.868 -0.0626  0.4386 -0.0795
  864SOL     OW 3453   2.992   0.956   2.892 -0.3494 -0.1360  0.1228
  864SOL    HW1 3454   2.986   1.051   2.904  1.4008  0.1126 -0.6484
  864SOL    HW2 3455   2.953   0.941   2.806 -0.3673 -0.0777  0.1202
  864SOL     MW 3456   2.986   0.967   2.882 -0.1239 -0.1037  0.0201
  865SOL     OW 3457   0.277   1.050   0.689 -0.4509 -0.3444 -0.2568
  865SOL    HW1 3458   0.278   1.007   0.775  0.6055  0.3988  0.1262
  865SOL    HW2 3459   0.217   0.997   0.637 -0.0912 -1.5890  0.5370
  865SOL     MW 3460   0.269   1.037   0.694 -0.2650 -0.4042 -0.0949
  866SOL     OW 3461   0.870   2.373   0.113 -0.1195  0.0811  0.4088
  866SOL    HW1 3462   0.880   2.388   0.019  0.6880  0.6322  0.5739
  866SOL    HW2 3463   0.957   2.390   0.149 -0.7622  1.3041  1.4392
  866SOL     MW 3464   0.883   2.377   0.105 -0.0851  0.3145  0.5588
  867SOL     OW 3465   2.273   2.315   2.615  0.0529 -0.0175  0.6051
  867SOL    HW1 3466   2.226   2.233   2.596  0.6626 -0.5530  1.3568
  867SOL    HW2 3467   2.299   2.347   2.529 -0.9490 -0.1478  0.2333
  867SOL     MW 3468   2.270   2.308   2.601 -0.0015 -0.0980  0.6552
  868SOL     OW 3469   0.426   0.117   0.310 -0.5181  0.3884 -0.7079
  868SOL    HW1 3470   0.476   0.160   0.380  0.1496  0.5622 -1.2766
  868SOL    HW2 3471   0.357   0.070   0.355  0.2100  0.0811  0.1187
  868SOL     MW 3472   0.424   0.117   0.325 -0.3375  0.3762 -0.6749
  869SOL     OW 3473   1.730   0.945   2.055  0.1116  0.4536 -0.4084
  869SOL    HW1 3474   1.647   0.983   2.024  0.8044  1.2460 -1.3560
  869SOL    HW2 3475   1.706   0.899   2.136 -1.3235  0.3388 -0.8589
  869SOL     MW 3476   1.716   0.944   2.061  0.0126  0.5401 -0.5922
  870SOL     OW 3477   2.465   0.823   2.144  0.5341  0.1271 -0.1420
  870SOL    HW1 3478   2.545   0.771   2.142  0.4066 -0.3515  2.9275
  870SOL    HW2 3479   2.488   0.902   2.192 -1.0359 -0.5818  1.9292
  870SOL     MW 3480   2.478   0.826   2.150  0.3122 -0.0291  0.5264
  871SOL     OW 3481   1.992   1.467   2.513  0.3356 -0.1845 -0.1478
  871SOL    HW1 3482   2.026   1.497   2.428 -1.0935 -0.8294 -0.9949
  871SOL    HW2 3483   2.054   1.400   2.541  1.1476  0.4454 -0.3902
  871SOL     MW 3484   2.005   1.463   2.505  0.2618 -0.1880 -0.2964
  872SOL     OW 3485   3.019   2.825   0.571 -0.4997 -0.2059  0.2691
  872SOL    HW1 3486   2.931   2.838   0.534  0.2615 -0.1690 -1.6487
  872SOL    HW2 3487   3.053   2.748   0.525  1.0237  0.6919 -0.1846
  872SOL     MW 3488   3.012   2.817   0.560 -0.2041 -0.0939 -0.0412
  873SOL     OW 3489   1.373   2.121   2.066 -0.5875 -0.1525 -0.5510
  873SOL    HW1 3490   1.431   2.073   2.007 -0.2779  0.4483 -0.7479
  873SOL    HW2 3491   1.335   2.054   2.123  0.0938 -0.5852 -0.5970
  873SOL     MW 3492   1.376   2.106   2.066 -0.4575 -0.1274 -0.5873
  874SOL     OW 3493   0.245   0.885   2.873 -0.0616  0.1720 -0.3521
  874SOL    HW1 3494   0.152   0.908   2.863 -0.2015  0.2228  0.9834
  874SOL    HW2 3495   0.285   0.962   2.914  0.4511 -0.1035 -0.3229
  874SOL     MW 3496   0.238   0.898   2.877 -0.0049  0.1379 -0.1724
  875SOL     OW 3497   0.142   1.976   0.952 -0.2605 -0.5133 -0.2328
  875SOL    HW1 3498   0.108   1.905   1.006 -1.9364 -0.4247 -1.1104
  875SOL    HW2 3499   0.104   2.056   0.990 -2.8555 -0.5667 -2.4084
  875SOL     MW 3500   0.132   1.978   0.964 -0.8313 -0.5080 -0.6357
  876SOL     OW 3501   2.596   2.507   2.399  0.3940 -0.8304  0.6592
  876SOL    HW1 3502   2.653   2.570   2.443 -3.0824  3.2214  0.0440
  876SOL    HW2 3503   2.626   2.508   2.308  0.6037 -0.3592  0.7323
  876SOL     MW 3504   2.607   2.515   2.392 -0.0443 -0.2289  0.5935
  877SOL     OW 3505   0.689   2.561   0.147 -0.0942  0.3831  0.2623
  877SOL    HW1 3506   0.662   2.577   0.238 -1.0150 -0.3953  0.1501
  877SOL    HW2 3507   0.749   2.486   0.153  0.8851  1.1593  0.3528
  877SOL     MW 3508   0.693   2.553   0.160 -0.0789  0.3791  0.2589
  878SOL     OW 3509   0.483   1.164   1.199 -0.8787  0.9411  0.1739
  878SOL    HW1 3510   0.495   1.146   1.292  0.9152 -0.1596 -0.2113
  878SOL    HW2 3511   0.571   1.182   1.166 -1.2926  0.0884 -1.5390
  878SOL     MW 3512   0.496   1.164   1.207 -0.6996  0.6886 -0.0997
  879SOL     OW 3513   2.138   1.832   1.718 -0.4412  0.2210  0.6304
  879SOL    HW1 3514   2.156   1.926   1.725  3.7581 -0.2452 -1.0188
  879SOL    HW2 3515   2.204   1.791   1.774 -1.0791 -1.7808 -0.0131
  879SOL     MW 3516   2.149   1.839   1.726  0.0266 -0.1122  0.3150
  880SOL     OW 3517   0.719   0.433   2.020 -0.1116 -0.0444 -0.1479
  880SOL    HW1 3518   0.666   0.426   2.100 -0.7966  0.5848 -0.5460
  880SOL    HW2 3519   0.809   0.435   2.052 -0.1936 -2.5673  0.4724
  880SOL     MW 3520   0.724   0.432   2.035 -0.2111 -0.2977 -0.1211
  881SOL     OW 3521   1.775   2.786   1.623 -0.5536 -0.7218  0.2738
  881SOL    HW1 3522   1.767   2.816   1.532 -1.7866 -0.2999  0.5094
  881SOL    HW2 3523   1.695   2.817   1.666 -1.0630 -2.8514  0.9606
  881SOL     MW 3524   1.764   2.794   1.617 -0.7841 -0.9485  0.3884
  882SOL     OW 3525   1.066   1.315   0.016 -0.2674 -0.1901 -0.4144
  882SOL    HW1 3526   1.041   1.240   0.071 -0.4085  0.1991  0.0577
  882SOL    HW2 3527   1.143   1.285  -0.032 -0.0765 -0.5014  0.0809
  882SOL     MW 3528   1.073   1.301   0.017 -0.2531 -0.1822 -0.2883
  883SOL     OW 3529   2.865   1.391   1.647  0.1755  0.7564  0.4495
  883SOL    HW1 3530   2.826   1.312   1.683  1.9423 -0.1426  0.4775
  883SOL    HW2 3531   2.947   1.402   1.695  0.2725  2.2656  0.0127
  883SOL     MW 3532   2.870   1.382   1.658  0.4232  0.8398  0.3951
  884SOL     OW 3533   0.386   1.642   2.431  0.1329 -0.3806 -0.2999
  884SOL    HW1 3534   0.326   1.571   2.411  0.0946 -0.4742  0.1303
  884SOL    HW2 3535   0.472   1.608   2.409  0.1490 -0.6848  0.2167
  884SOL     MW 3536   0.389   1.628   2.425  0.1284 -0.4299 -0.1733
  885SOL     OW 3537   0.423   1.167   0.349 -0.1054  0.0958  0.1629
  885SOL    HW1 3538   0.419   1.072   0.361  1.1209  0.2697  2.9059
  885SOL    HW2 3539   0.474   1.179   0.269  0.8239 -1.5978  0.4451
  885SOL     MW 3540   0.429   1.156   0.340  0.1791 -0.1013  0.5587
  886SOL     OW 3541   2.824   1.620   1.167  0.0529 -0.5356  0.2502
  886SOL    HW1 3542   2.838   1.578   1.251 -0.8504 -1.6952 -0.1587
  886SOL    HW2 3543   2.749   1.574   1.129 -1.7627  2.1605  0.2599
  886SOL     MW 3544   2.816   1.609   1.173 -0.3138 -0.3269  0.1972
  887SOL     OW 3545   1.283   2.178   0.496  0.3495  0.7480 -0.1738
  887SOL    HW1 3546   1.199   2.220   0.513  0.2797  1.7550 -2.5893
  887SOL    HW2 3547   1.259   2.091   0.462  0.3695  0.3704  0.7446
  887SOL     MW 3548   1.269   2.172   0.494  0.3396  0.8342 -0.3766
  888SOL     OW 3549   0.332   1.314   1.028  0.0206  0.0146  0.6248
  888SOL    HW1 3550   0.324   1.408   1.044 -1.0672 -0.0966  0.7855
  888SOL    HW2 3551   0.380   1.281   1.104 -0.1820  0.3399  0.8982
  888SOL     MW 3552   0.337   1.322   1.040 -0.1460  0.0420  0.6800
  889SOL     OW 3553   0.687   1.124   1.664 -0.6415  0.3937 -0.2261
  889SOL    HW1 3554   0.697   1.092   1.753 -0.9398 -1.1474 -0.7209
  889SOL    HW2 3555   0.761   1.183   1.652 -0.3806  0.3234  0.9105
  889SOL     MW 3556   0.698   1.128   1.674 -0.6430  0.1811 -0.1522
  890SOL     OW 3557   1.101   2.705   2.390  0.1392 -0.1801  0.9929
  890SOL    HW1 3558   1.077   2.669   2.475  1.0695  1.3033  1.9249
  890SOL    HW2 3559   1.132   2.793   2.409  0.5590  0.1159 -0.8694
  890SOL     MW 3560   1.102   2.712   2.404  0.3225  0.0596  0.8678
  891SOL     OW 3561   0.928   0.204   2.894 -0.0784  0.4602 -0.5858
  891SOL    HW1 3562   0.964   0.133   2.840 -1.0170 -0.7540  0.3406
  891SOL    HW2 3563   0.870   0.161   2.956 -0.5310  2.0324  0.1471
  891SOL     MW 3564   0.925   0.189   2.895 -0.2632  0.5049 -0.3604
  892SOL     OW 3565   1.254   0.691   0.567 -0.0871  0.0258 -0.0307
  892SOL    HW1 3566   1.333   0.638   0.573 -0.5062 -0.5824  0.3235
  892SOL    HW2 3567   1.199   0.659   0.639 -1.5110 -1.0247 -1.5198
  892SOL     MW 3568   1.257   0.680   0.577 -0.3192 -0.2006 -0.1870
  893SOL     OW 3569   0.845   1.583   2.167 -0.3258 -0.3156 -0.4805
  893SOL    HW1 3570   0.755   1.575   2.198 -0.6433  0.3048 -1.2219
  893SOL    HW2 3571   0.837   1.607   2.074  0.5979 -1.1758 -0.8069
  893SOL     MW 3572   0.832   1.585   2.159 -0.2522 -0.3458 -0.6268
  894SOL     OW 3573   1.139   2.743   1.930  0.0240 -0.0585  0.3034
  894SOL    HW1 3574   1.117   2.766   1.839  1.0368  0.6956  0.2291
  894SOL    HW2 3575   1.220   2.693   1.923  0.9404  1.2814  0.8660
  894SOL     MW 3576   1.147   2.740   1.917  0.2790  0.2116  0.3758
  895SOL     OW 3577   1.112   1.979   2.493  0.5262 -0.0725  0.4555
  895SOL    HW1 3578   1.048   1.934   2.438 -1.2858  1.1024  1.4944
  895SOL    HW2 3579   1.121   1.924   2.570 -0.4179  0.4882  0.9816
  895SOL     MW 3580   1.105   1.966   2.496  0.1531  0.1591  0.6530
  896SOL     OW 3581   2.681   0.391   0.750 -0.0477  0.3449 -0.6888
  896SOL    HW1 3582   2.589   0.390   0.724 -0.2772 -1.6339  0.0108
  896SOL    HW2 3583   2.730   0.389   0.668 -0.6610 -0.1981 -1.0479
  896SOL     MW 3584   2.676   0.391   0.736 -0.1630  0.0066 -0.6467
  897SOL     OW 3585   1.148   2.600   1.326  0.0408  0.2080 -0.2702
  897SOL    HW1 3586   1.080   2.666   1.311  0.6744  0.7792 -0.7173
  897SOL    HW2 3587   1.139   2.577   1.418  0.4510  1.6698  0.1710
  897SOL     MW 3588   1.138   2.606   1.336  0.1733  0.4736 -0.2717
  898SOL     OW 3589   1.793   1.072   1.069 -1.0331 -0.3271  0.0877
  898SOL    HW1 3590   1.886   1.052   1.059 -1.1745 -0.3967 -1.2912
  898SOL    HW2 3591   1.791   1.168   1.078 -0.8997 -0.1658 -1.3112
  898SOL     MW 3592   1.805   1.082   1.069 -1.0423 -0.3170 -0.2777
  899SOL     OW 3593   2.783   1.971   0.103 -0.5883  0.1966 -0.0240
  899SOL    HW1 3594   2.853   2.033   0.121  0.2701 -0.8196  0.2239
  899SOL    HW2 3595   2.784   1.959   0.009  0.4427 -0.7902  0.0982
  899SOL     MW 3596   2.792   1.978   0.093 -0.3388 -0.0644  0.0240
  900SOL     OW 3597   1.425   0.578   1.943 -0.1631  0.0686  0.0198
  900SOL    HW1 3598   1.507   0.536   1.966  0.2967 -0.0493 -1.6321
  900SOL    HW2 3599   1.358   0.512   1.959  0.3474 -0.7097 -0.8961
  900SOL     MW 3600   1.427   0.564   1.948 -0.0340 -0.0524 -0.3216
   3.00479   3.00479   3.00479
