GROningen MAchine for Chemical Simulation
    6
    1LIG      C    1   2.465   2.503   2.485
    1LIG      H    2   2.643   2.490   2.572
    1LIG      H    3   2.425   2.484   2.385
    1LIG      H    4   2.414   2.438   2.559
    1LIG      O    5   2.606   2.475   2.485
    1LIG      H    6   2.448   2.609   2.513
   0.00000   0.00000   0.00000
