[moleculetype]

met      3

[atoms]
  1   trap_016   1  met     C     1       0.24    15.03500
  2   trap_014   1  met     O     1      -0.646    15.99940
  3   trap_015   1  met     H     1       0.406     1.00800

[ constraints ]
1    2    1    0.143
2    3    1    0.0945

[angles]
     1     2     3     1

[ exclusions ]
1       2       3
2       1       3
3       1       2

