[defaults]
;nbfunc       comb-rule        gen-pairs      fudgeLJ  fudgeQQ
1                  2              yes           0.5       0.5

[ atomtypes ]
; name  bond_type    mass    charge   ptype        sigma(nm)      epsilon(KJ/mol)
 trap_001   CM    16.04300       0.000       A        3.73000e-01      1.2305
 trap_002   CA    15.03500       0.000       A        3.79000e-01      8.3300e-01
 trap_003   CB    14.02700       0.000       A        3.99000e-01      3.920e-01
 trap_004   CC    13.01900       0.000       A        4.73000e-01      0.850e-01
 trap_005   CD    12.01100       0.000       A        6.46000e-01      0.0426e-01
 trap_006   CB    14.02700       0.000       A        3.92000e-01      4.5000e-01
 trap_007   CE    14.02700       0.000       A        3.67500e-01      7.0669e-01
 trap_008   CE    13.01900       0.000       A        3.73000e-01      3.90760e-01
 trap_009   CF    13.01900       0.000       A        3.71000e-01      4.3233e-01
 trap_010   CE    12.01100       0.000       A        3.85000e-01      1.6628e-01
 trap_011   CF    12.01100       0.000       A        3.85000e-01      1.8291e-01
 trap_012   CG    13.01900       0.000       A        3.31500e-01      6.28e-01
 trap_013   CG    12.01100       0.000       A        3.90000e-01      3.8e-01
 trap_014   OH    15.99940      -0.646       A             0.2853      0.7733
 trap_015   HO     1.00800       0.406       A        0.00000e-01      0.00000e-01
 trap_016   CA    15.03500        0.24       A        3.79000e-01      8.3300e-01
 trap_017   CB    14.02700        0.24       A        3.99000e-01      3.920e-01
 trap_018   CC    13.01900        0.24       A        4.33000e-01      0.850e-01
 trap_019   CD    12.01100        0.24       A        5.80000e-01      0.0426e-01
 trap_000   HC     1.00800       0.000       A        0.0              0.0
 trap_020   OK    15.99940      -0.4613      A        0.3026           0.8054
 trap_021   CK    12.01100       0.4613      A        0.382            0.333
 trap_023   NH    14.00670      -0.871       A        0.34             0.814
 trap_024   HN     1.00800       0.379       A        0.0              0.0


[ bondtypes ]
;bond                ftype  bond         lenght/nm
  CA    CA              1   0.154         169452
  CA    CB              1   0.154         169452
  CB    CB              1   0.154         169452
  CB    CC              1   0.154         169452
  CC    CD              1   0.154         169452
  CA    CD              1   0.154         169452
  CA    CC              1   0.154         169452
  CB    CD              1   0.154         169452
  CC    CC              1   0.154         169452
  CD    CD              1   0.154         169452
  CE    CE              1   0.133         169452
  CE    CF              1   0.133         169452
  CF    CF              1   0.154         169452
  CE    CA              1   0.154         169452
  CE    CB              1   0.154         169452
  CE    CC              1   0.154         169452
  CE    CD              1   0.154         169452
  CF    CA              1   0.154         169452
  CF    CB              1   0.154         169452
  CF    CC              1   0.154         169452
  CF    CD              1   0.154         169452
  CG    CG              1   0.121         962320
  CG    CA              1   0.147         326352
  CG    CB              1   0.147         326352
  CG    CC              1   0.147         326352
  CG    CD              1   0.147         326352
  CG    CE              1   0.147         326352
  CG    CF              1   0.147         326352
  OH    HO              1   0.0945        462750.4
  OH    CA              1   0.143         323004.8
  OH    CB              1   0.143         323004.8
  OH    CC              1   0.143         323004.8
  OH    CD              1   0.143         323004.8
  OK    CK              1   0.1229        476976.0
  CK    CA              1   0.152         265265.6
  CK    CB              1   0.152         265265.6
  CK    CC              1   0.152         265265.6
  CK    CD              1   0.152         265265.6
  NH    HN              1   0.101         462750.4
  CA    NH              1   0.1448        323004.8
  CB    NH              1   0.1448        323004.8
  CC    NH              1   0.1448        323004.8
  CD    NH              1   0.1448        323004.8

[ angletypes ]
;angle               ftype  angle/deg   kteta,kj/mol
  CA     CB     CB      1   114.000      519.655
  CA     CB     CA      1   114.000      519.655
  CA     CB     CC      1   114.000      519.655
  CA     CB     CD      1   114.000      519.655
  CA     CB     CE      1   114.000      519.655
  CA     CB     CF      1   114.000      519.655
  CA     CB     CG      1   114.000      519.655
  CA     CB     CK      1   114.000      519.655
  CB     CB     CB      1   114.000      519.655
  CB     CB     CC      1   114.000      519.655
  CB     CB     CD      1   114.000      519.655
  CB     CB     CE      1   114.000      519.655
  CB     CB     CF      1   114.000      519.655
  CB     CB     CG      1   114.000      519.655
  CB     CB     CK      1   114.000      519.655
  CC     CB     CC      1   114.000      519.655
  CC     CB     CD      1   114.000      519.655
  CC     CB     CE      1   114.000      519.655
  CC     CB     CF      1   114.000      519.655
  CC     CB     CG      1   114.000      519.655
  CC     CB     CK      1   114.000      519.655
  CD     CB     CD      1   114.000      519.655
  CD     CB     CE      1   114.000      519.655
  CD     CB     CF      1   114.000      519.655
  CD     CB     CG      1   114.000      519.655
  CD     CB     CK      1   114.000      519.655
  CE     CB     CE      1   114.000      519.655
  CE     CB     CF      1   114.000      519.655
  CE     CB     CG      1   114.000      519.655
  CE     CB     CK      1   114.000      519.655
  CF     CB     CF      1   114.000      519.655
  CF     CB     CG      1   114.000      519.655
  CF     CB     CK      1   114.000      519.655
  CA     CC     CA      1   112.000      519.655
  CA     CC     CB      1   112.000      519.655
  CA     CC     CC      1   112.000      519.655
  CA     CC     CD      1   112.000      519.655
  CA     CC     CE      1   112.000      519.655
  CA     CC     CF      1   112.000      519.655
  CA     CC     CG      1   112.000      519.655
  CA     CC     CK      1   112.000      519.655
  CB     CC     CB      1   112.000      519.655
  CB     CC     CC      1   112.000      519.655
  CB     CC     CD      1   112.000      519.655
  CB     CC     CE      1   112.000      519.655
  CB     CC     CF      1   112.000      519.655
  CB     CC     CG      1   112.000      519.655
  CB     CC     CK      1   112.000      519.655
  CC     CC     CC      1   112.000      519.655
  CC     CC     CD      1   112.000      519.655
  CC     CC     CE      1   112.000      519.655
  CC     CC     CF      1   112.000      519.655
  CC     CC     CG      1   112.000      519.655
  CC     CC     CK      1   112.000      519.655
  CD     CC     CD      1   112.000      519.655
  CD     CC     CE      1   112.000      519.655
  CD     CC     CF      1   112.000      519.655
  CD     CC     CG      1   112.000      519.655
  CD     CC     CK      1   112.000      519.655
  CE     CC     CE      1   112.000      519.655
  CE     CC     CF      1   112.000      519.655
  CE     CC     CG      1   112.000      519.655
  CE     CC     CK      1   112.000      519.655
  CF     CC     CF      1   112.000      519.655
  CF     CC     CG      1   112.000      519.655
  CF     CC     CK      1   112.000      519.655
  CA     CD     CA      1   109.470      519.655
  CA     CD     CB      1   109.470      519.655
  CA     CD     CC      1   109.470      519.655
  CA     CD     CD      1   109.470      519.655
  CA     CD     CE      1   109.470      519.655
  CA     CD     CF      1   109.470      519.655
  CA     CD     CG      1   109.470      519.655
  CA     CD     CK      1   109.470      519.655
  CB     CD     CB      1   109.470      519.655
  CB     CD     CC      1   109.470      519.655
  CB     CD     CD      1   109.470      519.655
  CB     CD     CE      1   109.470      519.655
  CB     CD     CF      1   109.470      519.655
  CB     CD     CG      1   109.470      519.655
  CB     CD     CK      1   109.470      519.655
  CC     CD     CC      1   109.470      519.655
  CC     CD     CD      1   109.470      519.655
  CC     CD     CE      1   109.470      519.655
  CC     CD     CF      1   109.470      519.655
  CC     CD     CG      1   109.470      519.655
  CC     CD     CK      1   109.470      519.655
  CD     CD     CD      1   109.470      519.655
  CD     CD     CE      1   109.470      519.655
  CD     CD     CF      1   109.470      519.655
  CD     CD     CG      1   109.470      519.655
  CD     CD     CK      1   109.470      519.655
  CE     CD     CE      1   109.470      519.655
  CE     CD     CF      1   109.470      519.655
  CE     CD     CG      1   109.470      519.655
  CE     CD     CK      1   109.470      519.655
  CF     CD     CF      1   109.470      519.655
  CF     CD     CG      1   109.470      519.655
  CF     CD     CK      1   109.470      519.655
  CE     CE     CA      1   119.700      585.470
  CE     CE     CB      1   119.700      585.470
  CE     CE     CC      1   119.700      585.470
  CE     CE     CD      1   119.700      585.470
  CF     CE     CA      1   119.700      585.470
  CF     CE     CB      1   119.700      585.470
  CF     CE     CC      1   119.700      585.470
  CF     CE     CD      1   119.700      585.470
  CA     CE     CA      1   119.700      585.470
  CA     CE     CB      1   119.700      585.470
  CA     CE     CC      1   119.700      585.470
  CA     CE     CD      1   119.700      585.470
  CB     CE     CB      1   119.700      585.470
  CB     CE     CC      1   119.700      585.470
  CB     CE     CD      1   119.700      585.470
  CC     CE     CC      1   119.700      585.470
  CC     CE     CD      1   119.700      585.470
  CD     CE     CD      1   119.700      585.470
  CE     CF     CA      1   119.700      585.470
  CE     CF     CB      1   119.700      585.470
  CE     CF     CC      1   119.700      585.470
  CE     CF     CD      1   119.700      585.470
  CE     CF     CF      1   119.700      585.470
  CG     CG     CA      1   180.000     1255.200
  CG     CG     CB      1   180.000     1255.200
  CG     CG     CC      1   180.000     1255.200
  CG     CG     CD      1   180.000     1255.200
  CG     CG     CE      1   180.000     1255.200
  CG     CG     CF      1   180.000     1255.200
  CA     CB     OH      1   109.470     419.0513
  CA     CC     OH      1   109.470     419.0513
  CA     CD     OH      1   109.470     419.0513
  CB     CB     OH      1   109.470     419.0513
  CB     CC     OH      1   109.470     419.0513
  CB     CD     OH      1   109.470     419.0513
  CC     CB     OH      1   109.470     419.0513
  CC     CC     OH      1   109.470     419.0513
  CC     CD     OH      1   109.470     419.0513
  CD     CB     OH      1   109.470     419.0513
  CD     CC     OH      1   109.470     419.0513
  CD     CD     OH      1   109.470     419.0513
  CA     OH     HO      1   108.500     460.6238
  CB     OH     HO      1   108.500     460.6238
  CC     OH     HO      1   108.500     460.6238
  CD     OH     HO      1   108.500     460.6238
  CA     CK     OK      1   121.400     519.6250
  CB     CK     OK      1   121.400     519.6250
  CC     CK     OK      1   121.400     519.6250
  CD     CK     OK      1   121.400     519.6250
  CA     CK     CA      1   117.200     519.6250
  CA     CK     CB      1   117.200     519.6250
  CA     CK     CC      1   117.200     519.6250
  CA     CK     CD      1   117.200     519.6250
  CB     CK     CA      1   117.200     519.6250
  CB     CK     CB      1   117.200     519.6250
  CB     CK     CC      1   117.200     519.6250
  CB     CK     CD      1   117.200     519.6250
  CC     CK     CA      1   117.200     519.6250
  CC     CK     CB      1   117.200     519.6250
  CC     CK     CC      1   117.200     519.6250
  CC     CK     CD      1   117.200     519.6250
  CD     CK     CA      1   117.200     519.6250
  CD     CK     CB      1   117.200     519.6250
  CD     CK     CC      1   117.200     519.6250
  CD     CK     CD      1   117.200     519.6250
  HN     NH     HN      1   106.400     364.8400
  CA     NH     HN      1   109.500     292.8800
  CB     NH     HN      1   109.500     292.8800
  CC     NH     HN      1   109.500     292.8800
  CD     NH     HN      1   109.500     292.8800
  CA     CB     NH      1   109.470     470.2810
  CB     CB     NH      1   109.470     470.2810
  CC     CB     NH      1   109.470     470.2810
  CA     CB     NH      1   109.470     470.2810
  CA     CC     NH      1   109.470     470.2810
  CB     CC     NH      1   109.470     470.2810
  CC     CC     NH      1   109.470     470.2810
  CA     CC     NH      1   109.470     470.2810
  CA     CD     NH      1   109.470     470.2810
  CB     CD     NH      1   109.470     470.2810
  CC     CD     NH      1   109.470     470.2810
  CA     CD     NH      1   109.470     470.2810

[ dihedraltypes ]
CA     CB     CB    CA     3     8.397      16.785       1.134        -26.316     0.00     0.00
CA     CB     CB    CB     3     8.397      16.785       1.134        -26.316     0.00     0.00
CA     CB     CB    CC     3     8.397      16.785       1.134        -26.316     0.00     0.00
CA     CB     CB    CD     3     8.397      16.785       1.134        -26.316     0.00     0.00
CA     CB     CB    CE     3     8.397      16.785       1.134        -26.316     0.00     0.00
CA     CB     CB    CF     3     8.397      16.785       1.134        -26.316     0.00     0.00
CB     CB     CB    CB     3     8.397      16.785       1.134        -26.316     0.00     0.00
CB     CB     CB    CC     3     8.397      16.785       1.134        -26.316     0.00     0.00
CB     CB     CB    CD     3     8.397      16.785       1.134        -26.316     0.00     0.00
CB     CB     CB    CE     3     8.397      16.785       1.134        -26.316     0.00     0.00
CB     CB     CB    CF     3     8.397      16.785       1.134        -26.316     0.00     0.00
CC     CB     CB    CC     3     8.397      16.785       1.134        -26.316     0.00     0.00
CC     CB     CB    CD     3     8.397      16.785       1.134        -26.316     0.00     0.00
CC     CB     CB    CE     3     8.397      16.785       1.134        -26.316     0.00     0.00
CC     CB     CB    CF     3     8.397      16.785       1.134        -26.316     0.00     0.00
CD     CB     CB    CD     3     8.397      16.785       1.134        -26.316     0.00     0.00
CD     CB     CB    CE     3     8.397      16.785       1.134        -26.316     0.00     0.00
CD     CB     CB    CF     3     8.397      16.785       1.134        -26.316     0.00     0.00
CE     CB     CB    CE     3     8.397      16.785       1.134        -26.316     0.00     0.00
CE     CB     CB    CF     3     8.397      16.785       1.134        -26.316     0.00     0.00
CF     CB     CB    CF     3     8.397      16.785       1.134        -26.316     0.00     0.00
CG     CB     CB    CA     3     8.397      16.785       1.134        -26.316     0.00     0.00
CG     CB     CB    CB     3     8.397      16.785       1.134        -26.316     0.00     0.00
CG     CB     CB    CC     3     8.397      16.785       1.134        -26.316     0.00     0.00
CG     CB     CB    CD     3     8.397      16.785       1.134        -26.316     0.00     0.00
CG     CB     CB    CE     3     8.397      16.785       1.134        -26.316     0.00     0.00
CG     CB     CB    CF     3     8.397      16.785       1.134        -26.316     0.00     0.00
CG     CB     CB    CG     3     8.397      16.785       1.134        -26.316     0.00     0.00
CA     CB     CC    CA     3     3.286       7.442       1.86         -14.675     0.00     0.00
CA     CB     CC    CB     3     3.286       7.442       1.86         -14.675     0.00     0.00
CA     CB     CC    CC     3     3.286       7.442       1.86         -14.675     0.00     0.00
CA     CB     CC    CD     3     3.286       7.442       1.86         -14.675     0.00     0.00
CA     CB     CC    CE     3     3.286       7.442       1.86         -14.675     0.00     0.00
CA     CB     CC    CF     3     3.286       7.442       1.86         -14.675     0.00     0.00
CB     CB     CC    CA     3     3.286       7.442       1.86         -14.675     0.00     0.00
CB     CB     CC    CB     3     3.286       7.442       1.86         -14.675     0.00     0.00
CB     CB     CC    CC     3     3.286       7.442       1.86         -14.675     0.00     0.00
CB     CB     CC    CD     3     3.286       7.442       1.86         -14.675     0.00     0.00
CB     CB     CC    CE     3     3.286       7.442       1.86         -14.675     0.00     0.00
CB     CB     CC    CF     3     3.286       7.442       1.86         -14.675     0.00     0.00
CC     CB     CC    CA     3     3.286       7.442       1.86         -14.675     0.00     0.00
CC     CB     CC    CB     3     3.286       7.442       1.86         -14.675     0.00     0.00
CC     CB     CC    CC     3     3.286       7.442       1.86         -14.675     0.00     0.00
CC     CB     CC    CD     3     3.286       7.442       1.86         -14.675     0.00     0.00
CC     CB     CC    CE     3     3.286       7.442       1.86         -14.675     0.00     0.00
CC     CB     CC    CF     3     3.286       7.442       1.86         -14.675     0.00     0.00
CD     CB     CC    CA     3     3.286       7.442       1.86         -14.675     0.00     0.00
CD     CB     CC    CB     3     3.286       7.442       1.86         -14.675     0.00     0.00
CD     CB     CC    CC     3     3.286       7.442       1.86         -14.675     0.00     0.00
CD     CB     CC    CD     3     3.286       7.442       1.86         -14.675     0.00     0.00
CD     CB     CC    CE     3     3.286       7.442       1.86         -14.675     0.00     0.00
CD     CB     CC    CF     3     3.286       7.442       1.86         -14.675     0.00     0.00
CE     CB     CC    CE     3     3.286       7.442       1.86         -14.675     0.00     0.00
CE     CB     CC    CF     3     3.286       7.442       1.86         -14.675     0.00     0.00
CF     CB     CC    CF     3     3.286       7.442       1.86         -14.675     0.00     0.00
CG     CB     CC    CA     3     3.286       7.442       1.86         -14.675     0.00     0.00
CG     CB     CC    CB     3     3.286       7.442       1.86         -14.675     0.00     0.00
CG     CB     CC    CC     3     3.286       7.442       1.86         -14.675     0.00     0.00
CG     CB     CC    CD     3     3.286       7.442       1.86         -14.675     0.00     0.00
CG     CB     CC    CE     3     3.286       7.442       1.86         -14.675     0.00     0.00
CG     CB     CC    CF     3     3.286       7.442       1.86         -14.675     0.00     0.00
CG     CB     CC    CG     3     3.286       7.442       1.86         -14.675     0.00     0.00
CA     CB     CC    CG     3     3.286       7.442       1.86         -14.675     0.00     0.00
CB     CB     CC    CG     3     3.286       7.442       1.86         -14.675     0.00     0.00
CC     CB     CC    CG     3     3.286       7.442       1.86         -14.675     0.00     0.00
CD     CB     CC    CG     3     3.286       7.442       1.86         -14.675     0.00     0.00
CE     CB     CC    CG     3     3.286       7.442       1.86         -14.675     0.00     0.00
CF     CB     CC    CG     3     3.286       7.442       1.86         -14.675     0.00     0.00
CA     CB     CD    CA     3     3.835      11.505       0.00         -15.341     0.00     0.00
CA     CB     CD    CB     3     3.835      11.505       0.00         -15.341     0.00     0.00
CA     CB     CD    CC     3     3.835      11.505       0.00         -15.341     0.00     0.00
CA     CB     CD    CD     3     3.835      11.505       0.00         -15.341     0.00     0.00
CA     CB     CD    CE     3     3.835      11.505       0.00         -15.341     0.00     0.00
CA     CB     CD    CF     3     3.835      11.505       0.00         -15.341     0.00     0.00
CB     CB     CD    CA     3     3.835      11.505       0.00         -15.341     0.00     0.00
CB     CB     CD    CB     3     3.835      11.505       0.00         -15.341     0.00     0.00
CB     CB     CD    CC     3     3.835      11.505       0.00         -15.341     0.00     0.00
CB     CB     CD    CD     3     3.835      11.505       0.00         -15.341     0.00     0.00
CB     CB     CD    CE     3     3.835      11.505       0.00         -15.341     0.00     0.00
CB     CB     CD    CF     3     3.835      11.505       0.00         -15.341     0.00     0.00
CC     CB     CD    CA     3     3.835      11.505       0.00         -15.341     0.00     0.00
CC     CB     CD    CB     3     3.835      11.505       0.00         -15.341     0.00     0.00
CC     CB     CD    CC     3     3.835      11.505       0.00         -15.341     0.00     0.00
CC     CB     CD    CD     3     3.835      11.505       0.00         -15.341     0.00     0.00
CC     CB     CD    CE     3     3.835      11.505       0.00         -15.341     0.00     0.00
CC     CB     CD    CF     3     3.835      11.505       0.00         -15.341     0.00     0.00
CD     CB     CD    CA     3     3.835      11.505       0.00         -15.341     0.00     0.00
CD     CB     CD    CB     3     3.835      11.505       0.00         -15.341     0.00     0.00
CD     CB     CD    CC     3     3.835      11.505       0.00         -15.341     0.00     0.00
CD     CB     CD    CD     3     3.835      11.505       0.00         -15.341     0.00     0.00
CD     CB     CD    CE     3     3.835      11.505       0.00         -15.341     0.00     0.00
CD     CB     CD    CF     3     3.835      11.505       0.00         -15.341     0.00     0.00
CE     CB     CD    CE     3     3.835      11.505       0.00         -15.341     0.00     0.00
CE     CB     CD    CF     3     3.835      11.505       0.00         -15.341     0.00     0.00
CF     CB     CD    CF     3     3.835      11.505       0.00         -15.341     0.00     0.00
CG     CB     CD    CA     3     3.835      11.505       0.00         -15.341     0.00     0.00
CG     CB     CD    CB     3     3.835      11.505       0.00         -15.341     0.00     0.00
CG     CB     CD    CC     3     3.835      11.505       0.00         -15.341     0.00     0.00
CG     CB     CD    CD     3     3.835      11.505       0.00         -15.341     0.00     0.00
CG     CB     CD    CE     3     3.835      11.505       0.00         -15.341     0.00     0.00
CG     CB     CD    CF     3     3.835      11.505       0.00         -15.341     0.00     0.00
CA     CB     CD    CG     3     3.286       7.442       1.86         -14.675     0.00     0.00
CB     CB     CD    CG     3     3.286       7.442       1.86         -14.675     0.00     0.00
CC     CB     CD    CG     3     3.286       7.442       1.86         -14.675     0.00     0.00
CD     CB     CD    CG     3     3.286       7.442       1.86         -14.675     0.00     0.00
CE     CB     CD    CG     3     3.286       7.442       1.86         -14.675     0.00     0.00
CF     CB     CD    CG     3     3.286       7.442       1.86         -14.675     0.00     0.00
CG     CB     CD    CG     3     3.286       7.442       1.86         -14.675     0.00     0.00
CA     CC     CC    CA     3     3.286       7.442       1.86         -14.675     0.00     0.00
CA     CC     CC    CB     3     3.286       7.442       1.86         -14.675     0.00     0.00
CA     CC     CC    CC     3     3.286       7.442       1.86         -14.675     0.00     0.00
CA     CC     CC    CD     3     3.286       7.442       1.86         -14.675     0.00     0.00
CA     CC     CC    CE     3     3.286       7.442       1.86         -14.675     0.00     0.00
CA     CC     CC    CF     3     3.286       7.442       1.86         -14.675     0.00     0.00
CB     CC     CC    CB     3     3.286       7.442       1.86         -14.675     0.00     0.00
CB     CC     CC    CC     3     3.286       7.442       1.86         -14.675     0.00     0.00
CB     CC     CC    CD     3     3.286       7.442       1.86         -14.675     0.00     0.00
CB     CC     CC    CE     3     3.286       7.442       1.86         -14.675     0.00     0.00
CB     CC     CC    CF     3     3.286       7.442       1.86         -14.675     0.00     0.00
CC     CC     CC    CC     3     3.286       7.442       1.86         -14.675     0.00     0.00
CC     CC     CC    CD     3     3.286       7.442       1.86         -14.675     0.00     0.00
CC     CC     CC    CE     3     3.286       7.442       1.86         -14.675     0.00     0.00
CC     CC     CC    CF     3     3.286       7.442       1.86         -14.675     0.00     0.00
CD     CC     CC    CD     3     3.286       7.442       1.86         -14.675     0.00     0.00
CD     CC     CC    CE     3     3.286       7.442       1.86         -14.675     0.00     0.00
CD     CC     CC    CF     3     3.286       7.442       1.86         -14.675     0.00     0.00
CE     CC     CC    CE     3     3.286       7.442       1.86         -14.675     0.00     0.00
CE     CC     CC    CF     3     3.286       7.442       1.86         -14.675     0.00     0.00
CF     CC     CC    CF     3     3.286       7.442       1.86         -14.675     0.00     0.00
CG     CC     CC    CA     3     3.286       7.442       1.86         -14.675     0.00     0.00
CG     CC     CC    CB     3     3.286       7.442       1.86         -14.675     0.00     0.00
CG     CC     CC    CC     3     3.286       7.442       1.86         -14.675     0.00     0.00
CG     CC     CC    CD     3     3.286       7.442       1.86         -14.675     0.00     0.00
CG     CC     CC    CE     3     3.286       7.442       1.86         -14.675     0.00     0.00
CG     CC     CC    CF     3     3.286       7.442       1.86         -14.675     0.00     0.00
CG     CC     CC    CG     3     3.286       7.442       1.86         -14.675     0.00     0.00
CA     CC     CD    CA     3     3.835      11.505       0.00         -15.341     0.00     0.00
CA     CC     CD    CB     3     3.835      11.505       0.00         -15.341     0.00     0.00
CA     CC     CD    CC     3     3.835      11.505       0.00         -15.341     0.00     0.00
CA     CC     CD    CD     3     3.835      11.505       0.00         -15.341     0.00     0.00
CA     CC     CD    CE     3     3.835      11.505       0.00         -15.341     0.00     0.00
CA     CC     CD    CF     3     3.835      11.505       0.00         -15.341     0.00     0.00
CB     CC     CD    CA     3     3.835      11.505       0.00         -15.341     0.00     0.00
CB     CC     CD    CB     3     3.835      11.505       0.00         -15.341     0.00     0.00
CB     CC     CD    CC     3     3.835      11.505       0.00         -15.341     0.00     0.00
CB     CC     CD    CD     3     3.835      11.505       0.00         -15.341     0.00     0.00
CB     CC     CD    CE     3     3.835      11.505       0.00         -15.341     0.00     0.00
CB     CC     CD    CF     3     3.835      11.505       0.00         -15.341     0.00     0.00
CC     CC     CD    CA     3     3.835      11.505       0.00         -15.341     0.00     0.00
CC     CC     CD    CB     3     3.835      11.505       0.00         -15.341     0.00     0.00
CC     CC     CD    CC     3     3.835      11.505       0.00         -15.341     0.00     0.00
CC     CC     CD    CD     3     3.835      11.505       0.00         -15.341     0.00     0.00
CC     CC     CD    CE     3     3.835      11.505       0.00         -15.341     0.00     0.00
CC     CC     CD    CF     3     3.835      11.505       0.00         -15.341     0.00     0.00
CD     CC     CD    CA     3     3.835      11.505       0.00         -15.341     0.00     0.00
CD     CC     CD    CB     3     3.835      11.505       0.00         -15.341     0.00     0.00
CD     CC     CD    CC     3     3.835      11.505       0.00         -15.341     0.00     0.00
CD     CC     CD    CD     3     3.835      11.505       0.00         -15.341     0.00     0.00
CD     CC     CD    CE     3     3.835      11.505       0.00         -15.341     0.00     0.00
CD     CC     CD    CF     3     3.835      11.505       0.00         -15.341     0.00     0.00
CE     CC     CD    CE     3     3.835      11.505       0.00         -15.341     0.00     0.00
CE     CC     CD    CF     3     3.835      11.505       0.00         -15.341     0.00     0.00
CF     CC     CD    CF     3     3.835      11.505       0.00         -15.341     0.00     0.00
CG     CC     CD    CA     3     3.835      11.505       0.00         -15.341     0.00     0.00
CG     CC     CD    CB     3     3.835      11.505       0.00         -15.341     0.00     0.00
CG     CC     CD    CC     3     3.835      11.505       0.00         -15.341     0.00     0.00
CG     CC     CD    CD     3     3.835      11.505       0.00         -15.341     0.00     0.00
CG     CC     CD    CE     3     3.835      11.505       0.00         -15.341     0.00     0.00
CG     CC     CD    CF     3     3.835      11.505       0.00         -15.341     0.00     0.00
CA     CC     CD    CG     3     3.286       7.442       1.86         -14.675     0.00     0.00
CB     CC     CD    CG     3     3.286       7.442       1.86         -14.675     0.00     0.00
CC     CC     CD    CG     3     3.286       7.442       1.86         -14.675     0.00     0.00
CD     CC     CD    CG     3     3.286       7.442       1.86         -14.675     0.00     0.00
CE     CC     CD    CG     3     3.286       7.442       1.86         -14.675     0.00     0.00
CF     CC     CD    CG     3     3.286       7.442       1.86         -14.675     0.00     0.00
CG     CC     CD    CG     3     3.286       7.442       1.86         -14.675     0.00     0.00
CE     CE     CB    CA     3     2.270      -7.758      1.825          9.386      0.00     0.00
CE     CE     CB    CB     3     2.270      -7.758      1.825          9.386      0.00     0.00
CE     CE     CB    CC     3     2.270      -7.758      1.825          9.386      0.00     0.00
CE     CE     CB    CD     3     2.270      -7.758      1.825          9.386      0.00     0.00
CE     CE     CC    CA     3     2.270      -7.758      1.825          9.386      0.00     0.00
CE     CE     CC    CB     3     2.270      -7.758      1.825          9.386      0.00     0.00
CE     CE     CC    CC     3     2.270      -7.758      1.825          9.386      0.00     0.00
CE     CE     CC    CD     3     2.270      -7.758      1.825          9.386      0.00     0.00
CE     CE     CD    CA     3     2.270      -7.758      1.825          9.386      0.00     0.00
CE     CE     CD    CB     3     2.270      -7.758      1.825          9.386      0.00     0.00
CE     CE     CD    CC     3     2.270      -7.758      1.825          9.386      0.00     0.00
CE     CE     CD    CD     3     2.270      -7.758      1.825          9.386      0.00     0.00
CE     CF     CB    CA     3     2.270      -7.758      1.825          9.386      0.00     0.00
CE     CF     CB    CB     3     2.270      -7.758      1.825          9.386      0.00     0.00
CE     CF     CB    CC     3     2.270      -7.758      1.825          9.386      0.00     0.00
CE     CF     CB    CD     3     2.270      -7.758      1.825          9.386      0.00     0.00
CE     CF     CC    CA     3     2.270      -7.758      1.825          9.386      0.00     0.00
CE     CF     CC    CB     3     2.270      -7.758      1.825          9.386      0.00     0.00
CE     CF     CC    CC     3     2.270      -7.758      1.825          9.386      0.00     0.00
CE     CF     CC    CD     3     2.270      -7.758      1.825          9.386      0.00     0.00
CE     CF     CD    CA     3     2.270      -7.758      1.825          9.386      0.00     0.00
CE     CF     CD    CB     3     2.270      -7.758      1.825          9.386      0.00     0.00
CE     CF     CD    CC     3     2.270      -7.758      1.825          9.386      0.00     0.00
CE     CF     CD    CD     3     2.270      -7.758      1.825          9.386      0.00     0.00
CE     CF     CF    CE     3    16.9155      4.4195   -10.304          3.8248    1.6327    0.00 ; note: override for isoprene
CE     CF     CF    CA     3    15.475      -2.910     -8.719         -4.827     0.9804    0.00 
CG     CG     CB    CA     3     0.000       0.000      0.000          0.000      0.00     0.00
CG     CG     CB    CB     3     0.000       0.000      0.000          0.000      0.00     0.00
CG     CG     CB    CC     3     0.000       0.000      0.000          0.000      0.00     0.00
CG     CG     CB    CD     3     0.000       0.000      0.000          0.000      0.00     0.00
CG     CG     CB    CE     3     0.000       0.000      0.000          0.000      0.00     0.00
CG     CG     CB    CF     3     0.000       0.000      0.000          0.000      0.00     0.00
CG     CG     CB    CG     3     0.000       0.000      0.000          0.000      0.00     0.00
CG     CG     CC    CA     3     0.000       0.000      0.000          0.000      0.00     0.00
CG     CG     CC    CB     3     0.000       0.000      0.000          0.000      0.00     0.00
CG     CG     CC    CC     3     0.000       0.000      0.000          0.000      0.00     0.00
CG     CG     CC    CD     3     0.000       0.000      0.000          0.000      0.00     0.00
CG     CG     CC    CE     3     0.000       0.000      0.000          0.000      0.00     0.00
CG     CG     CC    CF     3     0.000       0.000      0.000          0.000      0.00     0.00
CG     CG     CC    CG     3     0.000       0.000      0.000          0.000      0.00     0.00
CG     CG     CD    CA     3     0.000       0.000      0.000          0.000      0.00     0.00
CG     CG     CD    CB     3     0.000       0.000      0.000          0.000      0.00     0.00
CG     CG     CD    CC     3     0.000       0.000      0.000          0.000      0.00     0.00
CG     CG     CD    CD     3     0.000       0.000      0.000          0.000      0.00     0.00
CG     CG     CD    CE     3     0.000       0.000      0.000          0.000      0.00     0.00
CG     CG     CD    CF     3     0.000       0.000      0.000          0.000      0.00     0.00
CG     CG     CD    CG     3     0.000       0.000      0.000          0.000      0.00     0.00
CA     CB     CB    OH     3     6.983       17.736     0.887         -25.606     0.00     0.00
CB     CB     CB    OH     3     6.983       17.736     0.887         -25.606     0.00     0.00
CC     CB     CB    OH     3     6.983       17.736     0.887         -25.606     0.00     0.00
CD     CB     CB    OH     3     6.983       17.736     0.887         -25.606     0.00     0.00
CA     CB     OH    HO     3     2.822       2.943      0.485         -6.250      0.00     0.00
CB     CB     OH    HO     3     2.822       2.943      0.485         -6.250      0.00     0.00
CC     CB     OH    HO     3     2.822       2.943      0.485         -6.250      0.00     0.00
CD     CB     OH    HO     3     2.822       2.943      0.485         -6.250      0.00     0.00
CA     CC     OH    HO     3     2.513      -5.979     -0.523          5.784      0.00     0.00
CB     CC     OH    HO     3     2.513      -5.979     -0.523          5.784      0.00     0.00
CC     CC     OH    HO     3     2.513      -5.979     -0.523          5.784      0.00     0.00
CD     CC     OH    HO     3     2.513      -5.979     -0.523          5.784      0.00     0.00
CA     CD     OH    HO     3     1.360       4.080      0.000         -5.440      0.00     0.00
CB     CD     OH    HO     3     1.360       4.080      0.000         -5.440      0.00     0.00
CC     CD     OH    HO     3     1.360       4.080      0.000         -5.440      0.00     0.00
CD     CD     OH    HO     3     1.360       4.080      0.000         -5.440      0.00     0.00
OH     CC     CB    CB     3     3.286	     7.442	1.860	      -14.676     0.00     0.00
OH     CC     CB    CA     3     3.286	     7.442	1.860	      -14.676     0.00     0.00
CA     CB     NH    HN     3     1.403       7.356      5.549         -5.907     -0.736   -2.932
CB     CB     NH    HN     3     1.403       7.356      5.549         -5.907     -0.736   -2.932
CC     CB     NH    HN     3     1.403       7.356      5.549         -5.907     -0.736   -2.932
CD     CB     NH    HN     3     1.403       7.356      5.549         -5.907     -0.736   -2.932
CA     CC     NH    HN     3     1.403       7.356      5.549         -5.907     -0.736   -2.932
CB     CC     NH    HN     3     1.403       7.356      5.549         -5.907     -0.736   -2.932
CC     CC     NH    HN     3     1.403       7.356      5.549         -5.907     -0.736   -2.932
CD     CC     NH    HN     3     1.403       7.356      5.549         -5.907     -0.736   -2.932
CA     CD     NH    HN     3     1.403       7.356      5.549         -5.907     -0.736   -2.932
CB     CD     NH    HN     3     1.403       7.356      5.549         -5.907     -0.736   -2.932
CC     CD     NH    HN     3     1.403       7.356      5.549         -5.907     -0.736   -2.932
CD     CD     NH    HN     3     1.403       7.356      5.549         -5.907     -0.736   -2.932
CA     CB     CB    NH     3     6.892      20.732     -1.499        -28.956     2.349    0.358
CB     CB     CB    NH     3     6.892      20.732     -1.499        -28.956     2.349    0.358
CC     CB     CB    NH     3     6.892      20.732     -1.499        -28.956     2.349    0.358
CD     CB     CB    NH     3     6.892      20.732     -1.499        -28.956     2.349    0.358
CA     CC     CB    NH     3     6.892      20.732     -1.499        -28.956     2.349    0.358
CB     CC     CB    NH     3     6.892      20.732     -1.499        -28.956     2.349    0.358
CC     CC     CB    NH     3     6.892      20.732     -1.499        -28.956     2.349    0.358
CD     CC     CB    NH     3     6.892      20.732     -1.499        -28.956     2.349    0.358
CA     CD     CB    NH     3     6.892      20.732     -1.499        -28.956     2.349    0.358
CB     CD     CB    NH     3     6.892      20.732     -1.499        -28.956     2.349    0.358
CC     CD     CB    NH     3     6.892      20.732     -1.499        -28.956     2.349    0.358
CD     CD     CB    NH     3     6.892      20.732     -1.499        -28.956     2.349    0.358
CA     CB     CC    NH     3     6.892      20.732     -1.499        -28.956     2.349    0.358
CB     CB     CC    NH     3     6.892      20.732     -1.499        -28.956     2.349    0.358
CC     CB     CC    NH     3     6.892      20.732     -1.499        -28.956     2.349    0.358
CD     CB     CC    NH     3     6.892      20.732     -1.499        -28.956     2.349    0.358
CA     CC     CC    NH     3     6.892      20.732     -1.499        -28.956     2.349    0.358
CB     CC     CC    NH     3     6.892      20.732     -1.499        -28.956     2.349    0.358
CC     CC     CC    NH     3     6.892      20.732     -1.499        -28.956     2.349    0.358
CD     CC     CC    NH     3     6.892      20.732     -1.499        -28.956     2.349    0.358
CA     CD     CC    NH     3     6.892      20.732     -1.499        -28.956     2.349    0.358
CB     CD     CC    NH     3     6.892      20.732     -1.499        -28.956     2.349    0.358
CC     CD     CC    NH     3     6.892      20.732     -1.499        -28.956     2.349    0.358
CD     CD     CC    NH     3     6.892      20.732     -1.499        -28.956     2.349    0.358
CA     CB     CD    NH     3     6.892      20.732     -1.499        -28.956     2.349    0.358
CB     CB     CD    NH     3     6.892      20.732     -1.499        -28.956     2.349    0.358
CC     CB     CD    NH     3     6.892      20.732     -1.499        -28.956     2.349    0.358
CD     CB     CD    NH     3     6.892      20.732     -1.499        -28.956     2.349    0.358
CA     CC     CD    NH     3     6.892      20.732     -1.499        -28.956     2.349    0.358
CB     CC     CD    NH     3     6.892      20.732     -1.499        -28.956     2.349    0.358
CC     CC     CD    NH     3     6.892      20.732     -1.499        -28.956     2.349    0.358
CD     CC     CD    NH     3     6.892      20.732     -1.499        -28.956     2.349    0.358
CA     CD     CD    NH     3     6.892      20.732     -1.499        -28.956     2.349    0.358
CB     CD     CD    NH     3     6.892      20.732     -1.499        -28.956     2.349    0.358
CC     CD     CD    NH     3     6.892      20.732     -1.499        -28.956     2.349    0.358
CD     CD     CD    NH     3     6.892      20.732     -1.499        -28.956     2.349    0.358

