Ethanol
23112
    1ETH     OH    1   3.889   2.218   3.094  0.0916  0.2613 -0.3347
    1ETH     CH    2   3.762   2.279   3.081 -0.1721 -0.2762 -0.3137
    1ETH     CH    3   3.710   2.247   2.941 -0.5720 -0.0461 -0.2171
    1ETH     HO    4   3.957   2.261   3.045 -0.6764  0.7310 -1.0134
    1ETH     HC    5   3.773   2.388   3.085  0.5702 -0.3993  1.8874
    1ETH     HC    6   3.694   2.256   3.163 -1.2144 -1.0758 -1.3964
    1ETH     HC    7   3.767   2.309   2.873 -1.7126  1.0316 -0.2147
    1ETH     HC    8   3.602   2.264   2.935 -0.3567  1.9037  1.0671
    1ETH     HC    9   3.724   2.142   2.916 -0.9118 -0.2861  0.5512
    2ETH     OH   10   4.539   1.136   4.110 -0.5093  0.3905 -0.0107
    2ETH     CH   11   4.586   1.246   4.184  0.3235  0.1626 -0.2001
    2ETH     CH   12   4.737   1.221   4.199  0.2432  0.0639  0.4580
    2ETH     HO   13   4.457   1.169   4.076 -0.7870  0.6316  0.8726
    2ETH     HC   14   4.580   1.341   4.131 -0.0147 -0.9937 -2.2683
    2ETH     HC   15   4.541   1.242   4.283  1.9439  0.4007  0.5643
    2ETH     HC   16   4.768   1.299   4.268 -2.4408  1.2987  0.3596
    2ETH     HC   17   4.773   1.128   4.242  0.0299 -0.1699  0.1388
    2ETH     HC   18   4.784   1.231   4.101  1.3276 -2.3369  0.7158
    3ETH     OH   19   0.356   3.904   6.065 -0.0155 -0.5299  0.4445
    3ETH     CH   20   0.372   3.913   5.925  0.6590 -0.1124  0.5512
    3ETH     CH   21   0.294   4.029   5.862  0.5103 -0.3427  0.3091
    3ETH     HO   22   0.317   3.819   6.077 -1.3868 -0.0868 -0.6823
    3ETH     HC   23   0.479   3.926   5.910  0.5756 -0.3782 -0.2776
    3ETH     HC   24   0.339   3.821   5.878 -2.4154  1.2590 -0.1271
    3ETH     HC   25   0.310   4.028   5.754  0.6324 -2.3840  0.3281
    3ETH     HC   26   0.188   4.019   5.884  0.3164  0.5222 -0.2212
    3ETH     HC   27   0.330   4.125   5.899 -0.2913 -0.6990  2.0924
    4ETH     OH   28   3.103   2.073   3.746 -0.5278  0.8725 -0.4147
    4ETH     CH   29   3.057   1.948   3.701  0.8541  0.1902  0.0334
    4ETH     CH   30   3.146   1.830   3.740 -0.2490 -0.7188 -0.1464
    4ETH     HO   31   3.065   2.086   3.832  0.5818 -1.6456  0.4962
    4ETH     HC   32   2.951   1.927   3.721  1.1790 -2.6627 -0.9620
    4ETH     HC   33   3.067   1.949   3.592 -2.9937 -1.1779 -0.4355
    4ETH     HC   34   3.242   1.843   3.689 -0.0882 -0.2803  0.2600
    4ETH     HC   35   3.159   1.819   3.848  3.4886 -1.6243 -0.6260
    4ETH     HC   36   3.095   1.745   3.697  0.0718 -0.9682 -0.0361
    5ETH     OH   37   2.214   0.092   4.091  0.2921 -0.3691  0.2632
    5ETH     CH   38   2.226   0.029   4.217  0.3472  0.1920  0.5417
    5ETH     CH   39   2.122   0.071   4.320 -0.1481  0.3154 -0.0032
    5ETH     HO   40   2.253   0.177   4.104  0.9962 -0.4050 -1.4914
    5ETH     HC   41   2.211  -0.077   4.197  0.8818  0.2551 -0.2249
    5ETH     HC   42   2.327   0.048   4.255  0.3107 -1.5167  1.5435
    5ETH     HC   43   2.120   0.178   4.339 -1.5677 -0.0023  1.8708
    5ETH     HC   44   2.026   0.047   4.275 -0.6087 -1.5153  1.8549
    5ETH     HC   45   2.139   0.021   4.416  1.0425  1.4613  0.3979
    6ETH     OH   46   4.413   3.424   0.499  0.0299 -0.1960 -0.2715
    6ETH     CH   47   4.527   3.411   0.581  0.0206  0.3383 -0.1759
    6ETH     CH   48   4.595   3.278   0.548 -0.0742  0.1804  0.2543
    6ETH     HO   49   4.425   3.383   0.414  0.0026  0.9097 -0.8151
    6ETH     HC   50   4.592   3.498   0.567  1.4622 -0.9366 -1.5649
    6ETH     HC   51   4.492   3.415   0.685 -0.7755  0.3538 -0.4444
    6ETH     HC   52   4.542   3.191   0.585  0.4638  1.2819  3.8581
    6ETH     HC   53   4.613   3.264   0.442 -1.8255 -2.1834  0.2407
    6ETH     HC   54   4.687   3.278   0.606  0.7849 -2.8920 -1.0295
    7ETH     OH   55   3.216   0.801   2.719  0.1452  0.4103  0.8141
    7ETH     CH   56   3.272   0.671   2.725 -0.2531  0.1594 -0.6537
    7ETH     CH   57   3.301   0.656   2.874 -1.0947  0.5372 -0.4441
    7ETH     HO   58   3.258   0.852   2.651  0.1476 -3.4823 -2.3140
    7ETH     HC   59   3.187   0.607   2.703  1.0099 -2.0440  0.6909
    7ETH     HC   60   3.358   0.640   2.666  0.4836 -0.7116  0.8454
    7ETH     HC   61   3.374   0.726   2.915 -0.3517  0.5007 -1.6794
    7ETH     HC   62   3.220   0.681   2.942 -1.0661 -1.8083  0.5129
    7ETH     HC   63   3.344   0.558   2.897 -1.4728  0.5282  0.2326
    8ETH     OH   64   1.991   5.022   2.763 -0.2336  0.0675 -0.3530
    8ETH     CH   65   2.068   5.112   2.839 -1.0827  0.2233  0.3236
    8ETH     CH   66   1.993   5.241   2.872 -0.3751  0.7012  0.0871
    8ETH     HO   67   1.984   5.063   2.678 -1.3057 -0.0893 -0.3483
    8ETH     HC   68   2.094   5.073   2.938  0.8466  2.2032  0.6518
    8ETH     HC   69   2.161   5.137   2.788 -0.4794 -0.6266  0.9765
    8ETH     HC   70   1.889   5.225   2.903 -0.9689 -0.0832 -2.2452
    8ETH     HC   71   2.041   5.304   2.947 -0.8324  0.5175  0.5414
    8ETH     HC   72   1.980   5.309   2.788  0.1168  0.0574 -0.5109
    9ETH     OH   73   3.115   3.463   4.947  0.0734 -0.3813 -0.2609
    9ETH     CH   74   3.187   3.437   5.065 -0.0907 -0.1471 -0.1078
    9ETH     CH   75   3.107   3.470   5.191 -0.1219 -0.6130 -0.0053
    9ETH     HO   76   3.092   3.555   4.953  2.2357  0.3299 -2.0853
    9ETH     HC   77   3.225   3.335   5.072  1.8264  0.2636 -3.5815
    9ETH     HC   78   3.270   3.507   5.068 -0.6893  0.6930 -2.0926
    9ETH     HC   79   3.035   3.390   5.208 -0.0996 -0.3840  1.2428
    9ETH     HC   80   3.166   3.480   5.282 -0.3225 -0.8516  0.1542
    9ETH     HC   81   3.047   3.560   5.177  1.0367 -0.0240 -1.2570
   10ETH     OH   82   5.974   3.044   5.428  0.4481 -0.5343  0.0846
   10ETH     CH   83   5.891   2.934   5.455 -0.3613  0.2237  0.6747
   10ETH     CH   84   5.974   2.806   5.456  0.3462  0.6814  0.3730
   10ETH     HO   85   6.015   3.045   5.343 -2.5548  4.0400 -1.4902
   10ETH     HC   86   5.839   2.936   5.552 -3.9816  0.4099 -1.1609
   10ETH     HC   87   5.819   2.911   5.377  1.0516  0.0021 -0.5745
   10ETH     HC   88   6.032   2.795   5.547 -0.6612 -0.3828  0.9017
   10ETH     HC   89   5.903   2.725   5.441 -0.1488  0.6930  2.6053
   10ETH     HC   90   6.036   2.794   5.366 -0.8581 -1.7246 -0.1701
   11ETH     OH   91   0.702   3.131   6.022  0.0045 -0.1709 -0.6096
   11ETH     CH   92   0.780   3.019   5.989  0.1405 -0.1897 -0.2282
   11ETH     CH   93   0.858   2.981   6.115 -0.0564 -0.5313 -0.2073
   11ETH     HO   94   0.637   3.101   6.084 -0.0491  2.2675  0.5790
   11ETH     HC   95   0.712   2.937   5.967  0.1844 -1.1385  2.8851
   11ETH     HC   96   0.843   3.045   5.904  0.7329 -4.6833 -1.2945
   11ETH     HC   97   0.901   2.886   6.086 -0.2692 -0.7096  0.0505
   11ETH     HC   98   0.943   3.046   6.135 -1.1980  1.5653 -1.9391
   11ETH     HC   99   0.805   2.976   6.210  1.9253  1.4506  1.0537
   12ETH     OH  100   0.654   4.217   2.855  0.6294  0.3259  0.4000
   12ETH     CH  101   0.603   4.347   2.833  0.0370  0.0710  0.2511
   12ETH     CH  102   0.467   4.347   2.903 -0.2975 -0.2628 -0.4004
   12ETH     HO  103   0.734   4.207   2.807  0.9828 -1.3626  1.3010
   12ETH     HC  104   0.663   4.433   2.863 -1.9887  0.6154  2.9699
   12ETH     HC  105   0.594   4.370   2.727  1.1007  1.3496  0.4297
   12ETH     HC  106   0.487   4.333   3.009  1.9985 -0.3069 -0.8196
   12ETH     HC  107   0.421   4.444   2.888  0.2626 -0.0000 -0.4028
   12ETH     HC  108   0.402   4.266   2.869 -2.4032  1.9057 -1.6246
   13ETH     OH  109   3.838   3.153   5.963  0.0725 -0.2601 -0.3795
   13ETH     CH  110   3.801   3.021   5.995 -0.6564 -0.1429 -0.7195
   13ETH     CH  111   3.821   3.003   6.145 -0.1792  0.8551 -0.6632
   13ETH     HO  112   3.925   3.171   5.995 -1.0970  3.0587  1.1899
   13ETH     HC  113   3.698   2.996   5.968  0.0234 -0.9831 -2.6379
   13ETH     HC  114   3.855   2.949   5.933  1.2286  0.9275 -0.3398
   13ETH     HC  115   3.913   3.055   6.175  0.5736 -0.7115 -0.1960
   13ETH     HC  116   3.738   3.049   6.199 -0.0543 -1.7238  1.8380
   13ETH     HC  117   3.839   2.899   6.173 -0.9275  0.8512 -0.1881
   14ETH     OH  118   2.468   2.220   1.627 -0.1895  0.3229 -0.3049
   14ETH     CH  119   2.461   2.256   1.491 -0.2777 -0.5089 -0.5220
   14ETH     CH  120   2.318   2.229   1.445 -0.4136 -0.5776 -0.0610
   14ETH     HO  121   2.441   2.299   1.672 -2.4591  0.2802 -1.5440
   14ETH     HC  122   2.490   2.361   1.488 -1.5878 -0.0770  1.3100
   14ETH     HC  123   2.544   2.205   1.442  1.8536  1.1319  1.2353
   14ETH     HC  124   2.306   2.261   1.341  0.8325 -0.5371 -0.2040
   14ETH     HC  125   2.292   2.124   1.447 -1.6028 -0.2828  2.7772
   14ETH     HC  126   2.242   2.286   1.499 -1.6340 -0.4487 -1.8925
   15ETH     OH  127   1.143   0.025   1.843  0.0344 -0.2584 -0.7560
   15ETH     CH  128   1.006  -0.004   1.855  0.0437  0.0553  0.1833
   15ETH     CH  129   0.963   0.064   1.985 -0.2187 -0.1209  0.1903
   15ETH     HO  130   1.187  -0.012   1.918 -0.9063  1.6604  0.7910
   15ETH     HC  131   0.944   0.032   1.772 -0.8804 -1.2817  0.2676
   15ETH     HC  132   0.990  -0.112   1.854  0.1221  0.0459 -1.4201
   15ETH     HC  133   1.016   0.019   2.069  1.7959  1.8573  0.0268
   15ETH     HC  134   0.986   0.170   1.994  1.8465 -0.4454 -0.8614
   15ETH     HC  135   0.858   0.041   2.001 -0.3487  0.4967  0.2332
   16ETH     OH  136   0.696   5.544   2.967  0.7301 -0.0126 -0.0903
   16ETH     CH  137   0.780   5.531   3.080 -0.0554 -0.0843  0.4910
   16ETH     CH  138   0.692   5.434   3.158 -0.4888 -0.1646 -0.0889
   16ETH     HO  139   0.661   5.460   2.943  0.0455 -0.3429  1.9220
   16ETH     HC  140   0.872   5.487   3.042 -0.1909  0.0048  0.0565
   16ETH     HC  141   0.816   5.623   3.126  1.1873 -0.1651 -0.3102
   16ETH     HC  142   0.734   5.407   3.255  1.3809 -0.6861 -1.0443
   16ETH     HC  143   0.598   5.480   3.190  0.5561  2.4359 -0.6610
   16ETH     HC  144   0.667   5.339   3.111 -0.2890 -0.1291 -0.2665
   17ETH     OH  145   4.978   3.340   2.397 -0.5308 -0.2159 -0.0484
   17ETH     CH  146   5.073   3.329   2.501 -0.3466 -0.4443 -0.2412
   17ETH     CH  147   5.156   3.205   2.467 -0.1114 -0.3553  0.0040
   17ETH     HO  148   5.026   3.388   2.331 -0.4356  0.4416  0.4883
   17ETH     HC  149   5.139   3.415   2.515 -0.7122  0.0471 -1.4709
   17ETH     HC  150   5.016   3.314   2.593  1.6282  0.7241  1.2166
   17ETH     HC  151   5.192   3.195   2.365  0.4851 -1.0076  0.2748
   17ETH     HC  152   5.227   3.182   2.547  1.0469  0.1403 -0.8614
   17ETH     HC  153   5.092   3.117   2.474 -0.5135 -0.0138  0.6692
   18ETH     OH  154   0.339   1.534   1.291  0.3462 -0.2462  0.2946
   18ETH     CH  155   0.468   1.537   1.234  0.3087 -0.4970  0.1926
   18ETH     CH  156   0.471   1.470   1.097 -0.0448 -0.4908  0.1812
   18ETH     HO  157   0.338   1.572   1.377  1.1664  4.2391 -1.5481
   18ETH     HC  158   0.494   1.641   1.214  1.5969 -1.2215 -1.9934
   18ETH     HC  159   0.535   1.491   1.307 -0.4262  0.7077  1.6689
   18ETH     HC  160   0.397   1.515   1.031 -0.4474 -1.2081  0.1457
   18ETH     HC  161   0.565   1.484   1.044  0.7931  1.3187  2.0576
   18ETH     HC  162   0.445   1.364   1.103 -1.1065 -0.1485  2.1321
   19ETH     OH  163   5.845   1.401   1.152  0.2086 -0.1176  0.3008
   19ETH     CH  164   5.884   1.290   1.229  0.3456 -0.2710  0.0103
   19ETH     CH  165   5.771   1.214   1.300 -0.5674  0.4358 -0.6757
   19ETH     HO  166   5.787   1.380   1.081  0.2702 -0.4333  0.3430
   19ETH     HC  167   5.940   1.217   1.170 -1.6937 -2.9185  1.2234
   19ETH     HC  168   5.942   1.343   1.305  0.0587 -0.0623  0.0837
   19ETH     HC  169   5.803   1.118   1.340  0.6748  0.0531 -2.4910
   19ETH     HC  170   5.730   1.272   1.382  0.7131  1.6924 -0.8992
   19ETH     HC  171   5.706   1.178   1.220 -1.9072 -0.9648  1.0315
   20ETH     OH  172   2.395   6.036   5.813  0.0276  0.3648 -0.0682
   20ETH     CH  173   2.346   6.137   5.728  0.2552 -0.1075 -0.7628
   20ETH     CH  174   2.203   6.104   5.686  0.1439 -0.1275 -0.3645
   20ETH     HO  175   2.451   6.078   5.877 -0.5315  1.8903 -0.5559
   20ETH     HC  176   2.352   6.233   5.779 -0.6795 -0.3144 -0.2675
   20ETH     HC  177   2.425   6.150   5.654 -0.0822  0.1741 -1.0752
   20ETH     HC  178   2.138   6.074   5.768  2.2736  0.1468  1.4624
   20ETH     HC  179   2.160   6.202   5.662  3.6234  1.0659 -1.9990
   20ETH     HC  180   2.193   6.029   5.608 -3.4441  0.3515 -0.4432
   21ETH     OH  181   2.929   6.032   2.705 -0.2204 -0.0086 -0.0265
   21ETH     CH  182   3.061   6.015   2.752  0.0080  0.0883 -0.6200
   21ETH     CH  183   3.084   5.867   2.781 -0.1328  0.2243  0.2127
   21ETH     HO  184   2.926   6.125   2.687  0.3713  0.3653  1.7239
   21ETH     HC  185   3.138   6.060   2.690  3.5097 -3.1446  1.1641
   21ETH     HC  186   3.075   6.077   2.841  0.3382 -1.1908  0.2357
   21ETH     HC  187   3.181   5.849   2.828 -0.1515  1.4044  0.7238
   21ETH     HC  188   3.017   5.811   2.846  0.6445 -1.4378 -0.3932
   21ETH     HC  189   3.073   5.807   2.691 -0.2082  1.5919 -0.7036
   22ETH     OH  190   5.230   2.797   0.242  0.1952 -0.0907  0.3902
   22ETH     CH  191   5.367   2.818   0.269  0.1105  0.6392  0.2678
   22ETH     CH  192   5.425   2.676   0.261 -0.0840  0.5737  0.0206
   22ETH     HO  193   5.201   2.870   0.190  0.3584 -1.6494 -1.9648
   22ETH     HC  194   5.418   2.870   0.189  1.4657 -2.0199 -0.6502
   22ETH     HC  195   5.370   2.858   0.371 -0.2488 -1.2176  1.0304
   22ETH     HC  196   5.531   2.684   0.285 -0.0919  0.0557  0.2388
   22ETH     HC  197   5.366   2.619   0.333 -0.2043 -0.1116 -0.6186
   22ETH     HC  198   5.422   2.645   0.157  0.7633  0.0153  0.1594
   23ETH     OH  199   3.689   3.901   4.787 -0.3124  0.0473  0.3815
   23ETH     CH  200   3.569   3.884   4.714  0.0708  0.1676 -0.2792
   23ETH     CH  201   3.501   4.014   4.669 -0.0511  0.1583 -0.1213
   23ETH     HO  202   3.664   3.927   4.874  0.4006 -0.6154  0.7862
   23ETH     HC  203   3.593   3.833   4.621 -0.2977 -1.3203  0.4266
   23ETH     HC  204   3.502   3.824   4.775  1.0007  0.3766  0.9800
   23ETH     HC  205   3.409   3.997   4.613  0.3593  1.6024 -1.2627
   23ETH     HC  206   3.469   4.068   4.758  1.0449 -0.5020  0.6907
   23ETH     HC  207   3.562   4.074   4.602  2.2324 -1.0345  0.8186
   24ETH     OH  208   4.264   4.436   2.788 -0.4632 -0.0149  0.1741
   24ETH     CH  209   4.137   4.491   2.816 -0.3711  0.0057  0.5460
   24ETH     CH  210   4.098   4.604   2.722  0.5196  0.1593  0.3557
   24ETH     HO  211   4.324   4.492   2.834 -2.3383  1.6060  0.7229
   24ETH     HC  212   4.074   4.402   2.816 -1.3010  0.6554  0.9847
   24ETH     HC  213   4.131   4.524   2.920 -1.0732  2.6702 -0.3076
   24ETH     HC  214   4.099   4.569   2.619  1.7378 -0.7429  0.6602
   24ETH     HC  215   4.000   4.648   2.743  0.8347  1.5565 -0.9921
   24ETH     HC  216   4.172   4.681   2.745  2.0358 -1.3762  0.6541
   25ETH     OH  217   0.516   0.883   4.162  0.3264 -0.3671 -0.0923
   25ETH     CH  218   0.486   0.862   4.298  0.6676  0.0717  0.0525
   25ETH     CH  219   0.387   0.969   4.345  0.2369 -0.2412 -0.1316
   25ETH     HO  220   0.592   0.832   4.139  0.7863  0.1748  0.2169
   25ETH     HC  221   0.441   0.764   4.316  0.1521  0.6348  1.9627
   25ETH     HC  222   0.579   0.868   4.354  0.1292  2.9551  0.6979
   25ETH     HC  223   0.423   1.071   4.348 -1.2575  0.2606  1.7897
   25ETH     HC  224   0.296   0.981   4.286  0.5559 -1.0720 -0.8177
   25ETH     HC  225   0.353   0.951   4.447  0.3706  0.5315  0.0512
   26ETH     OH  226   0.548   3.069   3.968  0.3241  0.4855 -0.5073
   26ETH     CH  227   0.578   3.118   4.096 -0.7985 -0.1420 -0.0001
   26ETH     CH  228   0.688   3.029   4.153 -0.3213  0.2189 -0.3585
   26ETH     HO  229   0.484   3.001   3.983  1.3324 -0.2209  0.7295
   26ETH     HC  230   0.603   3.224   4.097 -0.2077 -0.2771  1.4218
   26ETH     HC  231   0.486   3.109   4.154 -0.7427 -1.1482 -0.0591
   26ETH     HC  232   0.660   2.924   4.142  0.8029 -0.2058  0.7044
   26ETH     HC  233   0.787   3.050   4.112  1.1519 -0.0509  2.8599
   26ETH     HC  234   0.696   3.053   4.259  0.2098  0.3319 -0.4217
   27ETH     OH  235   6.017   5.211   2.206 -0.1195  0.2581 -0.0700
   27ETH     CH  236   5.943   5.109   2.270  0.5723 -0.2560 -0.0899
   27ETH     CH  237   6.014   5.098   2.405  0.1980 -0.1964  0.1122
   27ETH     HO  238   5.968   5.256   2.138  0.4192  2.5131  1.0015
   27ETH     HC  239   5.947   5.012   2.219 -0.9014  0.1014 -0.9009
   27ETH     HC  240   5.841   5.146   2.275  0.1172 -1.4600 -0.3359
   27ETH     HC  241   6.122   5.083   2.402  0.5125  1.6837  0.9669
   27ETH     HC  242   6.006   5.191   2.461  2.5210 -0.4470  0.9384
   27ETH     HC  243   5.969   5.012   2.454  2.1782 -1.5681 -0.4014
   28ETH     OH  244   1.735   0.480   4.018  0.4157 -0.0088  0.1928
   28ETH     CH  245   1.776   0.357   4.075  0.3435 -0.0885  0.0746
   28ETH     CH  246   1.901   0.296   4.012  0.8551  0.4890  0.5248
   28ETH     HO  247   1.806   0.542   4.022  0.7245 -0.3666  0.3053
   28ETH     HC  248   1.789   0.354   4.183  0.6001 -2.3377  0.0061
   28ETH     HC  249   1.698   0.283   4.056 -1.4329  1.8182 -0.2285
   28ETH     HC  250   1.895   0.290   3.903  0.6178  2.0167  0.4328
   28ETH     HC  251   1.989   0.359   4.024  1.2945  0.1045 -0.6027
   28ETH     HC  252   1.926   0.203   4.061 -1.8229  0.1085  1.2288
   29ETH     OH  253   0.802   5.415   0.019 -0.1608  0.1143  0.0774
   29ETH     CH  254   0.938   5.422   0.056 -0.2273  0.2698  0.2939
   29ETH     CH  255   1.016   5.335  -0.044 -0.5167  0.0949  0.2186
   29ETH     HO  256   0.771   5.503   0.035 -0.6838 -0.1752  0.6604
   29ETH     HC  257   0.985   5.520   0.057  2.2234 -0.8831  1.2551
   29ETH     HC  258   0.930   5.398   0.162  0.7092  0.5028  0.4191
   29ETH     HC  259   0.983   5.232  -0.057  0.2640 -0.0691 -0.4352
   29ETH     HC  260   0.999   5.381  -0.141 -1.2615 -2.9905 -1.1535
   29ETH     HC  261   1.123   5.343  -0.028  0.1010 -2.9968 -2.0741
   30ETH     OH  262   5.442   1.884   6.257 -0.3370 -0.0550 -0.4935
   30ETH     CH  263   5.458   1.773   6.342 -0.1198  0.2320 -0.1602
   30ETH     CH  264   5.355   1.665   6.308  0.1249 -0.1127  0.1776
   30ETH     HO  265   5.463   1.854   6.170  1.5205  2.8153 -1.1202
   30ETH     HC  266   5.561   1.737   6.336 -0.5845 -0.7651 -2.7591
   30ETH     HC  267   5.443   1.805   6.445  2.3115 -0.7391  0.5349
   30ETH     HC  268   5.363   1.584   6.380 -1.4575 -0.1259  0.3456
   30ETH     HC  269   5.253   1.700   6.324  0.2820 -0.4480  1.9622
   30ETH     HC  270   5.367   1.609   6.215  2.1242 -0.5388  0.6680
   31ETH     OH  271   1.097   3.465   4.278  0.6976 -0.1071  0.2945
   31ETH     CH  272   1.037   3.340   4.306 -0.3417  0.2266 -0.4044
   31ETH     CH  273   0.933   3.356   4.417  0.0435 -0.4170  0.0509
   31ETH     HO  274   1.124   3.503   4.360  1.6334  1.5190 -0.7413
   31ETH     HC  275   0.993   3.292   4.218  0.6463 -2.0092  0.2851
   31ETH     HC  276   1.112   3.272   4.346  0.3042  1.3835  0.3528
   31ETH     HC  277   0.993   3.394   4.499 -3.5453  1.3522  1.9888
   31ETH     HC  278   0.866   3.436   4.388  0.8202 -0.0818 -0.8384
   31ETH     HC  279   0.863   3.282   4.457  0.5406 -0.0659  1.5680
   32ETH     OH  280   0.406   5.646   3.598 -0.0880  0.1494 -0.3444
   32ETH     CH  281   0.321   5.604   3.494 -0.5306  0.4576 -0.1087
   32ETH     CH  282   0.181   5.581   3.550 -0.6077  0.0503 -0.4668
   32ETH     HO  283   0.492   5.641   3.560 -0.4633 -0.5555 -1.1331
   32ETH     HC  284   0.347   5.510   3.446  0.5289  1.5513 -1.7811
   32ETH     HC  285   0.319   5.681   3.416 -1.3254  0.0118 -0.5328
   32ETH     HC  286   0.110   5.559   3.471 -1.4528 -1.8924  0.7874
   32ETH     HC  287   0.171   5.493   3.614 -2.1135 -0.0561 -0.8302
   32ETH     HC  288   0.139   5.666   3.603 -1.6101 -1.2519  0.8925
   33ETH     OH  289   5.088   1.549   4.456 -0.3229  0.0450 -0.6172
   33ETH     CH  290   5.088   1.419   4.509 -0.1575  0.0588 -0.5834
   33ETH     CH  291   4.965   1.339   4.465 -0.4979  0.2082  0.0868
   33ETH     HO  292   5.156   1.599   4.498  0.0301  0.2035 -1.3589
   33ETH     HC  293   5.174   1.363   4.471  0.5514 -0.9693  2.3667
   33ETH     HC  294   5.088   1.426   4.617  0.2070  0.5896 -0.6180
   33ETH     HC  295   4.948   1.362   4.360 -0.1270 -0.3790 -0.1075
   33ETH     HC  296   4.986   1.232   4.459 -1.6298 -0.0895  1.3457
   33ETH     HC  297   4.876   1.372   4.518 -0.3392  1.5997 -0.5024
   34ETH     OH  298   6.126   2.972   4.027 -0.1190 -0.0135 -0.0169
   34ETH     CH  299   6.114   2.859   4.111 -0.8668 -0.2935 -0.4883
   34ETH     CH  300   5.979   2.862   4.182 -0.7742  0.4029 -0.3318
   34ETH     HO  301   6.102   2.938   3.943  1.9527 -0.6496 -0.3760
   34ETH     HC  302   6.120   2.770   4.049  0.7791 -2.2002  2.2591
   34ETH     HC  303   6.197   2.861   4.183 -2.3405  1.3294  1.2227
   34ETH     HC  304   5.902   2.850   4.106  0.6550 -1.2009 -1.5538
   34ETH     HC  305   5.960   2.785   4.257 -1.8309  0.0675 -0.9387
   34ETH     HC  306   5.970   2.961   4.226 -2.1218 -0.2506  0.9061
   35ETH     OH  307   2.628   5.345   1.377 -0.5375  0.4298  0.3597
   35ETH     CH  308   2.540   5.281   1.467  0.0727 -0.1700  0.5340
   35ETH     CH  309   2.475   5.391   1.550  0.2397  0.3326  0.0069
   35ETH     HO  310   2.574   5.358   1.300 -0.1558 -0.4774 -0.0782
   35ETH     HC  311   2.465   5.225   1.412 -0.0718 -0.3033  0.8685
   35ETH     HC  312   2.595   5.204   1.521  0.9218  0.4081  0.4957
   35ETH     HC  313   2.559   5.446   1.593 -0.6491  2.5542 -1.0314
   35ETH     HC  314   2.415   5.452   1.483 -1.9030 -0.8221  0.8133
   35ETH     HC  315   2.420   5.345   1.632 -0.5201  1.8266  0.3568
   36ETH     OH  316   5.811   2.565   4.825 -0.4379 -0.3153 -0.1707
   36ETH     CH  317   5.744   2.686   4.801 -0.0938 -0.1458 -0.2788
   36ETH     CH  318   5.827   2.776   4.709  0.1835 -0.2591 -0.1397
   36ETH     HO  319   5.744   2.501   4.846 -0.3729  0.4188  2.3756
   36ETH     HC  320   5.645   2.658   4.765  0.8520 -2.1795 -1.3996
   36ETH     HC  321   5.733   2.733   4.899  0.1084  2.1825 -1.3319
   36ETH     HC  322   5.790   2.878   4.717 -0.0449 -0.4069  0.7873
   36ETH     HC  323   5.932   2.794   4.731 -0.2189  0.7331  1.0557
   36ETH     HC  324   5.818   2.745   4.605 -0.4506 -0.6022  0.0101
   37ETH     OH  325   4.250   5.833   3.507  0.1847  0.0732  0.2427
   37ETH     CH  326   4.254   5.696   3.544 -0.8452  0.0136  0.1376
   37ETH     CH  327   4.330   5.627   3.431 -0.6384 -0.1051  0.3500
   37ETH     HO  328   4.195   5.884   3.565 -2.1040 -2.9403  0.8517
   37ETH     HC  329   4.303   5.676   3.639 -0.9018 -2.3636 -0.3132
   37ETH     HC  330   4.156   5.650   3.554 -0.3914 -0.4401  2.8514
   37ETH     HC  331   4.429   5.672   3.432 -2.0036  3.0306 -0.2632
   37ETH     HC  332   4.340   5.518   3.437 -0.6032 -0.1459 -0.3840
   37ETH     HC  333   4.286   5.650   3.334 -3.1155 -1.4326  1.1106
   38ETH     OH  334   5.009   1.106   4.856 -0.7628  0.2766  0.0371
   38ETH     CH  335   5.030   1.141   4.991 -0.0503 -0.0654  0.0142
   38ETH     CH  336   5.137   1.044   5.043 -0.0267 -0.0973 -0.0942
   38ETH     HO  337   4.951   1.174   4.825 -0.8998  0.5730  0.9338
   38ETH     HC  338   5.061   1.244   5.004 -0.9605  0.3717 -1.1595
   38ETH     HC  339   4.938   1.129   5.048 -1.2450 -2.1688 -2.2260
   38ETH     HC  340   5.114   0.938   5.034  0.1591 -0.1318 -0.1538
   38ETH     HC  341   5.233   1.064   4.997 -0.5828 -0.6082 -1.5194
   38ETH     HC  342   5.143   1.055   5.151  0.4474 -0.7507 -0.0524
   39ETH     OH  343   3.895   2.374   3.632  0.5566 -0.3900  0.4008
   39ETH     CH  344   3.809   2.263   3.650  0.4966 -0.3745  0.2048
   39ETH     CH  345   3.762   2.275   3.795  0.4560 -0.2597  0.1825
   39ETH     HO  346   3.966   2.331   3.589  0.7731 -1.7689  2.0620
   39ETH     HC  347   3.727   2.262   3.578  2.0336 -1.9999 -1.5948
   39ETH     HC  348   3.866   2.171   3.636  1.2683  0.0128  0.7974
   39ETH     HC  349   3.697   2.190   3.815  2.4568 -2.4582 -2.2146
   39ETH     HC  350   3.844   2.297   3.863  0.4316  0.3567  0.0202
   39ETH     HC  351   3.695   2.361   3.802  2.7551  1.8514 -2.4094
   40ETH     OH  352   4.779   1.195   0.638 -0.0952 -0.6715 -1.0537
   40ETH     CH  353   4.732   1.299   0.555  0.3574 -0.1695 -0.6933
   40ETH     CH  354   4.806   1.425   0.599  0.1522 -0.3523  0.1735
   40ETH     HO  355   4.748   1.119   0.592 -1.0090 -0.0053 -1.5721
   40ETH     HC  356   4.766   1.270   0.455 -1.1175  2.5841 -2.0579
   40ETH     HC  357   4.624   1.308   0.543  0.4037  0.7958 -0.3813
   40ETH     HC  358   4.912   1.400   0.588  0.8897  2.3853  0.7149
   40ETH     HC  359   4.775   1.506   0.534  0.9172 -0.4010 -0.2521
   40ETH     HC  360   4.788   1.445   0.705  0.0926 -3.4550  0.7904
   41ETH     OH  361   1.594   4.002   4.966 -0.4693  0.0045 -0.3619
   41ETH     CH  362   1.629   4.002   5.103 -0.6398 -0.8079 -0.3177
   41ETH     CH  363   1.503   3.963   5.180 -0.4590 -0.0365  0.3741
   41ETH     HO  364   1.564   4.091   4.956 -0.3559  0.4346  2.4742
   41ETH     HC  365   1.714   3.936   5.121 -1.3867 -2.1596 -1.6242
   41ETH     HC  366   1.654   4.104   5.132  1.1436 -1.2529 -0.2266
   41ETH     HC  367   1.411   4.012   5.147  0.1266  0.7922 -0.0133
   41ETH     HC  368   1.483   3.856   5.173  0.2563 -0.1127 -0.4882
   41ETH     HC  369   1.515   3.976   5.288 -2.1109 -2.0796  0.8567
   42ETH     OH  370   5.940   5.074   3.795 -0.2859  0.1729 -0.1414
   42ETH     CH  371   6.046   5.043   3.707 -0.4557 -0.1044 -0.2473
   42ETH     CH  372   6.023   5.115   3.575  0.1054  0.2358 -0.1622
   42ETH     HO  373   5.964   5.164   3.808 -2.2121  0.9732 -1.8816
   42ETH     HC  374   6.132   5.090   3.755 -2.3853  3.2291  0.0309
   42ETH     HC  375   6.056   4.935   3.691  0.3725  0.0364 -0.6838
   42ETH     HC  376   5.930   5.080   3.529 -0.0369  2.4521 -1.6150
   42ETH     HC  377   6.010   5.222   3.591 -0.8870  0.0123  0.5737
   42ETH     HC  378   6.107   5.089   3.509 -0.4087 -0.1291 -0.6824
   43ETH     OH  379   1.584   5.941   5.193  0.7529  0.6569 -0.0005
   43ETH     CH  380   1.715   5.993   5.194  0.8998  0.2931 -0.2497
   43ETH     CH  381   1.801   5.903   5.283  0.0736  0.9207  1.2051
   43ETH     HO  382   1.574   5.866   5.137 -1.5491  0.5701  0.4856
   43ETH     HC  383   1.750   5.998   5.091  0.3819 -2.0702 -0.5707
   43ETH     HC  384   1.702   6.088   5.246 -0.7578 -1.2117  2.1831
   43ETH     HC  385   1.790   5.803   5.240 -0.9222  2.1530 -1.5365
   43ETH     HC  386   1.907   5.927   5.273 -0.1934  0.7830 -2.5859
   43ETH     HC  387   1.753   5.905   5.381  0.0079 -2.5514  1.3073
   44ETH     OH  388   5.481   0.091   0.267 -0.1768 -0.0492  0.8279
   44ETH     CH  389   5.602   0.161   0.256 -0.3781  0.2203  0.2830
   44ETH     CH  390   5.711   0.064   0.303 -0.4352  0.1483  0.2686
   44ETH     HO  391   5.411   0.147   0.237  0.5535 -0.2309 -1.3519
   44ETH     HC  392   5.618   0.209   0.159 -0.8916 -0.0110  0.0824
   44ETH     HC  393   5.607   0.241   0.330 -2.3562  0.2903  0.3641
   44ETH     HC  394   5.810   0.110   0.300  0.1534 -1.1044  0.3908
   44ETH     HC  395   5.693   0.021   0.402 -2.0192 -1.5029 -0.7105
   44ETH     HC  396   5.705  -0.022   0.237  1.4988  0.8323 -0.8330
   45ETH     OH  397   1.370   2.404   6.158 -0.5428  0.1961 -0.2299
   45ETH     CH  398   1.396   2.459   6.030 -0.4560  0.2781 -0.1762
   45ETH     CH  399   1.470   2.592   6.022 -0.2055  0.1499  0.0178
   45ETH     HO  400   1.275   2.407   6.165 -0.5063  0.9933 -0.0114
   45ETH     HC  401   1.449   2.381   5.975  0.9465  1.3084 -0.2996
   45ETH     HC  402   1.297   2.476   5.987 -1.5523 -3.0196  0.8592
   45ETH     HC  403   1.422   2.663   6.090  0.1440 -0.4032  0.8535
   45ETH     HC  404   1.574   2.571   6.047 -0.3203 -0.0689  0.3093
   45ETH     HC  405   1.470   2.644   5.926  0.2936 -0.7081 -0.4502
   46ETH     OH  406   4.346   3.021   3.406 -0.1662 -0.3480 -0.4084
   46ETH     CH  407   4.359   3.083   3.280 -0.1712  0.0435 -0.2147
   46ETH     CH  408   4.275   3.006   3.178 -0.3775 -0.5710  0.4198
   46ETH     HO  409   4.259   3.035   3.438  0.9049 -0.1169  2.5815
   46ETH     HC  410   4.322   3.185   3.295  1.8577  0.7786  0.0005
   46ETH     HC  411   4.462   3.088   3.245 -1.0004  0.5186 -2.7335
   46ETH     HC  412   4.168   3.005   3.197 -0.4596  0.5304  0.0186
   46ETH     HC  413   4.298   3.042   3.078 -0.6741 -1.8158 -0.1045
   46ETH     HC  414   4.310   2.902   3.180  0.6932 -0.2263  0.0798
   47ETH     OH  415   5.996   4.071   1.497 -0.4502  0.2641  0.3275
   47ETH     CH  416   5.903   4.077   1.603 -0.4532  0.0982  0.3337
   47ETH     CH  417   5.833   4.213   1.605 -0.1910  0.2441 -0.2328
   47ETH     HO  418   6.034   3.986   1.509 -1.9908 -0.5381 -0.3219
   47ETH     HC  419   5.835   3.992   1.606 -2.4209  1.6132 -0.4421
   47ETH     HC  420   5.965   4.064   1.692 -0.1227 -0.8009 -0.0222
   47ETH     HC  421   5.778   4.237   1.514 -2.8409 -0.7873  1.0182
   47ETH     HC  422   5.756   4.216   1.683 -0.2983 -0.0677 -0.3231
   47ETH     HC  423   5.901   4.294   1.630  1.3644 -1.7643  2.3306
   48ETH     OH  424   0.588   3.596   0.162 -0.2832 -0.0005  0.6204
   48ETH     CH  425   0.533   3.529   0.050  0.3693  0.7426 -0.1544
   48ETH     CH  426   0.406   3.464   0.104  0.4551  0.1159 -0.7036
   48ETH     HO  427   0.593   3.530   0.229 -0.7967 -1.6859 -0.9407
   48ETH     HC  428   0.511   3.599  -0.030 -0.2878 -1.7118 -2.1786
   48ETH     HC  429   0.608   3.462   0.008  1.9641  1.8551  0.8325
   48ETH     HC  430   0.353   3.424   0.017 -0.3088  0.3452 -0.3504
   48ETH     HC  431   0.423   3.374   0.163  1.3431  1.8165  1.6984
   48ETH     HC  432   0.338   3.524   0.165  0.1911 -0.5173 -0.3633
   49ETH     OH  433   3.368   5.363   4.086 -0.0956  0.3920  0.7898
   49ETH     CH  434   3.488   5.381   4.159  0.4040  0.5168 -0.0604
   49ETH     CH  435   3.452   5.450   4.290  0.4601  0.6234 -0.1012
   49ETH     HO  436   3.365   5.455   4.062  1.4264  0.8695  2.2978
   49ETH     HC  437   3.524   5.283   4.189  0.6051  1.4132  2.7220
   49ETH     HC  438   3.548   5.458   4.110 -0.3885 -0.0775 -2.0520
   49ETH     HC  439   3.410   5.547   4.263  0.3446  0.6035  0.0159
   49ETH     HC  440   3.389   5.383   4.347  2.1605 -0.7337  0.2192
   49ETH     HC  441   3.542   5.466   4.350  0.1329 -1.8221  1.0817
   50ETH     OH  442   3.701   0.091   1.308 -0.3518  0.4222 -0.2104
   50ETH     CH  443   3.678   0.101   1.447  0.2654  0.6108 -0.1212
   50ETH     CH  444   3.805   0.043   1.509 -0.2084  0.4353  0.6963
   50ETH     HO  445   3.640   0.025   1.279  0.9196 -0.7718 -0.2211
   50ETH     HC  446   3.664   0.204   1.482  2.7282  0.2544  2.0876
   50ETH     HC  447   3.597   0.030   1.467  1.2107 -0.9309 -1.6759
   50ETH     HC  448   3.790   0.029   1.616 -0.5498  1.3273  0.7750
   50ETH     HC  449   3.840  -0.048   1.461 -1.8287  1.0165 -1.6781
   50ETH     HC  450   3.889   0.113   1.511 -2.0075  2.6871  0.0495
   51ETH     OH  451   5.951   4.442   0.047  0.1177 -0.2158  0.1528
   51ETH     CH  452   6.037   4.528   0.119 -0.2696  0.1535  0.1792
   51ETH     CH  453   5.941   4.629   0.182 -0.4974 -0.0456  0.1507
   51ETH     HO  454   5.895   4.397   0.108  1.4771 -0.7005  1.0633
   51ETH     HC  455   6.089   4.465   0.191 -0.8472 -0.6771 -0.1148
   51ETH     HC  456   6.111   4.569   0.050  1.4091 -3.9852 -0.5989
   51ETH     HC  457   5.987   4.695   0.255 -1.2133 -0.4984  1.0257
   51ETH     HC  458   5.898   4.696   0.108  0.5921 -1.3089 -1.6581
   51ETH     HC  459   5.865   4.577   0.241 -0.9606 -0.8619 -1.1233
   52ETH     OH  460   0.239   1.220   1.745  0.2782  0.3606 -0.3107
   52ETH     CH  461   0.337   1.283   1.665  0.0948  0.6371 -0.3196
   52ETH     CH  462   0.292   1.305   1.520 -1.4562  0.1896  0.0869
   52ETH     HO  463   0.151   1.255   1.742  0.1831  0.1566  0.0946
   52ETH     HC  464   0.363   1.376   1.715 -0.3119  1.0568 -0.8725
   52ETH     HC  465   0.431   1.229   1.671  0.1112  0.9016  1.9469
   52ETH     HC  466   0.207   1.372   1.509 -2.0304 -0.7810 -1.5422
   52ETH     HC  467   0.373   1.340   1.457 -0.8920  1.1404  1.3107
   52ETH     HC  468   0.271   1.204   1.484  0.5696 -0.7468  1.4117
   53ETH     OH  469   4.827   5.861   4.524  0.1794 -0.4787  0.0032
   53ETH     CH  470   4.845   5.874   4.385  0.3052 -0.2918  0.0360
   53ETH     CH  471   4.705   5.854   4.325 -0.1152  0.2051  0.8412
   53ETH     HO  472   4.910   5.877   4.567 -0.0309  1.3509 -0.2056
   53ETH     HC  473   4.889   5.972   4.363 -1.4411  0.3471 -0.7940
   53ETH     HC  474   4.917   5.802   4.347  0.2042 -0.7394  0.6965
   53ETH     HC  475   4.720   5.843   4.218  2.2135  0.8104  1.0606
   53ETH     HC  476   4.675   5.755   4.358  1.4224 -0.8231 -0.7600
   53ETH     HC  477   4.631   5.931   4.343  0.3840  0.9380 -0.2050
   54ETH     OH  478   6.112   1.147   0.047  0.5141  0.1231  0.2505
   54ETH     CH  479   6.036   1.073   0.140  0.5578  0.2223  0.3660
   54ETH     CH  480   5.903   1.147   0.148 -0.1421 -0.9974  0.1436
   54ETH     HO  481   6.200   1.163   0.077  0.8753  0.8171 -1.1330
   54ETH     HC  482   6.024   0.968   0.111 -0.1314  0.5787 -0.6712
   54ETH     HC  483   6.097   1.081   0.230  0.5995 -4.4372  0.8850
   54ETH     HC  484   5.826   1.101   0.209 -0.0980 -1.4019 -0.1039
   54ETH     HC  485   5.909   1.255   0.156 -0.5416 -1.0476  1.2713
   54ETH     HC  486   5.850   1.140   0.053  0.6876  1.3379 -0.5226
   55ETH     OH  487   1.663   5.732   1.848  0.3965  0.1156  0.1421
   55ETH     CH  488   1.567   5.699   1.946  0.4406 -0.3416  0.0332
   55ETH     CH  489   1.482   5.583   1.893  0.1412 -0.0198 -0.1919
   55ETH     HO  490   1.729   5.664   1.840  2.2410  1.8960 -0.1620
   55ETH     HC  491   1.612   5.656   2.036  0.6485 -0.7397 -0.2626
   55ETH     HC  492   1.508   5.785   1.979  0.7431  0.0084 -0.3285
   55ETH     HC  493   1.544   5.499   1.864 -1.0932 -1.9075  2.4837
   55ETH     HC  494   1.415   5.546   1.971 -0.2414 -0.1469 -0.5814
   55ETH     HC  495   1.419   5.605   1.807 -0.1413  2.6763  0.6469
   56ETH     OH  496   5.898   0.140   6.135  0.8848  0.3407 -0.2246
   56ETH     CH  497   5.976   0.144   6.252  0.4755  0.3321  0.0523
   56ETH     CH  498   5.996   0.289   6.295  0.3053  0.6037 -0.7857
   56ETH     HO  499   5.888   0.047   6.118 -0.8289 -0.0286  2.4289
   56ETH     HC  500   5.930   0.075   6.323  0.2762 -1.7098 -2.0195
   56ETH     HC  501   6.068   0.091   6.227  0.8208  0.9197  0.0642
   56ETH     HC  502   5.900   0.338   6.315  0.6800  0.7460  0.6679
   56ETH     HC  503   6.042   0.290   6.394 -2.2443 -0.6894  0.4750
   56ETH     HC  504   6.048   0.350   6.221  0.9186  1.1605  0.0992
   57ETH     OH  505   2.896   5.264   0.966  0.1650 -0.0880  0.2587
   57ETH     CH  506   2.885   5.351   0.855 -0.4015  0.4904  0.7688
   57ETH     CH  507   2.781   5.294   0.759  0.1691  0.7893 -0.0248
   57ETH     HO  508   2.966   5.294   1.021 -1.8124 -0.3475  2.9998
   57ETH     HC  509   2.874   5.458   0.872 -1.1791  0.3644  1.0783
   57ETH     HC  510   2.980   5.361   0.803 -1.0034  0.1428 -0.3913
   57ETH     HC  511   2.676   5.308   0.784  0.5686 -0.5811  2.5921
   57ETH     HC  512   2.803   5.343   0.664 -2.6375  0.0064 -1.1199
   57ETH     HC  513   2.806   5.189   0.742 -2.6884  0.1297 -0.3492
   58ETH     OH  514   1.939   3.190   3.301  0.2122  0.2397 -0.1157
   58ETH     CH  515   2.005   3.209   3.424  0.2000  0.2568 -0.1118
   58ETH     CH  516   2.057   3.078   3.483  0.3340  0.5177  0.3541
   58ETH     HO  517   1.879   3.117   3.301 -0.6836  0.9395 -2.8263
   58ETH     HC  518   2.078   3.289   3.416  0.3487  0.1748  0.3997
   58ETH     HC  519   1.927   3.250   3.490 -0.8557 -1.1759 -0.4515
   58ETH     HC  520   2.091   3.097   3.585  1.5973  0.4808 -0.0410
   58ETH     HC  521   1.994   2.991   3.501  1.2544 -0.7396 -2.2075
   58ETH     HC  522   2.138   3.036   3.423  0.5991 -2.0640  2.4627
   59ETH     OH  523   5.116   4.251   3.016 -0.6285  0.1752  0.1865
   59ETH     CH  524   5.109   4.376   2.951  0.0135  0.0923 -0.0491
   59ETH     CH  525   4.979   4.445   2.994 -0.3998 -0.6319 -0.1120
   59ETH     HO  526   5.129   4.271   3.108  0.7910 -1.4739  0.3848
   59ETH     HC  527   5.198   4.432   2.977 -0.0732  0.7352 -1.1259
   59ETH     HC  528   5.113   4.351   2.845  0.6297 -1.0278  0.2229
   59ETH     HC  529   4.903   4.372   2.968  1.8702 -2.3121 -2.3188
   59ETH     HC  530   4.983   4.468   3.100 -0.6657  1.0455 -0.4518
   59ETH     HC  531   4.947   4.534   2.939 -1.3743  0.0193  1.4866
   60ETH     OH  532   2.226   5.101   1.185 -0.2837  0.1004  0.5411
   60ETH     CH  533   2.252   4.968   1.146  0.4799  0.3500  0.1762
   60ETH     CH  534   2.309   4.972   1.004  0.7199 -0.5743  0.2442
   60ETH     HO  535   2.311   5.142   1.178 -0.5210  0.6054  0.6253
   60ETH     HC  536   2.322   4.926   1.218 -0.1620 -1.4701 -0.2190
   60ETH     HC  537   2.172   4.896   1.164  0.6011  0.0033 -0.6351
   60ETH     HC  538   2.236   4.986   0.925  1.5539 -0.5433 -0.5378
   60ETH     HC  539   2.380   5.054   0.997 -1.8861  1.7893  0.8193
   60ETH     HC  540   2.362   4.879   0.984  1.2275 -0.3238  0.3891
   61ETH     OH  541   2.203   0.887   1.718  0.3949  0.3127 -0.0173
   61ETH     CH  542   2.193   0.776   1.631 -0.0296  0.2417  0.1199
   61ETH     CH  543   2.225   0.650   1.712  0.0951 -0.0231 -0.3392
   61ETH     HO  544   2.253   0.954   1.675  1.4459 -0.4764 -0.0436
   61ETH     HC  545   2.090   0.769   1.597 -1.0469 -0.0914  3.1278
   61ETH     HC  546   2.260   0.783   1.545  0.1075 -2.8484 -0.0834
   61ETH     HC  547   2.330   0.640   1.742 -0.3966 -0.4933  1.2641
   61ETH     HC  548   2.168   0.640   1.804 -1.8566 -2.6707 -1.7755
   61ETH     HC  549   2.204   0.555   1.664 -0.3412 -0.5860  0.9354
   62ETH     OH  550   1.532   3.268   1.152 -0.0558  0.7694 -0.6624
   62ETH     CH  551   1.413   3.283   1.226  0.3941  0.0943  0.2134
   62ETH     CH  552   1.336   3.152   1.242 -0.0068  0.3002  0.0089
   62ETH     HO  553   1.511   3.247   1.063 -1.0080  0.6162 -0.4060
   62ETH     HC  554   1.425   3.323   1.327 -2.9595 -4.1994  2.5018
   62ETH     HC  555   1.355   3.363   1.179  0.1857  0.6930  1.4763
   62ETH     HC  556   1.410   3.075   1.265 -0.0560  0.2741  0.0806
   62ETH     HC  557   1.262   3.153   1.322  0.3384 -3.9179  0.5236
   62ETH     HC  558   1.299   3.113   1.148  1.0737 -0.7799  0.0137
   63ETH     OH  559   2.870   4.618   5.457  0.1113  0.2210  0.1146
   63ETH     CH  560   2.977   4.611   5.548  0.1602 -0.0332  0.0398
   63ETH     CH  561   2.924   4.578   5.687 -0.0632 -0.6206 -0.1808
   63ETH     HO  562   2.895   4.672   5.384  3.3925 -0.3862  0.7418
   63ETH     HC  563   3.050   4.545   5.502 -0.0982  1.7985 -3.1741
   63ETH     HC  564   3.020   4.711   5.543 -1.2492  0.5974  0.2673
   63ETH     HC  565   2.890   4.475   5.676 -1.0053 -0.3513  0.1558
   63ETH     HC  566   3.007   4.575   5.759  0.8179  0.7495 -1.1094
   63ETH     HC  567   2.840   4.637   5.724  0.2466  0.0120 -0.4805
   64ETH     OH  568   0.294   0.283   1.005  0.4152  0.3971  0.3779
   64ETH     CH  569   0.409   0.223   1.060  0.5277  0.1146 -0.1617
   64ETH     CH  570   0.496   0.335   1.118  0.3252  0.1830  0.0113
   64ETH     HO  571   0.320   0.332   0.928  0.4501  0.1399  0.2244
   64ETH     HC  572   0.390   0.158   1.145  1.4864  0.0496  0.0010
   64ETH     HC  573   0.453   0.164   0.980  0.4121 -0.3375  0.1055
   64ETH     HC  574   0.592   0.290   1.144  0.8665  0.9347 -0.6613
   64ETH     HC  575   0.507   0.403   1.034 -0.6539 -0.1674 -0.4155
   64ETH     HC  576   0.454   0.387   1.203  0.9443 -1.3203  1.2573
   65ETH     OH  577   4.144   1.076   5.480 -0.0674  0.2430 -0.3378
   65ETH     CH  578   4.076   0.983   5.400 -0.6540 -0.1569  0.6109
   65ETH     CH  579   3.969   1.045   5.309 -0.0472  0.6519  0.4422
   65ETH     HO  580   4.194   1.029   5.545 -1.8600 -1.4255 -0.1106
   65ETH     HC  581   4.144   0.929   5.334  1.7826  2.6917  0.7104
   65ETH     HC  582   4.030   0.907   5.464  1.4736 -1.8278  0.2263
   65ETH     HC  583   3.912   1.122   5.360 -1.1236  1.0419 -1.3550
   65ETH     HC  584   3.998   1.082   5.211 -2.7719 -2.5179 -1.6591
   65ETH     HC  585   3.903   0.963   5.281 -1.0575  2.4113 -2.4616
   66ETH     OH  586   5.934   1.275   6.110  0.4542 -0.4009  0.2737
   66ETH     CH  587   6.032   1.264   6.009  0.1342 -0.0944 -0.0712
   66ETH     CH  588   6.029   1.125   5.945  0.3140  0.2048 -0.7253
   66ETH     HO  589   5.969   1.237   6.189  0.1423  1.1955  1.1882
   66ETH     HC  590   6.013   1.330   5.924  0.8136  0.8350  0.4888
   66ETH     HC  591   6.134   1.289   6.037  0.3944 -1.8881  0.6587
   66ETH     HC  592   6.120   1.119   5.886  0.8506  0.6739  0.0485
   66ETH     HC  593   6.042   1.041   6.012 -1.6318  0.8931  0.5661
   66ETH     HC  594   5.948   1.106   5.875 -0.1120  2.3433 -0.8668
   67ETH     OH  595   6.201   5.862   6.243  0.1970 -0.0044 -0.4538
   67ETH     CH  596   6.095   5.921   6.171  0.4083  0.3776 -0.4534
   67ETH     CH  597   6.005   5.831   6.087  0.7967  0.1078 -0.5803
   67ETH     HO  598   6.278   5.842   6.191  0.7779  0.5240  0.1840
   67ETH     HC  599   6.045   5.986   6.242 -0.3463 -0.4807 -0.2008
   67ETH     HC  600   6.141   5.987   6.097 -0.3991  0.5769 -0.7754
   67ETH     HC  601   5.951   5.758   6.149  1.0834  2.6890  2.8465
   67ETH     HC  602   5.925   5.889   6.041  0.3999 -0.2653 -0.3713
   67ETH     HC  603   6.061   5.789   6.004  1.3826  1.5754 -0.9354
   68ETH     OH  604   1.297   5.287   1.994 -0.4384  0.3858 -0.0950
   68ETH     CH  605   1.305   5.238   1.862 -0.0295 -0.1757  0.1373
   68ETH     CH  606   1.424   5.141   1.867 -0.0160 -0.1601  0.1223
   68ETH     HO  607   1.207   5.304   2.018  0.1003  3.6395 -0.1940
   68ETH     HC  608   1.207   5.199   1.833 -1.0511  1.5694  1.1879
   68ETH     HC  609   1.315   5.326   1.799 -1.2392 -2.8554 -4.0071
   68ETH     HC  610   1.504   5.205   1.904  2.2960 -1.9986 -1.5673
   68ETH     HC  611   1.407   5.064   1.942  1.1512  0.7726  1.3629
   68ETH     HC  612   1.445   5.105   1.766 -1.5921 -2.1385  0.4524
   69ETH     OH  613   4.872   0.661   4.339 -0.1556  0.1638 -0.2645
   69ETH     CH  614   4.900   0.771   4.422  0.2969 -0.2073  0.0763
   69ETH     CH  615   4.908   0.894   4.331 -0.0774  0.4845  0.9630
   69ETH     HO  616   4.936   0.652   4.271  0.3701  1.2366  0.0792
   69ETH     HC  617   4.815   0.782   4.490  0.9800 -0.5232  0.9957
   69ETH     HC  618   4.987   0.749   4.483  0.4139 -2.2630 -0.8006
   69ETH     HC  619   4.904   0.982   4.395 -1.3691  0.4301  0.9568
   69ETH     HC  620   4.996   0.899   4.267 -0.8127 -0.9294 -0.1984
   69ETH     HC  621   4.816   0.892   4.274  0.6816  2.3711 -0.3573
   70ETH     OH  622   1.493   2.218   0.616 -0.7746  0.5630  0.8628
   70ETH     CH  623   1.406   2.111   0.648 -0.0951 -0.3451 -0.2762
   70ETH     CH  624   1.443   2.057   0.786  0.6493 -0.5517 -0.5577
   70ETH     HO  625   1.450   2.301   0.612  0.8052  1.3528 -0.3219
   70ETH     HC  626   1.305   2.153   0.645 -0.9175 -2.1506  1.0723
   70ETH     HC  627   1.406   2.032   0.573 -0.4534 -2.3925  1.8336
   70ETH     HC  628   1.549   2.029   0.790  0.3976 -2.1484 -3.4171
   70ETH     HC  629   1.416   2.129   0.863 -1.3524 -0.0944 -1.6584
   70ETH     HC  630   1.379   1.972   0.808 -0.7400  0.7065  0.3520
   71ETH     OH  631   1.486   4.117   2.782  0.0928 -0.1253 -0.1679
   71ETH     CH  632   1.606   4.189   2.769 -0.2065  0.3720 -0.1593
   71ETH     CH  633   1.593   4.318   2.687 -0.0353  0.2151 -0.4357
   71ETH     HO  634   1.477   4.084   2.693 -0.7310  0.2210 -0.2164
   71ETH     HC  635   1.631   4.212   2.873 -0.3240  0.1700 -0.0874
   71ETH     HC  636   1.684   4.122   2.733  0.5233  0.9941  0.2410
   71ETH     HC  637   1.515   4.383   2.727  0.9264  0.9808  0.2132
   71ETH     HC  638   1.684   4.378   2.691 -0.3522  0.9084 -2.8516
   71ETH     HC  639   1.578   4.294   2.582  0.1107 -0.0534 -0.3971
   72ETH     OH  640   1.674   1.305   1.117 -0.3172 -0.0591  0.1164
   72ETH     CH  641   1.701   1.201   1.209  0.3091 -0.2256 -0.2528
   72ETH     CH  642   1.607   1.231   1.326  0.2858 -0.2991 -0.2526
   72ETH     HO  643   1.601   1.271   1.068  0.2435  0.7055 -1.2956
   72ETH     HC  644   1.687   1.105   1.160 -1.0285 -0.1571 -0.0054
   72ETH     HC  645   1.803   1.216   1.245 -0.3415 -2.1550  2.4807
   72ETH     HC  646   1.660   1.296   1.396 -1.5781  1.2637 -0.2538
   72ETH     HC  647   1.509   1.271   1.301 -0.4076 -1.0441  1.2443
   72ETH     HC  648   1.588   1.137   1.378 -1.6796  0.5066  0.5178
   73ETH     OH  649   5.313   3.911   6.089 -0.0571  0.3943 -0.5594
   73ETH     CH  650   5.312   3.876   5.952  0.1065  0.0008 -0.4625
   73ETH     CH  651   5.220   3.983   5.892  0.5286 -0.0453 -1.1952
   73ETH     HO  652   5.341   3.832   6.134 -0.6511  1.0989  1.0738
   73ETH     HC  653   5.418   3.879   5.926  0.8279 -2.0468  2.0181
   73ETH     HC  654   5.269   3.777   5.936 -1.4217  0.7706 -1.2324
   73ETH     HC  655   5.228   3.976   5.784 -0.6878 -0.2806 -1.2689
   73ETH     HC  656   5.117   3.974   5.924  1.2711  1.1293  1.7295
   73ETH     HC  657   5.243   4.086   5.919  0.9726  0.3525 -3.0658
   74ETH     OH  658   6.221   5.274   3.077  0.2081  0.0985 -0.0504
   74ETH     CH  659   6.184   5.384   3.157  0.2732  0.3607 -0.3764
   74ETH     CH  660   6.051   5.352   3.225  0.8027 -0.1459  0.4384
   74ETH     HO  661   6.141   5.239   3.041  0.5459 -0.9333  0.2026
   74ETH     HC  662   6.271   5.412   3.217 -0.1518 -0.4019  0.6204
   74ETH     HC  663   6.170   5.469   3.091 -0.1349  0.0042 -0.7539
   74ETH     HC  664   5.956   5.353   3.170 -0.5138  2.3295  2.6561
   74ETH     HC  665   6.053   5.252   3.269  0.5520 -0.9847 -1.4036
   74ETH     HC  666   6.032   5.421   3.307 -1.0742  0.8296 -0.7643
   75ETH     OH  667   1.895   4.809   3.848  0.3746 -0.1132 -0.1549
   75ETH     CH  668   1.866   4.776   3.714 -0.3819 -0.6401  0.1382
   75ETH     CH  669   1.998   4.786   3.638 -0.3274  0.1562  0.3345
   75ETH     HO  670   1.987   4.786   3.858  0.8973  1.3903 -1.3936
   75ETH     HC  671   1.820   4.678   3.701  0.6732 -1.1093 -0.0773
   75ETH     HC  672   1.792   4.841   3.668  1.1299  0.7785 -0.3010
   75ETH     HC  673   2.050   4.881   3.637 -1.0151  0.5499  1.0379
   75ETH     HC  674   2.064   4.711   3.681 -0.2804 -0.2259 -0.4011
   75ETH     HC  675   1.991   4.751   3.535 -3.8056 -1.8739  1.1590
   76ETH     OH  676   5.967   2.897   2.970  0.2352  0.4648  0.2380
   76ETH     CH  677   5.934   2.851   3.099  0.6326  0.4566  0.3378
   76ETH     CH  678   5.836   2.948   3.166 -0.7468 -0.5899 -0.1313
   76ETH     HO  679   5.925   2.848   2.901  0.7667  0.7760 -0.3057
   76ETH     HC  680   5.881   2.756   3.085  1.3981 -0.0494  0.8702
   76ETH     HC  681   6.022   2.838   3.161 -0.0679 -0.0169  1.2434
   76ETH     HC  682   5.877   3.048   3.153 -0.5833 -0.6215  0.1514
   76ETH     HC  683   5.742   2.924   3.116  0.9243 -0.7181 -3.4101
   76ETH     HC  684   5.822   2.932   3.273 -1.7952  0.6005 -0.0862
   77ETH     OH  685   4.755   4.967   5.965  0.2920  0.2464 -0.5987
   77ETH     CH  686   4.628   5.015   5.926  0.1160  0.0681 -0.2484
   77ETH     CH  687   4.541   5.078   6.035  0.1268  0.1063 -0.2609
   77ETH     HO  688   4.804   4.957   5.885 -0.7766 -1.0231 -1.1190
   77ETH     HC  689   4.640   5.080   5.840  1.5498 -2.8624 -2.3627
   77ETH     HC  690   4.580   4.932   5.875 -1.0316  0.7947 -0.3570
   77ETH     HC  691   4.570   5.177   6.071  1.7065 -0.7909  1.0187
   77ETH     HC  692   4.438   5.095   6.004  0.0201  2.5643  1.3345
   77ETH     HC  693   4.542   5.016   6.125 -0.1232  0.0929 -0.2687
   78ETH     OH  694   4.207   2.781   2.640 -0.2757 -0.4205 -0.0751
   78ETH     CH  695   4.082   2.835   2.673 -0.1849 -0.3292  0.1240
   78ETH     CH  696   4.088   2.929   2.794 -0.2345 -0.0987 -0.0510
   78ETH     HO  697   4.247   2.836   2.575 -1.0364  0.5499  0.2811
   78ETH     HC  698   4.025   2.868   2.585 -0.4797 -1.1617  0.0030
   78ETH     HC  699   4.033   2.742   2.703 -2.2864  1.4563  2.4754
   78ETH     HC  700   4.149   3.014   2.764 -0.4444  0.7755  1.9475
   78ETH     HC  701   3.989   2.961   2.827  0.3645 -0.0113  1.6974
   78ETH     HC  702   4.135   2.881   2.880  0.6225 -1.6344 -1.3447
   79ETH     OH  703   3.747   0.242   0.142 -0.3153 -0.0041  0.5999
   79ETH     CH  704   3.855   0.204   0.059 -0.5004  0.4675  0.1419
   79ETH     CH  705   3.983   0.174   0.138 -0.4181  0.5263  0.0308
   79ETH     HO  706   3.665   0.244   0.094 -0.8012 -2.2371  1.2500
   79ETH     HC  707   3.835   0.121  -0.008  2.6135  0.8575 -1.3883
   79ETH     HC  708   3.882   0.288  -0.006 -0.7515  0.5548  0.1487
   79ETH     HC  709   4.033   0.261   0.180  0.2159  0.3403 -0.3394
   79ETH     HC  710   3.966   0.106   0.221  2.3861 -0.3949 -0.1102
   79ETH     HC  711   4.057   0.119   0.081 -0.0888  1.3985 -0.3926
   80ETH     OH  712   2.153   4.634   5.202 -0.1523 -0.4151 -0.5449
   80ETH     CH  713   2.271   4.585   5.262 -0.2516  0.0976  0.0721
   80ETH     CH  714   2.371   4.700   5.277 -0.3067  0.2119 -0.4240
   80ETH     HO  715   2.118   4.562   5.152  1.7863 -0.8380 -1.3704
   80ETH     HC  716   2.243   4.535   5.355  0.1444  0.4961  0.4062
   80ETH     HC  717   2.329   4.515   5.202  1.1790  0.0121  1.5348
   80ETH     HC  718   2.360   4.757   5.185  1.9951 -0.4181 -1.1187
   80ETH     HC  719   2.327   4.762   5.355 -1.2982 -2.2536  1.0531
   80ETH     HC  720   2.466   4.655   5.307 -1.1112 -0.3855  1.3188
   81ETH     OH  721   3.338   5.608   4.007  0.2514  0.4459  0.3614
   81ETH     CH  722   3.424   5.697   3.939 -0.2536  0.4653 -0.2653
   81ETH     CH  723   3.497   5.788   4.039 -0.4941  0.1904  0.1656
   81ETH     HO  724   3.267   5.659   4.041  1.1170  0.5603  2.0068
   81ETH     HC  725   3.502   5.644   3.884 -1.8177 -1.9655 -0.2186
   81ETH     HC  726   3.369   5.737   3.855 -0.8218  1.3853  0.5440
   81ETH     HC  727   3.550   5.863   3.981 -1.3931  0.5028 -0.2708
   81ETH     HC  728   3.425   5.837   4.103  0.7368  0.6122  1.2358
   81ETH     HC  729   3.567   5.726   4.095  0.4547 -0.4487 -1.6544
   82ETH     OH  730   4.311   5.824   0.070  0.2552 -0.2233  0.1336
   82ETH     CH  731   4.413   5.901   0.128  0.4165  0.2067 -0.7103
   82ETH     CH  732   4.513   5.942   0.021  0.5617  0.3940 -0.5038
   82ETH     HO  733   4.357   5.744   0.051 -0.1539 -0.4211 -0.0417
   82ETH     HC  734   4.363   5.988   0.171 -0.2514  0.0680 -1.2049
   82ETH     HC  735   4.446   5.837   0.210 -2.5131 -1.2926 -0.6194
   82ETH     HC  736   4.552   5.856  -0.034 -0.1931  0.5171 -1.2461
   82ETH     HC  737   4.471   6.019  -0.044 -2.1996 -1.5751 -1.1355
   82ETH     HC  738   4.597   5.984   0.077  2.6162 -0.6719 -2.6848
   83ETH     OH  739   1.923   1.908   0.524 -0.1119  0.3338 -0.0749
   83ETH     CH  740   1.889   1.781   0.575  0.2541  0.0123 -0.6290
   83ETH     CH  741   2.020   1.705   0.599  0.3870  0.2248 -0.6752
   83ETH     HO  742   1.855   1.967   0.554 -0.6430 -0.9799  1.3532
   83ETH     HC  743   1.835   1.813   0.664 -0.3258 -1.4531 -0.4479
   83ETH     HC  744   1.807   1.736   0.519 -2.9379  2.6203  1.7434
   83ETH     HC  745   1.993   1.602   0.625  0.8284  0.5001  0.9098
   83ETH     HC  746   2.068   1.696   0.501  0.0982  4.2617 -1.2705
   83ETH     HC  747   2.085   1.763   0.664 -1.1915  2.4988 -1.0769
   84ETH     OH  748   6.269   3.827   5.064  0.6621 -0.0793 -0.4066
   84ETH     CH  749   6.214   3.799   4.937 -0.1067  0.3480 -0.1662
   84ETH     CH  750   6.200   3.921   4.846 -1.0088  0.3924  0.0305
   84ETH     HO  751   6.327   3.754   5.081  1.9010  0.9891  0.0007
   84ETH     HC  752   6.277   3.725   4.888  0.7551  0.6546  0.4761
   84ETH     HC  753   6.114   3.756   4.946  0.0717  0.1632  1.0346
   84ETH     HC  754   6.294   3.976   4.841 -1.9043  1.8578 -1.2773
   84ETH     HC  755   6.158   3.894   4.749 -0.8962  0.4941 -0.0460
   84ETH     HC  756   6.127   3.990   4.889  2.0486  3.4200  0.5626
   85ETH     OH  757   0.254   0.775   4.934  0.0527  0.5486 -0.1478
   85ETH     CH  758   0.242   0.688   5.044 -1.1048  0.7570 -0.0976
   85ETH     CH  759   0.185   0.550   5.010 -0.3435  0.4625 -0.1972
   85ETH     HO  760   0.325   0.740   4.883  0.2964 -2.3301  2.0911
   85ETH     HC  761   0.347   0.674   5.068 -1.3380  1.2766  1.2432
   85ETH     HC  762   0.177   0.734   5.118 -2.2109  1.6765 -1.5906
   85ETH     HC  763   0.194   0.472   5.085  3.3916  1.0265  0.0481
   85ETH     HC  764   0.078   0.561   4.989 -0.1191 -0.9924 -2.2804
   85ETH     HC  765   0.225   0.527   4.911  0.3687  0.1600  0.1588
   86ETH     OH  766   3.400   3.150   0.113 -0.2547  0.1008  0.3899
   86ETH     CH  767   3.527   3.129   0.172 -0.1138 -0.1748 -0.0084
   86ETH     CH  768   3.566   3.250   0.256 -0.5037  0.6909 -1.0475
   86ETH     HO  769   3.334   3.114   0.171  2.1370 -2.6140  1.5803
   86ETH     HC  770   3.539   3.035   0.225 -1.5182 -0.2776  0.1636
   86ETH     HC  771   3.595   3.128   0.087  0.1193  2.2046  0.1010
   86ETH     HC  772   3.478   3.271   0.317  1.2502  1.4510  1.3261
   86ETH     HC  773   3.659   3.238   0.313 -0.4292  0.8722 -1.1319
   86ETH     HC  774   3.592   3.340   0.201 -1.4835  1.0652 -0.9111
   87ETH     OH  775   0.612   3.146   3.719  0.3291 -0.1156 -0.2031
   87ETH     CH  776   0.614   3.016   3.665 -0.2318 -0.3678  0.3710
   87ETH     CH  777   0.466   2.981   3.651 -0.4206  0.6931 -0.2581
   87ETH     HO  778   0.570   3.139   3.804  1.7682 -0.5817  0.4817
   87ETH     HC  779   0.654   2.946   3.739 -0.3802 -3.7311 -2.5519
   87ETH     HC  780   0.657   3.000   3.566 -0.7241 -1.5772  0.3437
   87ETH     HC  781   0.411   2.974   3.745 -0.6620  0.2848 -0.4297
   87ETH     HC  782   0.424   3.058   3.586 -2.5139  0.5581  0.9143
   87ETH     HC  783   0.463   2.889   3.593 -2.3053  0.0060  0.9181
   88ETH     OH  784   0.616   6.260   1.085  0.0337 -0.3932  0.2495
   88ETH     CH  785   0.536   6.146   1.109  0.2001 -0.5923 -0.1437
   88ETH     CH  786   0.456   6.120   0.981 -0.0241  0.1140 -0.1455
   88ETH     HO  787   0.660   6.291   1.163  0.2680  1.3358 -0.5418
   88ETH     HC  788   0.590   6.056   1.140 -0.1272 -0.4733  0.7913
   88ETH     HC  789   0.466   6.163   1.191 -1.2692 -1.7094 -1.1354
   88ETH     HC  790   0.520   6.088   0.899 -0.9916 -3.3261  0.3932
   88ETH     HC  791   0.381   6.041   0.983  0.4458 -0.3289  0.1312
   88ETH     HC  792   0.403   6.208   0.945  1.6139  0.7901 -0.9712
   89ETH     OH  793   5.957   4.807   6.037  0.1462  0.0926 -0.8527
   89ETH     CH  794   6.089   4.855   6.029  0.3276 -0.3222 -0.3495
   89ETH     CH  795   6.156   4.863   6.167 -0.7170  0.4814  0.1194
   89ETH     HO  796   5.943   4.732   5.982 -0.6080 -1.6446  1.6185
   89ETH     HC  797   6.140   4.802   5.949 -0.1167 -2.3084  0.6558
   89ETH     HC  798   6.084   4.956   5.989 -0.4214  1.2848  3.5581
   89ETH     HC  799   6.259   4.893   6.148 -0.0348 -0.5434  2.0351
   89ETH     HC  800   6.095   4.933   6.224  1.1892  1.6085  0.7982
   89ETH     HC  801   6.170   4.768   6.219  3.8087  0.6127 -0.6474
   90ETH     OH  802   0.522   5.754   2.909 -0.0729 -0.2320  0.6873
   90ETH     CH  803   0.516   5.761   2.769 -0.6178 -0.0358  0.7196
   90ETH     CH  804   0.472   5.636   2.694 -0.6948  0.2378  0.3023
   90ETH     HO  805   0.572   5.676   2.929 -0.6101 -0.7055  0.1776
   90ETH     HC  806   0.454   5.847   2.743 -0.6723 -0.5700 -0.9802
   90ETH     HC  807   0.616   5.788   2.734 -0.3946 -0.3820  1.0966
   90ETH     HC  808   0.458   5.660   2.589  1.9478  2.4539  0.4133
   90ETH     HC  809   0.545   5.556   2.706  0.2338  1.3079  1.9592
   90ETH     HC  810   0.378   5.594   2.730  1.0778 -1.3415  3.3147
   91ETH     OH  811   4.417   3.826   4.797  0.5729 -0.3805 -0.3837
   91ETH     CH  812   4.378   3.922   4.702 -0.0117 -0.2889 -0.0597
   91ETH     CH  813   4.485   4.032   4.709 -0.4481  0.1227  0.1305
   91ETH     HO  814   4.348   3.839   4.861 -1.2708  0.6343 -2.5150
   91ETH     HC  815   4.287   3.975   4.728 -0.4427 -0.4572 -1.1834
   91ETH     HC  816   4.368   3.880   4.602  0.9839  2.1870 -1.2584
   91ETH     HC  817   4.579   4.011   4.658 -0.7565 -1.2171  0.1100
   91ETH     HC  818   4.449   4.127   4.668 -1.8316 -0.3280  0.2703
   91ETH     HC  819   4.499   4.056   4.814 -0.7764  1.3538 -0.0901
   92ETH     OH  820   6.072   2.679   4.572 -0.3158  0.4582 -0.7620
   92ETH     CH  821   6.198   2.727   4.615 -0.2589  0.0441 -0.4595
   92ETH     CH  822   6.256   2.818   4.507 -0.5837 -0.3557 -0.9742
   92ETH     HO  823   6.020   2.644   4.643 -0.9978  0.3493 -1.3120
   92ETH     HC  824   6.196   2.777   4.712 -1.2384 -1.3223  0.2506
   92ETH     HC  825   6.242   2.627   4.621 -0.9839 -0.1699  2.0994
   92ETH     HC  826   6.188   2.897   4.477  0.1273  0.5018 -0.3298
   92ETH     HC  827   6.355   2.860   4.524 -0.3966 -0.1862 -2.4311
   92ETH     HC  828   6.270   2.759   4.416 -0.0717 -0.5400 -0.7773
   93ETH     OH  829   4.798   0.801   3.916  0.0433  0.1424 -0.1511
   93ETH     CH  830   4.868   0.920   3.945 -0.3359  0.3168  0.0464
   93ETH     CH  831   4.859   1.019   3.828  0.7983  0.4840  0.0988
   93ETH     HO  832   4.706   0.823   3.924  0.0036 -0.5396  1.3767
   93ETH     HC  833   4.820   0.963   4.033  0.6199 -0.5041  0.9784
   93ETH     HC  834   4.974   0.905   3.965 -0.0390 -0.6002 -2.1310
   93ETH     HC  835   4.754   1.031   3.803  0.8575 -1.3434 -1.1281
   93ETH     HC  836   4.899   1.119   3.842 -0.6444  1.1907 -0.7167
   93ETH     HC  837   4.904   0.984   3.735  0.9156  0.8976  0.0002
   94ETH     OH  838   6.165   4.764   5.564 -0.0741  0.4907  0.0620
   94ETH     CH  839   6.130   4.894   5.523  0.8048  0.4490 -0.8197
   94ETH     CH  840   6.153   4.977   5.648 -0.0843 -0.0553 -0.3167
   94ETH     HO  841   6.254   4.751   5.592 -0.9051 -0.9517  2.1905
   94ETH     HC  842   6.196   4.935   5.446 -0.8400  1.4021 -1.7559
   94ETH     HC  843   6.023   4.900   5.500  0.0474 -0.5428  2.2910
   94ETH     HC  844   6.261   4.979   5.659  0.1573 -2.3240 -2.0933
   94ETH     HC  845   6.120   5.081   5.651 -0.5653 -0.1748 -1.5337
   94ETH     HC  846   6.109   4.924   5.732  0.7811 -3.5539 -2.0004
   95ETH     OH  847   4.440   0.445   0.861 -0.2754 -0.3534 -0.2809
   95ETH     CH  848   4.313   0.500   0.892 -0.2602 -0.2865 -0.3335
   95ETH     CH  849   4.286   0.612   0.792  0.1283 -0.2870 -0.4399
   95ETH     HO  850   4.460   0.371   0.915  0.2536  0.4501  0.6392
   95ETH     HC  851   4.234   0.426   0.878  0.7165 -1.4295  0.0529
   95ETH     HC  852   4.306   0.529   0.997  0.4962  1.7652 -0.8306
   95ETH     HC  853   4.186   0.654   0.791  0.6758  1.0448 -0.7471
   95ETH     HC  854   4.348   0.700   0.812 -1.3101  0.6258  0.0661
   95ETH     HC  855   4.309   0.598   0.687  0.0017  0.9390 -0.6419
   96ETH     OH  856   2.751   4.231   0.598  0.3218  0.1560  0.0831
   96ETH     CH  857   2.791   4.123   0.517 -0.0680 -0.0189  0.1177
   96ETH     CH  858   2.805   4.163   0.371  0.5613 -0.1620  0.1326
   96ETH     HO  859   2.825   4.286   0.618 -0.7614  1.1641  1.4872
   96ETH     HC  860   2.890   4.087   0.547  1.9411  3.5333 -1.9352
   96ETH     HC  861   2.709   4.052   0.521 -0.4285  0.4609  2.0730
   96ETH     HC  862   2.810   4.084   0.296 -1.8824  1.5368 -1.9490
   96ETH     HC  863   2.710   4.212   0.346 -0.7701 -1.8844  1.6360
   96ETH     HC  864   2.888   4.230   0.350 -1.4408  2.9727  1.8246
   97ETH     OH  865   0.469   0.485   6.123 -0.1535  0.8717 -0.2742
   97ETH     CH  866   0.480   0.533   6.255 -0.0457 -0.1647  0.1013
   97ETH     CH  867   0.389   0.653   6.283  0.1203 -0.0539  0.1680
   97ETH     HO  868   0.540   0.423   6.119 -1.0353 -0.4429  2.5650
   97ETH     HC  869   0.587   0.550   6.271 -0.0315  1.0166 -1.1661
   97ETH     HC  870   0.456   0.446   6.317  3.2563 -2.0424 -1.1059
   97ETH     HC  871   0.426   0.739   6.228  2.1876 -2.5453 -2.5089
   97ETH     HC  872   0.295   0.631   6.232 -0.0465  1.1298 -0.0319
   97ETH     HC  873   0.376   0.668   6.390  1.1513 -1.6869  0.5401
   98ETH     OH  874   1.085   0.510   3.534 -0.3056 -0.1301  0.2426
   98ETH     CH  875   0.951   0.495   3.573  0.0017 -0.1727  1.2988
   98ETH     CH  876   0.874   0.616   3.520 -0.0456 -0.6813  0.1869
   98ETH     HO  877   1.144   0.459   3.588  0.4607  1.6508  1.1405
   98ETH     HC  878   0.908   0.408   3.522  0.1121  2.3459 -3.4241
   98ETH     HC  879   0.939   0.487   3.681 -1.5788 -1.3859  1.0537
   98ETH     HC  880   0.895   0.709   3.574 -0.7522 -0.7550  0.5941
   98ETH     HC  881   0.891   0.624   3.412  0.2442 -2.2432  0.1133
   98ETH     HC  882   0.766   0.605   3.527 -0.1164  0.4454  1.0415
   99ETH     OH  883   5.374   5.637   2.049 -0.1389  0.1473  0.0720
   99ETH     CH  884   5.263   5.707   2.101 -0.0275  0.3074  0.0939
   99ETH     CH  885   5.248   5.683   2.252 -0.2264 -0.4621 -0.0457
   99ETH     HO  886   5.379   5.545   2.071  1.5660  0.0389 -0.6879
   99ETH     HC  887   5.265   5.813   2.077 -1.8587  0.2797 -0.2383
   99ETH     HC  888   5.171   5.672   2.054  0.6172  0.3181 -1.1708
   99ETH     HC  889   5.227   5.581   2.283 -2.9988 -0.5441 -2.0020
   99ETH     HC  890   5.342   5.707   2.302  0.0595  0.5922 -1.0581
   99ETH     HC  891   5.172   5.748   2.295 -0.5831 -1.1873  0.4335
  100ETH     OH  892   4.159   5.320   3.418 -0.3227 -0.0845 -0.6228
  100ETH     CH  893   4.059   5.366   3.505  0.4768  0.6846 -0.1091
  100ETH     CH  894   4.053   5.244   3.597 -0.2008  0.1324 -0.8785
  100ETH     HO  895   4.171   5.374   3.342  1.6179  2.2207  1.2488
  100ETH     HC  896   4.102   5.456   3.551  1.2838  0.1611  0.1628
  100ETH     HC  897   3.964   5.384   3.453 -1.0497  2.4950  3.0999
  100ETH     HC  898   3.997   5.269   3.687  0.9395 -1.4950  0.3091
  100ETH     HC  899   4.031   5.149   3.548  0.1487  0.0382 -0.8513
  100ETH     HC  900   4.146   5.234   3.653 -1.2923  1.5740  1.2886
  101ETH     OH  901   3.557   5.688   5.908 -0.4870  0.6803 -0.4927
  101ETH     CH  902   3.478   5.635   6.012  0.4478 -0.3387 -0.2976
  101ETH     CH  903   3.404   5.754   6.073 -0.1033 -0.6313 -0.3941
  101ETH     HO  904   3.623   5.623   5.890 -0.9924  0.2921 -0.9515
  101ETH     HC  905   3.408   5.554   5.992  0.9271 -0.8539  0.0758
  101ETH     HC  906   3.544   5.606   6.094 -1.0353 -0.2917  0.9215
  101ETH     HC  907   3.461   5.837   6.114 -0.5640  0.0004 -1.0246
  101ETH     HC  908   3.335   5.795   6.000 -0.6449 -0.5541  0.1558
  101ETH     HC  909   3.347   5.717   6.159 -0.4169  0.9931  0.1098
  102ETH     OH  910   1.715   3.842   0.721 -0.0956  0.2200 -0.2435
  102ETH     CH  911   1.700   3.873   0.858 -0.3888  0.3131 -0.2961
  102ETH     CH  912   1.603   3.779   0.928 -0.4096  0.2555 -0.4019
  102ETH     HO  913   1.765   3.763   0.711  1.2854  1.0582 -0.0591
  102ETH     HC  914   1.799   3.882   0.904  0.6019  1.0540 -2.4768
  102ETH     HC  915   1.663   3.976   0.852 -1.6218  0.1023  2.8017
  102ETH     HC  916   1.643   3.679   0.943  0.6768  0.8073  0.4548
  102ETH     HC  917   1.577   3.818   1.027  0.7705 -0.2441  0.1145
  102ETH     HC  918   1.515   3.767   0.865 -0.2477  2.9865 -1.1977
  103ETH     OH  919   5.515   2.178   4.662  0.8347  0.3420 -0.1314
  103ETH     CH  920   5.641   2.122   4.634  0.6011 -0.0571 -0.3917
  103ETH     CH  921   5.683   2.048   4.762 -0.4800  0.1330  0.0834
  103ETH     HO  922   5.515   2.219   4.747 -2.7835 -0.4989  0.3765
  103ETH     HC  923   5.630   2.058   4.547 -0.1919  1.7668 -1.6477
  103ETH     HC  924   5.698   2.212   4.614  3.4200 -1.7112 -0.1401
  103ETH     HC  925   5.770   1.992   4.726 -0.6173 -1.5475  2.3048
  103ETH     HC  926   5.716   2.116   4.841  1.6906  0.0266 -0.6764
  103ETH     HC  927   5.608   1.983   4.805  0.5352 -2.0490 -1.3193
  104ETH     OH  928   0.821   4.505   5.860  0.1313  0.3843 -0.1943
  104ETH     CH  929   0.708   4.585   5.887  0.3631  0.3357  0.9303
  104ETH     CH  930   0.656   4.634   5.752  0.5790  0.1880  0.7934
  104ETH     HO  931   0.879   4.504   5.934 -0.1497  1.0447  0.0408
  104ETH     HC  932   0.630   4.527   5.937 -2.6514  3.0042 -0.4885
  104ETH     HC  933   0.736   4.669   5.950  1.8354  0.5911 -0.0406
  104ETH     HC  934   0.717   4.711   5.704 -0.7880  0.2512 -0.8900
  104ETH     HC  935   0.641   4.546   5.690  0.2751  1.4716 -1.0175
  104ETH     HC  936   0.558   4.677   5.771  0.2261 -1.3218  2.5050
  105ETH     OH  937   0.233   4.069   6.239 -0.3308 -0.0093  0.3556
  105ETH     CH  938   0.204   4.190   6.173 -0.1498 -0.1047  0.0991
  105ETH     CH  939   0.314   4.294   6.195  0.5492 -0.8547  0.1523
  105ETH     HO  940   0.275   4.015   6.174  0.6483  1.1692 -0.0316
  105ETH     HC  941   0.178   4.169   6.069  0.2740 -0.5293  0.0787
  105ETH     HC  942   0.117   4.227   6.227 -2.4209 -2.5479 -1.7398
  105ETH     HC  943   0.403   4.264   6.140  0.5588 -0.2372 -0.1689
  105ETH     HC  944   0.286   4.383   6.139 -1.8337 -2.3368 -1.0936
  105ETH     HC  945   0.337   4.312   6.300 -3.7307  0.3297  1.0061
  106ETH     OH  946   5.000   5.167   0.446 -0.2217 -0.1227  0.2492
  106ETH     CH  947   4.976   5.289   0.513  0.2298  0.1814 -0.1308
  106ETH     CH  948   4.865   5.371   0.447 -0.0486 -0.3535 -0.3297
  106ETH     HO  949   5.075   5.128   0.487 -1.3023 -0.9946  1.4151
  106ETH     HC  950   4.941   5.268   0.614  1.2982  0.8887  0.3900
  106ETH     HC  951   5.057   5.362   0.520  0.7193 -0.4642  1.2038
  106ETH     HC  952   4.875   5.380   0.339  0.3469  2.7905 -0.0769
  106ETH     HC  953   4.767   5.325   0.457 -0.9593  1.0881 -2.3344
  106ETH     HC  954   4.859   5.465   0.501  1.2870  0.6467 -1.8786
  107ETH     OH  955   4.562   5.147   1.662 -0.0685  0.5307  0.4773
  107ETH     CH  956   4.517   5.044   1.747 -0.3390 -0.5332 -0.9394
  107ETH     CH  957   4.373   5.088   1.770  0.1256  0.6778 -0.3093
  107ETH     HO  958   4.654   5.138   1.641 -0.5875 -0.9397 -1.3109
  107ETH     HC  959   4.532   4.944   1.706 -1.4910 -0.2733 -2.0202
  107ETH     HC  960   4.568   5.032   1.843 -1.4101 -1.5089 -0.4872
  107ETH     HC  961   4.366   5.185   1.820  1.7606 -0.3167  1.9114
  107ETH     HC  962   4.316   5.089   1.677 -0.7474 -2.6619  0.1232
  107ETH     HC  963   4.326   5.006   1.824  0.0812  0.8355 -0.1060
  108ETH     OH  964   0.288   6.131   3.657 -0.4494 -0.8772  0.2228
  108ETH     CH  965   0.323   6.061   3.539 -0.1941  0.0959 -0.2870
  108ETH     CH  966   0.204   5.983   3.482 -0.1748  0.0612 -0.2786
  108ETH     HO  967   0.248   6.063   3.708  1.4537 -0.5511  2.2342
  108ETH     HC  968   0.366   6.137   3.474  0.3672  0.9622  1.0763
  108ETH     HC  969   0.399   5.987   3.561 -1.9007 -1.5178  0.3014
  108ETH     HC  970   0.243   5.912   3.409  0.0609  1.5299 -1.6090
  108ETH     HC  971   0.145   5.929   3.556  0.8591 -0.2280  0.3504
  108ETH     HC  972   0.138   6.045   3.422 -0.5122 -0.0842 -0.0585
  109ETH     OH  973   2.690   3.629   4.914 -0.1821 -0.5221  0.3027
  109ETH     CH  974   2.714   3.732   5.007  0.7109 -0.0511 -0.4403
  109ETH     CH  975   2.584   3.812   5.023  0.5731 -0.4547  0.4738
  109ETH     HO  976   2.629   3.564   4.945  0.8490 -1.0656  1.2465
  109ETH     HC  977   2.736   3.682   5.101  1.8376  0.5232 -0.3894
  109ETH     HC  978   2.798   3.801   4.998  2.2595 -1.9747 -0.8612
  109ETH     HC  979   2.589   3.862   5.119  0.1245 -1.2679  0.9251
  109ETH     HC  980   2.562   3.885   4.945 -0.1360 -0.5619  0.5695
  109ETH     HC  981   2.492   3.754   5.032 -1.2711  2.1936 -0.5348
  110ETH     OH  982   1.363   5.273   3.492 -0.1481 -0.4475 -0.5913
  110ETH     CH  983   1.436   5.171   3.427  0.1917 -0.4957 -0.1379
  110ETH     CH  984   1.529   5.107   3.530  0.2806 -0.0093  0.0853
  110ETH     HO  985   1.424   5.337   3.523  1.9164 -1.6521 -2.0048
  110ETH     HC  986   1.373   5.092   3.385 -1.5020  0.7229  0.0498
  110ETH     HC  987   1.493   5.210   3.342  1.1438  0.6177  0.9988
  110ETH     HC  988   1.588   5.189   3.571 -0.4859 -0.6293  2.4757
  110ETH     HC  989   1.475   5.072   3.617  0.8181 -0.8213  0.0971
  110ETH     HC  990   1.589   5.028   3.484 -1.5128 -0.1212 -2.1868
  111ETH     OH  991   0.563   4.205   0.833 -0.1752 -0.2064  0.1741
  111ETH     CH  992   0.635   4.290   0.920 -0.0171 -0.0884 -0.0704
  111ETH     CH  993   0.535   4.385   0.986 -0.1364 -0.1001 -0.2337
  111ETH     HO  994   0.629   4.164   0.780 -2.5526 -2.8376 -0.8442
  111ETH     HC  995   0.683   4.224   0.992  1.4866  1.3996  0.3164
  111ETH     HC  996   0.707   4.345   0.860 -0.2196 -1.1910 -1.3492
  111ETH     HC  997   0.455   4.334   1.040 -1.5338  0.2064 -1.9517
  111ETH     HC  998   0.582   4.445   1.064 -1.6854  0.0453  0.6044
  111ETH     HC  999   0.489   4.452   0.913  0.4453  0.7747  0.1901
  112ETH     OH 1000   0.035   4.399   4.631 -0.0972 -0.0945  0.0446
  112ETH     CH 1001  -0.033   4.359   4.748 -0.4846  0.7490  0.1090
  112ETH     CH 1002   0.075   4.312   4.845  0.1482 -0.1884 -1.0415
  112ETH     HO 1003   0.056   4.490   4.640 -1.7786  0.1941  1.2997
  112ETH     HC 1004  -0.092   4.443   4.786 -1.7623  1.1989 -2.7514
  112ETH     HC 1005  -0.103   4.279   4.724 -0.7184  0.9362  0.1562
  112ETH     HC 1006   0.126   4.223   4.809  3.0750  0.9998 -0.0065
  112ETH     HC 1007   0.149   4.392   4.849 -0.5286  0.3929  0.0449
  112ETH     HC 1008   0.029   4.298   4.943 -0.1666  0.4552 -1.0948
  113ETH     OH 1009   5.273   5.199   1.037  0.0247  0.3220 -0.1457
  113ETH     CH 1010   5.178   5.206   0.934 -0.1923  0.1970  0.0458
  113ETH     CH 1011   5.052   5.288   0.957 -0.2715  0.2161 -0.4401
  113ETH     HO 1012   5.336   5.134   1.008 -1.4256 -0.8769 -0.6793
  113ETH     HC 1013   5.224   5.264   0.854 -0.1466  1.0887  0.7192
  113ETH     HC 1014   5.149   5.105   0.905  1.0898  0.1965 -1.3204
  113ETH     HC 1015   5.007   5.267   1.054 -0.5977  0.4723 -0.5341
  113ETH     HC 1016   5.074   5.394   0.945  0.5354  0.2566  1.2538
  113ETH     HC 1017   4.975   5.270   0.882  1.2031 -1.4657 -1.5676
  114ETH     OH 1018   3.845   5.840   5.488  0.2084  0.0717  0.5394
  114ETH     CH 1019   3.808   5.767   5.373  0.6242  0.2056  0.3204
  114ETH     CH 1020   3.871   5.628   5.362 -0.1835 -0.1135 -0.4102
  114ETH     HO 1021   3.842   5.932   5.468  0.6877  0.3798  1.8748
  114ETH     HC 1022   3.700   5.752   5.375  0.7517 -0.6579  1.2415
  114ETH     HC 1023   3.845   5.818   5.284  1.0368  1.1621  1.0365
  114ETH     HC 1024   3.846   5.572   5.453 -0.0054  0.8878  0.2595
  114ETH     HC 1025   3.853   5.572   5.270  0.3804 -1.5277  0.3224
  114ETH     HC 1026   3.977   5.652   5.361 -0.2665  0.2393 -1.6536
  115ETH     OH 1027   4.922   5.469   1.510  0.2050 -0.1536 -0.0273
  115ETH     CH 1028   4.964   5.415   1.387 -0.5424  0.1874 -0.4390
  115ETH     CH 1029   5.012   5.527   1.295  0.2092  0.1760 -0.0641
  115ETH     HO 1030   4.836   5.507   1.498  1.0507  1.9898  0.4850
  115ETH     HC 1031   5.063   5.374   1.409 -1.3378  0.0098  2.9930
  115ETH     HC 1032   4.894   5.345   1.341 -1.4264  0.2383  0.8218
  115ETH     HC 1033   5.088   5.592   1.339 -0.3186  0.0093  1.1076
  115ETH     HC 1034   5.058   5.490   1.203 -0.5154  1.0808 -0.8136
  115ETH     HC 1035   4.930   5.592   1.265  1.1777  1.0440 -0.8859
  116ETH     OH 1036   0.994   2.514   1.534 -0.0706  0.0360 -0.1770
  116ETH     CH 1037   1.045   2.404   1.462 -0.2696 -0.2668  0.1395
  116ETH     CH 1038   1.109   2.457   1.333 -0.2651 -0.7106 -0.0410
  116ETH     HO 1039   0.965   2.482   1.618  1.7105  1.3544  0.9551
  116ETH     HC 1040   1.107   2.346   1.529  0.0876  0.1185  0.1495
  116ETH     HC 1041   0.966   2.337   1.429 -0.1796 -1.4887  2.3361
  116ETH     HC 1042   1.163   2.375   1.286  0.1375 -1.2092  1.2779
  116ETH     HC 1043   1.029   2.492   1.268  0.5955  1.4277  0.0195
  116ETH     HC 1044   1.187   2.532   1.349  1.1778 -2.3693  0.8685
  117ETH     OH 1045   4.238   1.176   3.193  0.3169 -0.0535  0.4625
  117ETH     CH 1046   4.109   1.129   3.228  0.2772 -0.3973 -0.1320
  117ETH     CH 1047   4.111   0.977   3.243 -0.5864 -0.3808  0.1473
  117ETH     HO 1048   4.234   1.168   3.099 -2.4999  2.6148  0.2670
  117ETH     HC 1049   4.075   1.186   3.314 -1.0383 -0.4834 -0.5959
  117ETH     HC 1050   4.047   1.155   3.142  0.4954  0.1199 -0.1353
  117ETH     HC 1051   4.016   0.947   3.287  0.2485 -1.9034  0.9587
  117ETH     HC 1052   4.102   0.937   3.142  1.2966 -0.2661 -0.0829
  117ETH     HC 1053   4.194   0.947   3.308 -1.7652  0.1834  1.9518
  118ETH     OH 1054   2.317   0.346   4.106  0.0101 -0.4744 -0.2112
  118ETH     CH 1055   2.394   0.420   4.198 -0.4854 -0.1106 -0.0834
  118ETH     CH 1056   2.373   0.365   4.340 -0.6408 -0.0926 -0.0995
  118ETH     HO 1057   2.319   0.386   4.020 -0.3341  0.2904  0.1326
  118ETH     HC 1058   2.501   0.421   4.175 -0.4080 -0.4782  0.2438
  118ETH     HC 1059   2.363   0.524   4.203 -2.8112 -0.7116 -1.6955
  118ETH     HC 1060   2.412   0.263   4.343  1.3435  0.6509 -0.2144
  118ETH     HC 1061   2.441   0.416   4.408  0.3113 -0.9183 -0.4128
  118ETH     HC 1062   2.281   0.367   4.398 -0.1295 -2.9199  0.8889
  119ETH     OH 1063   4.923   5.557   5.712  0.4314  0.5080  0.7414
  119ETH     CH 1064   5.055   5.520   5.680  0.1187 -0.0167  0.0391
  119ETH     CH 1065   5.138   5.457   5.793 -0.1396 -0.6901 -0.1422
  119ETH     HO 1066   4.922   5.643   5.751  0.3131  0.7574  0.1908
  119ETH     HC 1067   5.108   5.611   5.652  1.4381 -0.0129  2.3671
  119ETH     HC 1068   5.043   5.458   5.592 -0.5471  0.6737 -0.3557
  119ETH     HC 1069   5.151   5.524   5.878  0.2764 -2.2651  1.0623
  119ETH     HC 1070   5.097   5.365   5.833 -0.0207 -1.3530 -1.4949
  119ETH     HC 1071   5.240   5.432   5.762  0.1920 -0.8215  1.0385
  120ETH     OH 1072   3.723   4.791   4.588 -0.0475  0.2854 -0.1812
  120ETH     CH 1073   3.703   4.752   4.454  0.0699  0.3560 -0.2199
  120ETH     CH 1074   3.836   4.755   4.379  0.3159  0.6315  0.2214
  120ETH     HO 1075   3.722   4.884   4.607  0.2127  0.0995  0.8027
  120ETH     HC 1076   3.667   4.650   4.467 -1.6591  0.9161 -0.4391
  120ETH     HC 1077   3.619   4.809   4.414 -2.0857 -1.7679  1.1132
  120ETH     HC 1078   3.868   4.858   4.367 -1.7857  1.1684 -0.9984
  120ETH     HC 1079   3.913   4.694   4.427 -0.2208 -0.4219 -0.2223
  120ETH     HC 1080   3.820   4.722   4.276  0.3696 -0.8507  0.6689
  121ETH     OH 1081   3.029   5.897   4.391 -0.1371 -0.5936 -0.0972
  121ETH     CH 1082   3.169   5.912   4.388 -0.1750 -0.2259 -0.0822
  121ETH     CH 1083   3.208   6.044   4.322  0.0376 -0.0728  0.3469
  121ETH     HO 1084   2.989   5.898   4.306  1.2897  1.2868 -0.7772
  121ETH     HC 1085   3.207   5.910   4.490 -2.1399 -0.3180  0.6610
  121ETH     HC 1086   3.213   5.823   4.342 -1.8061 -0.7032 -0.7416
  121ETH     HC 1087   3.316   6.052   4.334  0.4175 -0.1697 -2.6430
  121ETH     HC 1088   3.181   6.056   4.217 -1.4720  0.5246  0.7864
  121ETH     HC 1089   3.154   6.126   4.369 -3.0427 -0.6552 -2.0083
  122ETH     OH 1090   3.849   0.304   5.978  0.3690  0.2143  0.1112
  122ETH     CH 1091   3.811   0.440   5.982 -0.1508  0.0867 -0.4384
  122ETH     CH 1092   3.708   0.458   5.870 -0.9156  0.1562  0.2696
  122ETH     HO 1093   3.861   0.284   5.886 -1.6989  1.1282 -0.4066
  122ETH     HC 1094   3.758   0.460   6.075  3.0739  0.7974  1.2798
  122ETH     HC 1095   3.897   0.506   5.976  0.1025  0.0152  2.1239
  122ETH     HC 1096   3.749   0.459   5.769 -0.6117  1.3515  0.3843
  122ETH     HC 1097   3.635   0.378   5.879  0.1335 -0.5398  2.9940
  122ETH     HC 1098   3.657   0.555   5.872 -1.4224 -0.0036 -2.8091
  123ETH     OH 1099   4.731   5.381   1.122  0.3526  0.1094 -0.1104
  123ETH     CH 1100   4.740   5.510   1.067  0.4885  0.1598  0.0302
  123ETH     CH 1101   4.713   5.496   0.917 -0.2500  0.3712  0.1374
  123ETH     HO 1102   4.655   5.372   1.177 -1.8602  1.4616 -2.8358
  123ETH     HC 1103   4.672   5.581   1.115  1.3530  1.6347 -0.8638
  123ETH     HC 1104   4.844   5.543   1.063  0.7644 -0.7908 -1.0157
  123ETH     HC 1105   4.610   5.464   0.901 -0.9060  1.6066  1.7986
  123ETH     HC 1106   4.728   5.589   0.863  1.2813  0.0572 -0.0194
  123ETH     HC 1107   4.774   5.417   0.871  1.1454  0.7392  1.3167
  124ETH     OH 1108   1.789   1.458   2.775  0.7051 -0.5462 -0.2303
  124ETH     CH 1109   1.803   1.552   2.671 -0.7747 -0.1539 -0.0996
  124ETH     CH 1110   1.710   1.671   2.694 -0.2502  0.1364  0.5404
  124ETH     HO 1111   1.840   1.487   2.849 -0.1044 -2.2911  1.0207
  124ETH     HC 1112   1.906   1.576   2.642 -0.0150 -2.2695  0.7459
  124ETH     HC 1113   1.774   1.504   2.577  0.2100 -0.0675 -0.4565
  124ETH     HC 1114   1.602   1.660   2.688 -0.4263  1.3745  1.2442
  124ETH     HC 1115   1.728   1.702   2.796  0.8527 -0.6639  0.6017
  124ETH     HC 1116   1.739   1.740   2.614 -0.0472 -3.0029 -2.1946
  125ETH     OH 1117   5.722   0.019   1.692 -0.5892 -0.0905 -0.0314
  125ETH     CH 1118   5.715   0.138   1.767 -0.1755  0.1340 -0.3453
  125ETH     CH 1119   5.853   0.185   1.815 -0.2596 -0.2933  0.3277
  125ETH     HO 1120   5.635  -0.008   1.667  0.1079 -2.9663  0.4364
  125ETH     HC 1121   5.650   0.218   1.731 -1.2799  0.1865  1.6821
  125ETH     HC 1122   5.666   0.109   1.860 -0.5994 -0.0448 -0.6240
  125ETH     HC 1123   5.827   0.274   1.873 -3.3423 -0.7194 -0.3094
  125ETH     HC 1124   5.898   0.118   1.888  0.3171 -0.7911 -0.4822
  125ETH     HC 1125   5.919   0.210   1.732 -1.4837  0.8908 -0.3181
  126ETH     OH 1126   3.232   5.135   4.479  0.0450 -0.1349 -0.1432
  126ETH     CH 1127   3.142   5.104   4.374 -0.0579 -0.0536 -0.0787
  126ETH     CH 1128   3.200   5.097   4.233 -0.2057 -0.2470 -0.1289
  126ETH     HO 1129   3.256   5.052   4.518 -1.7657 -0.6845 -0.1367
  126ETH     HC 1130   3.082   5.017   4.400 -1.4453  0.4514 -1.5064
  126ETH     HC 1131   3.068   5.184   4.375  0.5936  0.5621 -0.0630
  126ETH     HC 1132   3.118   5.065   4.169 -1.8129  1.2205  1.1596
  126ETH     HC 1133   3.239   5.194   4.205  0.3049 -0.3379  0.2609
  126ETH     HC 1134   3.285   5.029   4.225  0.0166 -0.0997  0.8639
  127ETH     OH 1135   0.489   1.442   5.526  0.4536  0.1141 -0.3454
  127ETH     CH 1136   0.593   1.357   5.571  0.0178 -0.3622 -0.2378
  127ETH     CH 1137   0.639   1.247   5.475  0.9091 -0.1867 -0.0083
  127ETH     HO 1138   0.410   1.425   5.574  1.9569  1.2037  2.6063
  127ETH     HC 1139   0.675   1.425   5.592 -0.1100 -0.2929  0.0438
  127ETH     HC 1140   0.555   1.323   5.667 -0.0547 -2.3794 -0.9582
  127ETH     HC 1141   0.665   1.279   5.374 -2.3198 -1.9842 -1.4735
  127ETH     HC 1142   0.717   1.195   5.532  0.6938  0.0068  0.4706
  127ETH     HC 1143   0.560   1.173   5.466  0.7714 -0.0653  0.1790
  128ETH     OH 1144   0.243   4.293   5.158 -0.1636 -0.1431 -0.3998
  128ETH     CH 1145   0.316   4.208   5.072  0.3884 -0.2524  0.1703
  128ETH     CH 1146   0.329   4.070   5.138 -0.4523 -0.6490 -0.4913
  128ETH     HO 1147   0.161   4.250   5.175 -0.8051  1.2020 -0.0024
  128ETH     HC 1148   0.254   4.188   4.985 -0.5457 -0.2386  0.8205
  128ETH     HC 1149   0.409   4.244   5.029  0.5111 -2.2871 -1.2873
  128ETH     HC 1150   0.385   4.008   5.069  1.0650 -0.0862  0.2207
  128ETH     HC 1151   0.379   4.078   5.234 -1.5747 -0.3654  0.0795
  128ETH     HC 1152   0.236   4.018   5.160 -0.5644 -0.2736 -0.0688
  129ETH     OH 1153   3.151   6.253   4.849 -0.3763  0.1528 -0.1321
  129ETH     CH 1154   3.048   6.301   4.766 -0.4267 -0.0013 -0.1583
  129ETH     CH 1155   2.990   6.192   4.676  0.3159 -0.0093 -0.6365
  129ETH     HO 1156   3.158   6.315   4.920  0.0676 -0.1961  0.1307
  129ETH     HC 1157   2.976   6.353   4.829  0.3347 -0.2050  0.8964
  129ETH     HC 1158   3.086   6.384   4.706 -0.8064 -0.7235 -1.4330
  129ETH     HC 1159   3.055   6.127   4.617 -0.5445 -1.4265 -0.0637
  129ETH     HC 1160   2.935   6.114   4.729 -0.3551 -0.2170 -1.6205
  129ETH     HC 1161   2.916   6.234   4.607 -0.8242 -0.3107  0.3807
  130ETH     OH 1162   5.437   6.290   1.595  0.2884  0.0929  0.2834
  130ETH     CH 1163   5.426   6.388   1.494 -0.0336 -0.0470  0.1843
  130ETH     CH 1164   5.276   6.392   1.464 -0.0028 -0.2727 -0.0045
  130ETH     HO 1165   5.418   6.204   1.560 -1.9779  0.2008  1.2020
  130ETH     HC 1166   5.459   6.483   1.534 -0.8896 -0.2978  1.5337
  130ETH     HC 1167   5.490   6.376   1.407  0.5909  1.2089  0.4732
  130ETH     HC 1168   5.255   6.298   1.414 -1.7418 -0.2925  0.6864
  130ETH     HC 1169   5.218   6.403   1.556  2.9958  0.6916  1.8373
  130ETH     HC 1170   5.251   6.470   1.393  0.2189 -1.6489 -1.6326
  131ETH     OH 1171   5.359   5.962   3.558  0.2667  0.0076  0.1297
  131ETH     CH 1172   5.261   5.869   3.596  0.2136  0.0193  0.0199
  131ETH     CH 1173   5.289   5.724   3.555 -0.4826 -0.0759 -0.1236
  131ETH     HO 1174   5.349   5.994   3.470 -0.6970 -0.5574  0.0385
  131ETH     HC 1175   5.253   5.866   3.705  1.7096  0.9465  0.1601
  131ETH     HC 1176   5.164   5.909   3.565  1.1722  1.1359 -1.5534
  131ETH     HC 1177   5.299   5.708   3.448 -1.0021 -1.6835  0.0545
  131ETH     HC 1178   5.375   5.687   3.609  0.1168  1.2738 -0.1252
  131ETH     HC 1179   5.204   5.664   3.587 -0.6332  1.9419  3.5581
  132ETH     OH 1180   2.121   4.419   5.666 -0.3345 -0.1075  0.4234
  132ETH     CH 1181   2.112   4.289   5.610  0.3870 -0.2444  0.6146
  132ETH     CH 1182   1.971   4.248   5.653 -0.0240 -0.2926 -0.7462
  132ETH     HO 1183   2.199   4.448   5.621 -0.4979  3.1266  2.1090
  132ETH     HC 1184   2.127   4.300   5.503 -0.4150  2.6301  0.7279
  132ETH     HC 1185   2.190   4.221   5.641  0.1708 -0.0605  1.5731
  132ETH     HC 1186   1.945   4.145   5.628  0.7257 -0.9062  0.8947
  132ETH     HC 1187   1.968   4.260   5.761  3.6418  2.0504 -0.8281
  132ETH     HC 1188   1.889   4.310   5.618  0.4404  1.1514  0.6833
  133ETH     OH 1189   2.599   0.925   5.548  0.0704 -0.0492  0.0880
  133ETH     CH 1190   2.583   1.038   5.466  0.5882  0.3569  0.5456
  133ETH     CH 1191   2.491   1.140   5.535  0.7133  0.4105  0.6347
  133ETH     HO 1192   2.512   0.887   5.555  1.3248 -2.9554  0.8787
  133ETH     HC 1193   2.673   1.097   5.448  1.3319 -0.5773  1.1332
  133ETH     HC 1194   2.537   1.007   5.372 -0.5564 -1.1759  1.5915
  133ETH     HC 1195   2.473   1.223   5.467  0.4129 -0.8071 -0.8131
  133ETH     HC 1196   2.396   1.094   5.561  1.2797 -0.8026  0.6187
  133ETH     HC 1197   2.543   1.174   5.625  2.6273 -0.2706 -0.1774
  134ETH     OH 1198   4.268   5.919   1.943  0.0272 -0.4538 -0.3228
  134ETH     CH 1199   4.234   5.881   1.812 -0.2960 -0.0342 -0.3649
  134ETH     CH 1200   4.246   5.729   1.798 -0.7886 -0.0433 -0.6916
  134ETH     HO 1201   4.324   5.996   1.944 -1.2861  0.6411 -3.6938
  134ETH     HC 1202   4.130   5.896   1.784 -1.6653 -2.2579  3.1498
  134ETH     HC 1203   4.299   5.938   1.746  0.6586  0.4286  0.9451
  134ETH     HC 1204   4.340   5.692   1.839 -0.1488  2.6661  0.4133
  134ETH     HC 1205   4.173   5.679   1.860  0.1269 -1.4702 -0.7431
  134ETH     HC 1206   4.250   5.694   1.694  1.0268  1.1437 -1.0620
  135ETH     OH 1207   4.714   2.038   5.235 -1.0426 -0.1302  0.1992
  135ETH     CH 1208   4.687   2.161   5.298 -0.2132  0.1447  0.0198
  135ETH     CH 1209   4.585   2.153   5.411 -0.1052  0.6094  0.1541
  135ETH     HO 1210   4.775   1.997   5.294 -1.9602 -2.2006 -0.2670
  135ETH     HC 1211   4.659   2.240   5.228  2.7516 -0.1405 -1.6048
  135ETH     HC 1212   4.787   2.191   5.331 -0.0137 -1.6531  1.0477
  135ETH     HC 1213   4.568   2.248   5.462  1.0042  0.6424  0.4749
  135ETH     HC 1214   4.492   2.111   5.372  2.0635 -1.0623 -3.5185
  135ETH     HC 1215   4.613   2.080   5.487  0.2795 -0.3455 -0.8905
  136ETH     OH 1216   4.713   3.736   1.984  0.0816  0.1105  0.0321
  136ETH     CH 1217   4.600   3.673   1.927  0.3327 -0.1060 -0.2305
  136ETH     CH 1218   4.551   3.756   1.808 -0.2148 -0.0527  0.0289
  136ETH     HO 1219   4.728   3.701   2.071 -2.1242 -2.3336 -0.4794
  136ETH     HC 1220   4.623   3.572   1.894 -1.3775 -0.8512  0.8300
  136ETH     HC 1221   4.524   3.653   2.003  1.3237 -3.2460  0.0094
  136ETH     HC 1222   4.451   3.730   1.776 -0.2617 -1.0696  0.9554
  136ETH     HC 1223   4.550   3.861   1.838 -0.6260 -0.3852  1.2048
  136ETH     HC 1224   4.625   3.743   1.729 -2.0491 -2.1453 -1.3770
  137ETH     OH 1225   4.387   4.791   4.241 -0.1096  0.1631 -0.1293
  137ETH     CH 1226   4.341   4.672   4.300 -0.1159  0.3265  0.1958
  137ETH     CH 1227   4.190   4.671   4.271 -0.0947 -0.7376  0.0773
  137ETH     HO 1228   4.455   4.831   4.292  0.5197 -0.0481 -0.7965
  137ETH     HC 1229   4.397   4.593   4.250  2.1345  1.5268  0.7533
  137ETH     HC 1230   4.370   4.662   4.405  1.3262 -1.1367 -0.3269
  137ETH     HC 1231   4.148   4.576   4.304  0.2476 -1.5087 -1.6818
  137ETH     HC 1232   4.134   4.747   4.326  2.4635 -0.1653  2.0329
  137ETH     HC 1233   4.170   4.696   4.167 -1.4046  0.4949  0.6090
  138ETH     OH 1234   4.237   2.862   0.618 -0.2548  0.4011  0.6515
  138ETH     CH 1235   4.357   2.931   0.640 -0.0083  0.0972  0.2605
  138ETH     CH 1236   4.368   2.995   0.778  0.2622  0.2804  0.1551
  138ETH     HO 1237   4.160   2.916   0.630  0.1843  1.2999 -0.5646
  138ETH     HC 1238   4.442   2.867   0.617 -0.7032 -0.0078 -2.2058
  138ETH     HC 1239   4.350   3.010   0.564 -1.7164  0.3099  0.6282
  138ETH     HC 1240   4.275   3.049   0.798 -0.6044 -1.3974  0.7500
  138ETH     HC 1241   4.373   2.919   0.856  0.2280 -1.4924 -1.5504
  138ETH     HC 1242   4.454   3.062   0.771 -1.0698  1.9019 -1.0723
  139ETH     OH 1243   5.833   4.096   0.427 -0.5251 -0.0672  0.0511
  139ETH     CH 1244   5.882   4.190   0.520 -0.0905  0.1133 -0.3573
  139ETH     CH 1245   5.840   4.333   0.486 -0.0984  0.2406  0.1704
  139ETH     HO 1246   5.848   4.011   0.464 -1.7887 -0.7525 -0.9878
  139ETH     HC 1247   5.843   4.175   0.621  0.6753  0.7603  0.0394
  139ETH     HC 1248   5.988   4.190   0.544 -0.1790 -1.6994  0.1426
  139ETH     HC 1249   5.855   4.415   0.555 -0.4465 -0.1790  0.7434
  139ETH     HC 1250   5.889   4.358   0.392  0.8852  1.8391  1.0883
  139ETH     HC 1251   5.732   4.337   0.468  0.1429 -0.9651 -1.7449
  140ETH     OH 1252   4.412   1.512   4.875 -0.1974  0.5292 -0.5655
  140ETH     CH 1253   4.472   1.640   4.880 -0.3033  0.5534  0.0669
  140ETH     CH 1254   4.512   1.678   5.023 -0.5632  0.3713  0.1898
  140ETH     HO 1255   4.415   1.476   4.788 -0.6764 -0.9738  0.0350
  140ETH     HC 1256   4.564   1.632   4.821 -0.3858 -2.0175  0.1919
  140ETH     HC 1257   4.407   1.716   4.839 -1.4693 -1.7805 -2.5680
  140ETH     HC 1258   4.563   1.594   5.069  2.1122  1.8700  0.1090
  140ETH     HC 1259   4.590   1.754   5.008  0.7017 -0.8537  0.4518
  140ETH     HC 1260   4.441   1.724   5.091 -0.9913  0.2953 -0.2018
  141ETH     OH 1261   0.668   5.852   1.685  0.1221 -0.4000  0.1766
  141ETH     CH 1262   0.769   5.935   1.738 -0.1992 -0.2633  0.5729
  141ETH     CH 1263   0.796   5.862   1.870  0.2334 -0.0361  0.6105
  141ETH     HO 1264   0.595   5.910   1.678  1.3260  1.1987  0.5882
  141ETH     HC 1265   0.859   5.936   1.676 -0.0883 -0.7950  0.7218
  141ETH     HC 1266   0.743   6.038   1.761  2.1884  0.0471  2.0764
  141ETH     HC 1267   0.710   5.861   1.937  0.4079  0.8458  0.8580
  141ETH     HC 1268   0.839   5.764   1.850 -1.6508 -0.4108 -1.8791
  141ETH     HC 1269   0.869   5.919   1.928  4.6247 -1.1295 -3.6030
  142ETH     OH 1270   6.227   3.305   3.111  0.0475  0.0564  0.6566
  142ETH     CH 1271   6.160   3.428   3.127  0.1835  0.0994  0.8996
  142ETH     CH 1272   6.041   3.386   3.214  0.0074 -0.6728  0.2917
  142ETH     HO 1273   6.163   3.246   3.075  2.8208 -3.1430  0.7439
  142ETH     HC 1274   6.213   3.511   3.174 -0.5897  0.5615  0.9645
  142ETH     HC 1275   6.120   3.475   3.037  0.9660  0.2909  0.6473
  142ETH     HC 1276   5.986   3.474   3.247  0.1791 -1.0614  1.6383
  142ETH     HC 1277   5.966   3.324   3.166  1.0131 -1.4142 -0.3561
  142ETH     HC 1278   6.076   3.325   3.296  2.0424 -1.6403 -1.2478
  143ETH     OH 1279   4.109   1.908   3.848 -0.0363 -0.0963  0.2579
  143ETH     CH 1280   4.067   1.884   3.981 -0.0903 -0.4198  0.1827
  143ETH     CH 1281   3.938   1.964   3.999  0.4304  0.3934  0.3171
  143ETH     HO 1282   4.052   1.865   3.786 -1.3388 -0.3864  1.6260
  143ETH     HC 1283   4.062   1.775   3.978 -0.8920 -0.4645  2.4987
  143ETH     HC 1284   4.143   1.909   4.054  0.4986 -1.2850 -0.1147
  143ETH     HC 1285   3.868   1.918   3.930  2.5316  2.4151 -3.3164
  143ETH     HC 1286   3.889   1.959   4.096  2.5678 -1.5312  1.3618
  143ETH     HC 1287   3.951   2.067   3.967  0.5604  0.3769  0.3139
  144ETH     OH 1288   3.494   0.406   2.360  0.4229  0.3962 -0.4144
  144ETH     CH 1289   3.520   0.398   2.222 -0.0537 -0.1018 -0.4732
  144ETH     CH 1290   3.518   0.540   2.167 -0.1009  0.1861  0.2739
  144ETH     HO 1291   3.401   0.421   2.366  0.2644 -0.1046 -1.5450
  144ETH     HC 1292   3.622   0.362   2.206  0.4858  1.6812 -1.1347
  144ETH     HC 1293   3.454   0.326   2.173 -2.1276  0.1174  1.9271
  144ETH     HC 1294   3.416   0.576   2.180 -0.7497 -1.5132 -0.0913
  144ETH     HC 1295   3.597   0.594   2.220  1.8170 -0.8082 -1.4790
  144ETH     HC 1296   3.563   0.541   2.068  1.0458  0.4245  0.7884
  145ETH     OH 1297   2.332   0.171   3.421 -0.2313 -0.1835 -0.2581
  145ETH     CH 1298   2.398   0.201   3.300 -0.6414  0.1406 -0.4008
  145ETH     CH 1299   2.548   0.177   3.319 -0.7006 -0.4958 -0.7198
  145ETH     HO 1300   2.266   0.110   3.392  0.5214 -0.3230 -1.7414
  145ETH     HC 1301   2.368   0.125   3.228  0.3934  0.1302 -0.8352
  145ETH     HC 1302   2.376   0.302   3.267  2.9916  0.6092 -1.6770
  145ETH     HC 1303   2.592   0.221   3.229 -1.5575  0.8224 -0.5069
  145ETH     HC 1304   2.589   0.214   3.413 -1.4736 -0.4818 -0.3839
  145ETH     HC 1305   2.578   0.073   3.322  2.6118  0.3503 -1.8089
  146ETH     OH 1306   0.089   2.418   0.618  0.1038 -0.1318  0.0053
  146ETH     CH 1307  -0.051   2.430   0.621  0.0919 -0.2550 -0.0603
  146ETH     CH 1308  -0.103   2.480   0.486 -0.8257 -0.5285  0.1899
  146ETH     HO 1309   0.107   2.332   0.654 -0.5565 -0.6394 -0.8570
  146ETH     HC 1310  -0.095   2.333   0.644 -0.4658  0.5954  2.5441
  146ETH     HC 1311  -0.065   2.496   0.706  1.9500 -1.2081  1.0196
  146ETH     HC 1312  -0.084   2.419   0.397 -0.8305 -1.1875  0.6392
  146ETH     HC 1313  -0.212   2.487   0.491 -0.7418  0.5111  0.4709
  146ETH     HC 1314  -0.057   2.576   0.463  1.4241 -1.8404 -1.0485
  147ETH     OH 1315   1.559   5.739   5.029  0.0533  1.0348 -0.1075
  147ETH     CH 1316   1.622   5.729   4.903 -0.0262  0.3550 -0.0934
  147ETH     CH 1317   1.564   5.609   4.828 -0.3295  0.1640  0.4413
  147ETH     HO 1318   1.543   5.657   5.073  0.6514  1.8175  1.6036
  147ETH     HC 1319   1.611   5.830   4.863 -0.2449  1.5863  2.9718
  147ETH     HC 1320   1.729   5.717   4.921 -0.4012  0.4924  2.4444
  147ETH     HC 1321   1.607   5.607   4.728  1.6876 -1.3103  1.2995
  147ETH     HC 1322   1.590   5.517   4.881  0.0782 -1.1952 -2.0189
  147ETH     HC 1323   1.458   5.624   4.810 -0.1162  2.5092  1.0070
  148ETH     OH 1324   3.559   6.245   6.169  0.5186 -0.4943  0.0921
  148ETH     CH 1325   3.649   6.253   6.061  0.0616  0.0955 -0.2504
  148ETH     CH 1326   3.615   6.350   5.948  0.0523  0.7202  0.2890
  148ETH     HO 1327   3.587   6.174   6.224  1.7528  1.2068  1.7256
  148ETH     HC 1328   3.742   6.290   6.103 -0.3103  0.3695  0.3425
  148ETH     HC 1329   3.671   6.155   6.019  2.3719  0.4419  0.1335
  148ETH     HC 1330   3.524   6.322   5.894  0.3736  1.0343 -0.4180
  148ETH     HC 1331   3.596   6.444   6.000 -2.0398  0.0830  0.7234
  148ETH     HC 1332   3.690   6.357   5.870  2.1721 -0.6840  2.1440
  149ETH     OH 1333   2.023   1.831   4.403  0.2197  0.3952 -0.1676
  149ETH     CH 1334   2.086   1.758   4.301  0.4148  0.0127  0.2226
  149ETH     CH 1335   2.165   1.640   4.356  0.4920  0.1248  0.3522
  149ETH     HO 1336   2.081   1.880   4.460 -0.6773  1.6666 -0.3224
  149ETH     HC 1337   2.015   1.716   4.230  0.6134 -1.5462  0.9341
  149ETH     HC 1338   2.151   1.827   4.247  1.5012 -1.1882 -0.0395
  149ETH     HC 1339   2.251   1.682   4.409  0.1478  1.2292  0.0371
  149ETH     HC 1340   2.114   1.580   4.432 -0.0364  1.4188  1.0292
  149ETH     HC 1341   2.202   1.574   4.277 -1.6701 -1.4181  0.5808
  150ETH     OH 1342   5.748   1.690   5.015 -0.3043  0.6198  0.1425
  150ETH     CH 1343   5.615   1.699   4.971 -0.1993 -0.3643 -0.4073
  150ETH     CH 1344   5.526   1.751   5.084 -0.0626 -0.6111 -0.1851
  150ETH     HO 1345   5.793   1.662   4.937  0.4950 -0.0127  0.8206
  150ETH     HC 1346   5.626   1.768   4.887  1.0564 -0.3393 -0.2345
  150ETH     HC 1347   5.580   1.601   4.938  0.6824  0.1436 -2.8926
  150ETH     HC 1348   5.421   1.735   5.057 -0.1479 -0.6318  0.1525
  150ETH     HC 1349   5.542   1.701   5.180 -3.1917 -0.0631  0.7115
  150ETH     HC 1350   5.542   1.855   5.111  1.4182 -0.9003  0.0523
  151ETH     OH 1351   3.260   2.320   2.270 -0.0183 -0.2984 -0.3553
  151ETH     CH 1352   3.130   2.373   2.280 -0.1627 -0.5376 -0.9408
  151ETH     CH 1353   3.030   2.257   2.275  0.0025 -0.7036 -0.4305
  151ETH     HO 1354   3.310   2.374   2.210 -0.8319  1.6548  0.6975
  151ETH     HC 1355   3.124   2.439   2.366  2.7352 -3.9573  2.0815
  151ETH     HC 1356   3.127   2.429   2.187  2.5955  1.4440  0.1222
  151ETH     HC 1357   3.005   2.212   2.179 -1.6834 -0.1306 -0.2850
  151ETH     HC 1358   3.074   2.183   2.342 -2.1722 -0.1810  1.6567
  151ETH     HC 1359   2.937   2.296   2.317 -0.3744 -0.4707 -1.4642
  152ETH     OH 1360   5.615   5.647   0.607  0.2969  0.5569 -0.8112
  152ETH     CH 1361   5.514   5.578   0.537 -0.1224  0.1066  0.2146
  152ETH     CH 1362   5.378   5.582   0.606  0.2180  0.0028  0.8948
  152ETH     HO 1363   5.683   5.667   0.544  0.0824 -0.5460 -1.4015
  152ETH     HC 1364   5.506   5.605   0.431 -0.9335 -3.3274 -0.6670
  152ETH     HC 1365   5.543   5.475   0.518  0.5023  0.2128  0.5927
  152ETH     HC 1366   5.378   5.545   0.708 -0.7015  0.0742  0.9283
  152ETH     HC 1367   5.342   5.685   0.601 -1.4643 -0.6173 -0.4118
  152ETH     HC 1368   5.301   5.535   0.544 -0.8109  2.6252  0.1050
  153ETH     OH 1369   5.135   4.662   2.242 -0.1368 -0.0769  0.3191
  153ETH     CH 1370   5.013   4.608   2.197 -0.1165  0.2213 -0.0904
  153ETH     CH 1371   4.997   4.464   2.245  0.2584  0.2243  0.0434
  153ETH     HO 1372   5.202   4.611   2.200 -0.0641  0.4928 -0.2676
  153ETH     HC 1373   4.930   4.663   2.242  0.0775  0.7008 -0.3157
  153ETH     HC 1374   5.020   4.612   2.088 -0.1856 -1.0752 -0.1434
  153ETH     HC 1375   4.967   4.466   2.350 -0.2129 -0.6024 -0.0686
  153ETH     HC 1376   4.917   4.418   2.186  0.8630 -0.1803 -0.4711
  153ETH     HC 1377   5.079   4.397   2.219 -0.2752 -0.0068 -1.0684
  154ETH     OH 1378   0.946   4.411   2.911 -0.3126  0.2578  0.0918
  154ETH     CH 1379   1.069   4.357   2.869 -0.7958 -0.5987 -0.2309
  154ETH     CH 1380   1.163   4.469   2.825 -0.0642 -0.8155  0.7838
  154ETH     HO 1381   0.950   4.434   3.003 -1.3399 -0.7587  0.4148
  154ETH     HC 1382   1.121   4.318   2.956 -1.3550 -0.5174  0.1406
  154ETH     HC 1383   1.065   4.292   2.782 -2.2545 -1.5395  0.5111
  154ETH     HC 1384   1.122   4.524   2.741 -1.8007 -3.1397  0.0712
  154ETH     HC 1385   1.193   4.542   2.901  0.5738 -0.2937  0.0366
  154ETH     HC 1386   1.250   4.414   2.789 -0.6266 -0.9767 -0.3560
  155ETH     OH 1387   2.728   5.949   4.526 -0.0774 -0.6695  0.0194
  155ETH     CH 1388   2.780   5.852   4.614  0.2901 -0.0697  0.4646
  155ETH     CH 1389   2.685   5.815   4.727  0.2934 -0.1370  0.4461
  155ETH     HO 1390   2.786   5.952   4.451 -0.3027  1.2768 -0.1054
  155ETH     HC 1391   2.796   5.761   4.556 -1.6905  0.5417 -1.1151
  155ETH     HC 1392   2.878   5.885   4.647  1.4841 -1.8112 -1.1966
  155ETH     HC 1393   2.739   5.748   4.794  1.1556  0.8643  0.7567
  155ETH     HC 1394   2.667   5.902   4.791  2.0824  1.8217 -1.6444
  155ETH     HC 1395   2.581   5.791   4.705 -0.4779  2.7132  0.7267
  156ETH     OH 1396   5.586   1.444   1.618 -0.0258 -0.1830 -0.4902
  156ETH     CH 1397   5.716   1.435   1.672 -0.2511 -0.0452  0.0877
  156ETH     CH 1398   5.729   1.286   1.706 -0.2309  0.0074  0.3110
  156ETH     HO 1399   5.594   1.472   1.528  1.7744  0.2532 -0.2232
  156ETH     HC 1400   5.789   1.469   1.598  0.4268 -2.3473 -0.3469
  156ETH     HC 1401   5.731   1.492   1.763  1.2977 -0.3860  0.0666
  156ETH     HC 1402   5.693   1.224   1.624  0.1482 -0.3859  0.4444
  156ETH     HC 1403   5.832   1.252   1.719 -0.0488  0.1144 -0.7598
  156ETH     HC 1404   5.672   1.267   1.797  0.2964 -2.1944  0.2013
  157ETH     OH 1405   4.370   5.256   0.550 -0.2735 -0.1050 -0.7484
  157ETH     CH 1406   4.493   5.190   0.529 -0.4040 -0.5184 -0.2207
  157ETH     CH 1407   4.527   5.191   0.380  0.0200  0.1704 -0.1233
  157ETH     HO 1408   4.385   5.336   0.598 -0.3814  0.0435 -0.9614
  157ETH     HC 1409   4.571   5.247   0.579 -0.7732 -0.1340 -0.0764
  157ETH     HC 1410   4.496   5.092   0.577 -3.3258 -0.5162  0.0513
  157ETH     HC 1411   4.622   5.138   0.372 -1.0025 -1.9260  1.0413
  157ETH     HC 1412   4.445   5.139   0.330  0.2972 -1.4623  1.0912
  157ETH     HC 1413   4.542   5.288   0.333 -1.0188  1.3257  1.8297
  158ETH     OH 1414   3.560   4.099   5.963 -0.0781 -0.3278 -0.2908
  158ETH     CH 1415   3.509   3.968   5.953 -0.0366 -0.3722  0.0934
  158ETH     CH 1416   3.384   3.959   5.865 -0.0457 -0.1647  0.0834
  158ETH     HO 1417   3.494   4.161   5.990  0.6277 -0.6135  2.2029
  158ETH     HC 1418   3.579   3.894   5.916 -0.1624 -0.5648  0.2396
  158ETH     HC 1419   3.471   3.931   6.048 -0.8869 -1.4054 -0.6427
  158ETH     HC 1420   3.390   3.995   5.762  1.3066 -2.0471 -0.5461
  158ETH     HC 1421   3.350   3.856   5.853 -0.0401  0.0666 -2.2060
  158ETH     HC 1422   3.308   4.025   5.906  0.0647  1.0165 -1.5352
  159ETH     OH 1423   5.164   0.700   1.148 -0.0228 -0.1670 -0.1435
  159ETH     CH 1424   5.193   0.607   1.250 -0.7782  0.2552  0.4622
  159ETH     CH 1425   5.261   0.480   1.198 -0.0033  0.8391  0.0404
  159ETH     HO 1426   5.140   0.778   1.196 -0.6248  1.5713 -3.1119
  159ETH     HC 1427   5.258   0.644   1.329  0.1576 -0.2359 -0.0662
  159ETH     HC 1428   5.095   0.576   1.286 -1.6897  1.5778 -0.8037
  159ETH     HC 1429   5.200   0.429   1.124 -0.7483  0.9141  0.5870
  159ETH     HC 1430   5.361   0.504   1.163  0.2553  0.8065  0.7541
  159ETH     HC 1431   5.271   0.417   1.287 -1.3025  1.1040  0.3927
  160ETH     OH 1432   5.851   5.422   5.027  0.4559  0.5588  0.6929
  160ETH     CH 1433   5.751   5.504   5.085 -0.4393  0.1698 -0.2768
  160ETH     CH 1434   5.626   5.416   5.097 -0.3757  0.1277  0.0632
  160ETH     HO 1435   5.924   5.470   4.991  0.9187  0.0588  0.9570
  160ETH     HC 1436   5.785   5.541   5.182  1.3051 -2.3086  0.1106
  160ETH     HC 1437   5.745   5.598   5.031  2.0978  1.2177  1.1758
  160ETH     HC 1438   5.656   5.328   5.154  1.1610 -0.2972 -1.3532
  160ETH     HC 1439   5.548   5.473   5.148 -0.8423 -1.3111  0.9713
  160ETH     HC 1440   5.578   5.385   5.005 -1.3071 -0.2603  0.6721
  161ETH     OH 1441   3.401   5.792   2.514  0.2913  0.1974 -0.3878
  161ETH     CH 1442   3.337   5.918   2.505  0.1650  0.1422 -0.2523
  161ETH     CH 1443   3.208   5.920   2.424  0.0833 -0.3949 -0.1366
  161ETH     HO 1444   3.475   5.801   2.572  0.5505 -1.3820 -0.4650
  161ETH     HC 1445   3.326   5.955   2.607 -0.0852  1.4640 -0.7507
  161ETH     HC 1446   3.415   5.983   2.465  0.7312  0.0150  0.6182
  161ETH     HC 1447   3.149   5.833   2.451 -0.4077  0.6395  2.1986
  161ETH     HC 1448   3.159   6.016   2.438  1.1321  0.0123  0.8334
  161ETH     HC 1449   3.230   5.900   2.319  1.9124  0.5850  0.0434
  162ETH     OH 1450   6.108   4.682   4.121  0.3648 -0.2152  0.1951
  162ETH     CH 1451   6.035   4.631   4.012  0.0791  0.4723  0.0637
  162ETH     CH 1452   5.886   4.652   4.041 -0.0649 -0.2274 -0.1626
  162ETH     HO 1453   6.194   4.643   4.120  0.9079  0.9587  0.1469
  162ETH     HC 1454   6.053   4.665   3.910 -2.3418 -1.0713 -0.8978
  162ETH     HC 1455   6.059   4.525   4.006  0.2001  0.4675  0.5702
  162ETH     HC 1456   5.826   4.611   3.960  0.7150 -0.7864 -0.4678
  162ETH     HC 1457   5.851   4.606   4.133 -2.8769  1.3903 -0.3757
  162ETH     HC 1458   5.858   4.758   4.042 -0.4709 -0.3387  0.8618
  163ETH     OH 1459   0.302   4.177   0.828 -0.6134 -0.4086  0.3472
  163ETH     CH 1460   0.241   4.209   0.705  0.1165  0.7538  0.2850
  163ETH     CH 1461   0.090   4.195   0.721  0.1896 -0.3519  0.0269
  163ETH     HO 1462   0.396   4.177   0.820 -0.5040 -1.9059  1.4535
  163ETH     HC 1463   0.287   4.145   0.630 -0.0785  0.6109  0.2875
  163ETH     HC 1464   0.277   4.309   0.680  2.5603 -0.4106 -1.0801
  163ETH     HC 1465   0.063   4.095   0.753  2.9279 -2.2476 -3.1928
  163ETH     HC 1466   0.053   4.262   0.798 -1.4511 -0.4678 -0.6235
  163ETH     HC 1467   0.035   4.217   0.629 -0.0315 -0.5553  0.1086
  164ETH     OH 1468   5.998   1.559   4.005 -0.5474  0.5320 -0.2433
  164ETH     CH 1469   6.015   1.447   3.921 -0.3097 -0.1358  0.6874
  164ETH     CH 1470   6.167   1.427   3.915 -0.2419  0.4432  0.4799
  164ETH     HO 1471   5.965   1.632   3.955 -1.1678  0.3051 -0.1688
  164ETH     HC 1472   5.967   1.355   3.955  1.2378 -1.2085  0.0095
  164ETH     HC 1473   5.979   1.473   3.821 -0.4257 -1.6740  0.3099
  164ETH     HC 1474   6.235   1.445   3.998 -0.3117  3.0404  0.0248
  164ETH     HC 1475   6.162   1.323   3.882 -3.6528  0.3633  1.0188
  164ETH     HC 1476   6.202   1.493   3.836  1.5744 -1.0319  0.0249
  165ETH     OH 1477   4.862   5.881   2.857  0.5515 -0.6051  0.1812
  165ETH     CH 1478   4.852   5.918   2.721 -0.0750 -0.4859  0.2546
  165ETH     CH 1479   4.857   5.793   2.633  0.5233 -0.1183 -0.2368
  165ETH     HO 1480   4.772   5.864   2.883  0.5517 -1.2955 -0.2732
  165ETH     HC 1481   4.768   5.981   2.695 -0.0944 -0.8820 -0.6644
  165ETH     HC 1482   4.937   5.979   2.691 -0.5193  1.6209  3.1129
  165ETH     HC 1483   4.843   5.821   2.529 -2.2741 -1.0344 -0.1411
  165ETH     HC 1484   4.955   5.745   2.635  0.3220 -0.7007 -2.5594
  165ETH     HC 1485   4.773   5.727   2.655  0.0220  0.4654 -0.4046
  166ETH     OH 1486   1.285   3.254   5.854  0.1467 -0.0327 -0.0590
  166ETH     CH 1487   1.382   3.321   5.930 -0.0079  0.2777 -0.1351
  166ETH     CH 1488   1.334   3.287   6.071  0.2943  0.5140  0.0246
  166ETH     HO 1489   1.312   3.254   5.763 -3.2236  2.0105 -1.1436
  166ETH     HC 1490   1.480   3.283   5.901  0.9870  3.2263 -0.7901
  166ETH     HC 1491   1.371   3.430   5.930 -0.9235  0.2032  1.2792
  166ETH     HC 1492   1.390   3.335   6.152 -0.9729  0.8443  0.7235
  166ETH     HC 1493   1.230   3.314   6.089  0.0243  0.4603 -1.4709
  166ETH     HC 1494   1.332   3.181   6.095  0.9972  1.0969  2.9796
  167ETH     OH 1495   4.357   4.454   1.584  0.0884  0.3211  0.4546
  167ETH     CH 1496   4.219   4.476   1.606 -0.0439  0.3016 -0.3459
  167ETH     CH 1497   4.132   4.371   1.538 -0.5265  0.6019 -0.1930
  167ETH     HO 1498   4.400   4.533   1.556  0.5842  1.2513  3.7018
  167ETH     HC 1499   4.191   4.509   1.706  0.3690  0.0516 -0.1469
  167ETH     HC 1500   4.198   4.570   1.555  0.1286  0.4742 -0.1015
  167ETH     HC 1501   4.156   4.353   1.433 -1.1628 -0.1569 -0.2179
  167ETH     HC 1502   4.153   4.278   1.591  1.0590  1.6708  1.0635
  167ETH     HC 1503   4.026   4.397   1.542 -1.0078 -1.2105 -0.5052
  168ETH     OH 1504   5.456   2.335   2.238 -0.0929 -0.3791  0.3716
  168ETH     CH 1505   5.590   2.289   2.241  0.0995  0.1401 -0.0843
  168ETH     CH 1506   5.582   2.162   2.326  0.4169  0.2011  0.0365
  168ETH     HO 1507   5.440   2.332   2.145  1.9745  3.6888 -0.2397
  168ETH     HC 1508   5.624   2.268   2.140  4.3029  3.2841  0.5401
  168ETH     HC 1509   5.658   2.362   2.284  0.0480 -0.3446  0.8163
  168ETH     HC 1510   5.513   2.098   2.271 -1.4301  1.1999  1.1367
  168ETH     HC 1511   5.684   2.124   2.328 -0.0559 -1.1903 -1.2992
  168ETH     HC 1512   5.551   2.178   2.429  0.4784  1.5595 -0.1464
  169ETH     OH 1513   3.233   4.445   0.303  0.1396  0.9529 -0.3401
  169ETH     CH 1514   3.198   4.516   0.420 -0.3507 -0.0626  0.1313
  169ETH     CH 1515   3.311   4.601   0.478 -0.4603  0.4503 -0.4001
  169ETH     HO 1516   3.230   4.507   0.232  1.0830 -0.4582 -1.6244
  169ETH     HC 1517   3.118   4.586   0.397  1.2409  1.7099 -0.0821
  169ETH     HC 1518   3.150   4.447   0.491  0.3632 -1.1997 -0.4759
  169ETH     HC 1519   3.363   4.649   0.396  1.2080 -0.2214  0.2400
  169ETH     HC 1520   3.266   4.677   0.541  0.8419  1.4986 -0.7145
  169ETH     HC 1521   3.377   4.530   0.529 -1.3672 -2.1763 -2.7530
  170ETH     OH 1522   1.208   3.290   5.277  0.0178  0.0234  0.2329
  170ETH     CH 1523   1.100   3.217   5.224  0.4207 -0.2856 -0.1615
  170ETH     CH 1524   1.017   3.174   5.345  0.3655 -0.1325 -0.1455
  170ETH     HO 1525   1.246   3.328   5.199  2.5264 -0.1535  1.3092
  170ETH     HC 1526   1.044   3.283   5.158 -0.0712 -1.8675 -1.3601
  170ETH     HC 1527   1.130   3.127   5.170 -1.2514 -1.1306  0.2967
  170ETH     HC 1528   0.933   3.113   5.310 -1.2268  0.7557  2.0323
  170ETH     HC 1529   1.079   3.112   5.409  0.4029  0.2413  0.1820
  170ETH     HC 1530   0.988   3.259   5.407  1.2891  2.5858 -3.2581
  171ETH     OH 1531   5.425   4.137   3.335  0.0957  0.5514  0.1562
  171ETH     CH 1532   5.477   4.117   3.465 -0.3615  0.1520  0.2799
  171ETH     CH 1533   5.517   4.261   3.499  0.8558 -0.1620  0.1913
  171ETH     HO 1534   5.412   4.049   3.302  0.1072 -0.1254  1.8779
  171ETH     HC 1535   5.395   4.085   3.529  0.7496 -0.7368  1.2835
  171ETH     HC 1536   5.559   4.045   3.470  1.1177  1.4125 -3.5136
  171ETH     HC 1537   5.584   4.313   3.431 -1.0566 -0.2499 -1.8155
  171ETH     HC 1538   5.427   4.321   3.497  1.0353  0.1058  0.1858
  171ETH     HC 1539   5.565   4.279   3.596 -0.6631  0.6234  0.8122
  172ETH     OH 1540   1.539   5.102   0.775 -0.5282 -0.3388 -0.3806
  172ETH     CH 1541   1.591   5.208   0.700 -0.2065 -0.1864  0.0581
  172ETH     CH 1542   1.728   5.166   0.647 -0.2864 -0.2007 -0.1364
  172ETH     HO 1543   1.594   5.086   0.850  0.2046  0.4438 -0.7501
  172ETH     HC 1544   1.520   5.245   0.626  1.1041  2.9987  0.2997
  172ETH     HC 1545   1.606   5.293   0.768 -2.5365 -0.8694  1.4571
  172ETH     HC 1546   1.794   5.153   0.733 -0.9321  2.4084  0.7991
  172ETH     HC 1547   1.722   5.068   0.601  0.7606  0.1442 -1.0473
  172ETH     HC 1548   1.781   5.237   0.582  0.2876  1.0213  1.6446
  173ETH     OH 1549   1.391   4.289   0.661 -0.5800 -0.3773 -0.0191
  173ETH     CH 1550   1.395   4.266   0.800  0.1318  0.1940  0.0564
  173ETH     CH 1551   1.365   4.399   0.870 -0.4703 -0.0609  0.2860
  173ETH     HO 1552   1.423   4.209   0.623 -0.7612 -0.6451  0.3844
  173ETH     HC 1553   1.318   4.191   0.817  0.3112  0.2613  1.2416
  173ETH     HC 1554   1.495   4.233   0.826 -0.2567  0.3962  1.8776
  173ETH     HC 1555   1.269   4.444   0.846 -1.0149 -1.3588 -0.0331
  173ETH     HC 1556   1.374   4.385   0.978 -1.0210 -0.1353  0.3235
  173ETH     HC 1557   1.443   4.473   0.854 -0.8337 -0.0480 -1.5249
  174ETH     OH 1558   1.361   2.458   0.638  0.4029 -0.3819 -0.4421
  174ETH     CH 1559   1.446   2.560   0.686  0.2192 -0.4539  0.0432
  174ETH     CH 1560   1.542   2.508   0.793 -0.6862 -0.5311  0.8141
  174ETH     HO 1561   1.301   2.444   0.710  0.6684 -1.5352 -0.4401
  174ETH     HC 1562   1.498   2.582   0.593  1.2584  3.0082  1.3562
  174ETH     HC 1563   1.390   2.646   0.722 -0.1476 -0.7288  0.1216
  174ETH     HC 1564   1.594   2.584   0.850  1.7042 -1.3395 -0.2541
  174ETH     HC 1565   1.482   2.449   0.864 -1.8246  1.1592  1.2840
  174ETH     HC 1566   1.614   2.435   0.756 -1.7058 -1.2999  0.3005
  175ETH     OH 1567   4.218   0.493   3.259 -0.5358 -0.3684 -0.2959
  175ETH     CH 1568   4.241   0.558   3.382 -0.3624  0.1096 -0.5779
  175ETH     CH 1569   4.108   0.608   3.439  0.0941 -0.1109  0.6955
  175ETH     HO 1570   4.152   0.429   3.279  0.7258 -1.4727  0.4367
  175ETH     HC 1571   4.296   0.480   3.435 -0.5155 -1.9418 -3.3467
  175ETH     HC 1572   4.303   0.642   3.352 -1.4279 -0.1296 -3.5945
  175ETH     HC 1573   4.043   0.634   3.356  0.4651 -0.1206  0.4027
  175ETH     HC 1574   4.058   0.529   3.495  0.6970 -1.2293 -0.3190
  175ETH     HC 1575   4.128   0.690   3.509 -0.9646 -1.6034  2.7773
  176ETH     OH 1576   5.052   3.929   3.899 -0.0608 -0.2511  0.3172
  176ETH     CH 1577   5.158   3.836   3.899  0.2445  0.0925 -0.4955
  176ETH     CH 1578   5.283   3.891   3.832 -0.0478  0.3556 -0.8311
  176ETH     HO 1579   5.002   3.894   3.972  0.4368  0.6877  1.1247
  176ETH     HC 1580   5.168   3.790   3.998 -1.1165 -0.7310 -0.7222
  176ETH     HC 1581   5.129   3.752   3.836  2.9638 -0.4164 -1.1137
  176ETH     HC 1582   5.247   3.964   3.760  1.8507  1.1519 -1.0060
  176ETH     HC 1583   5.353   3.940   3.901 -0.1014 -1.3063  0.4390
  176ETH     HC 1584   5.341   3.810   3.786 -0.2458  1.6067 -3.3622
  177ETH     OH 1585   1.443   1.554   1.015  0.3681  0.5290 -0.1721
  177ETH     CH 1586   1.332   1.641   1.018  0.0489  0.1228 -0.1681
  177ETH     CH 1587   1.367   1.780   1.072 -0.2167  0.0956  0.0754
  177ETH     HO 1588   1.474   1.532   1.101  0.3276  0.8446 -0.0769
  177ETH     HC 1589   1.290   1.650   0.917 -2.2199  1.8112  0.8765
  177ETH     HC 1590   1.267   1.586   1.086  1.1215 -3.0559 -1.6138
  177ETH     HC 1591   1.439   1.834   1.011  0.3195 -0.4728  0.1884
  177ETH     HC 1592   1.280   1.844   1.087  0.5313  0.8514  1.3390
  177ETH     HC 1593   1.411   1.772   1.172 -3.6531  2.4004  1.8523
  178ETH     OH 1594   1.933   1.756   2.093  0.3356  0.1323 -0.2192
  178ETH     CH 1595   1.894   1.639   2.025  0.0946  0.2780 -0.3313
  178ETH     CH 1596   1.745   1.615   2.052  0.1970  0.0498  0.0343
  178ETH     HO 1597   2.027   1.753   2.105  0.3078  0.0468 -0.0094
  178ETH     HC 1598   1.913   1.653   1.919  0.1662 -1.3487 -0.5495
  178ETH     HC 1599   1.943   1.547   2.058 -2.7463 -1.1646 -0.0042
  178ETH     HC 1600   1.686   1.674   1.982  0.5181 -0.8313 -0.9901
  178ETH     HC 1601   1.727   1.511   2.028 -1.8637  0.6648 -1.1653
  178ETH     HC 1602   1.706   1.637   2.152  0.9236  0.3376  0.2576
  179ETH     OH 1603   4.194   4.416   4.980 -0.5358 -0.0166  0.2666
  179ETH     CH 1604   4.149   4.531   5.048 -0.5766 -0.2669  0.6642
  179ETH     CH 1605   4.262   4.634   5.055 -0.8949  0.1129  0.2284
  179ETH     HO 1606   4.159   4.417   4.892 -0.5911 -0.6382  0.2807
  179ETH     HC 1607   4.063   4.571   4.994  0.1591  1.4488  0.7326
  179ETH     HC 1608   4.099   4.518   5.144  0.0756 -2.8522  0.7105
  179ETH     HC 1609   4.256   4.697   5.144 -0.6551 -2.9697  2.5025
  179ETH     HC 1610   4.358   4.583   5.053 -0.1778  1.4710 -0.3135
  179ETH     HC 1611   4.267   4.697   4.966  0.6289  1.2692  1.1102
  180ETH     OH 1612   3.655   6.029   0.010 -0.0427  0.0832  0.4008
  180ETH     CH 1613   3.639   6.043   0.149  0.2507  0.2384  0.4200
  180ETH     CH 1614   3.602   6.181   0.202 -0.4027  0.0161  0.5519
  180ETH     HO 1615   3.720   5.963  -0.004 -0.4323  0.2552 -2.5248
  180ETH     HC 1616   3.569   5.966   0.181  0.1284  0.6206  1.0924
  180ETH     HC 1617   3.741   6.023   0.183 -0.2150 -0.8684  1.2296
  180ETH     HC 1618   3.683   6.247   0.171 -0.3843 -0.3709 -0.2417
  180ETH     HC 1619   3.503   6.219   0.175 -0.4690  0.0738  0.8704
  180ETH     HC 1620   3.618   6.178   0.310 -0.5610 -3.3000  0.5124
  181ETH     OH 1621   5.552   1.852   2.969 -0.1108  0.8035  0.5575
  181ETH     CH 1622   5.606   1.804   3.090  0.5206 -0.3031 -0.1573
  181ETH     CH 1623   5.599   1.905   3.205  0.4861 -0.2308 -0.2221
  181ETH     HO 1624   5.610   1.912   2.924  0.9100  0.6037  1.5950
  181ETH     HC 1625   5.547   1.715   3.109  1.9829 -0.6591  2.9081
  181ETH     HC 1626   5.710   1.776   3.072 -0.1118 -0.5306 -4.0523
  181ETH     HC 1627   5.658   1.995   3.193 -1.7499  1.2575 -0.2770
  181ETH     HC 1628   5.502   1.933   3.246  0.8789 -0.5540  0.9421
  181ETH     HC 1629   5.641   1.852   3.291 -1.3551 -1.0817  0.1736
  182ETH     OH 1630   4.059   6.271   2.598  0.2150  0.3732  0.0873
  182ETH     CH 1631   4.160   6.330   2.677  0.6169  0.3280 -0.3953
  182ETH     CH 1632   4.185   6.231   2.791 -0.2304  0.5227 -0.0413
  182ETH     HO 1633   4.067   6.313   2.514 -1.7366  2.2075  0.7742
  182ETH     HC 1634   4.248   6.347   2.614  2.6193 -2.0199  1.6671
  182ETH     HC 1635   4.123   6.426   2.710  1.8040  0.9364 -0.7815
  182ETH     HC 1636   4.201   6.131   2.750  2.0417  1.2092 -0.9192
  182ETH     HC 1637   4.273   6.273   2.839 -0.7099  1.0863  0.3437
  182ETH     HC 1638   4.104   6.237   2.863  0.0672  1.2348  0.2419
  183ETH     OH 1639   6.129   0.652   2.015  0.2472  0.1830 -0.2882
  183ETH     CH 1640   6.219   0.555   2.062 -0.3999 -0.2250  0.1133
  183ETH     CH 1641   6.205   0.516   2.209  0.6835  0.6493  0.4510
  183ETH     HO 1642   6.172   0.703   1.948  1.0710 -0.3876 -0.2028
  183ETH     HC 1643   6.194   0.460   2.015 -2.0196 -0.6674  1.8172
  183ETH     HC 1644   6.324   0.581   2.046 -1.3699  3.6417 -0.3231
  183ETH     HC 1645   6.249   0.584   2.282  0.0137  0.0489  1.4194
  183ETH     HC 1646   6.103   0.488   2.234  0.5196  0.9570  0.1301
  183ETH     HC 1647   6.251   0.420   2.231 -3.0571 -1.0214  1.3719
  184ETH     OH 1648   1.809   3.210   1.146 -0.0771 -0.4278  0.0176
  184ETH     CH 1649   1.843   3.311   1.054 -0.2788 -0.4543 -0.0856
  184ETH     CH 1650   1.964   3.278   0.967 -0.1767 -0.0380 -0.1059
  184ETH     HO 1651   1.722   3.230   1.179  0.3033  1.5106 -0.1057
  184ETH     HC 1652   1.756   3.319   0.988  1.3793  1.2597 -2.1583
  184ETH     HC 1653   1.855   3.409   1.101 -1.7824  0.6346 -1.8638
  184ETH     HC 1654   1.953   3.183   0.915 -0.4676  0.6554 -1.3136
  184ETH     HC 1655   1.987   3.354   0.893 -1.7277 -0.7181 -1.3203
  184ETH     HC 1656   2.047   3.265   1.038 -1.5783 -1.2072  1.3770
  185ETH     OH 1657   2.237   4.001   3.638  0.1879  0.0569 -0.3765
  185ETH     CH 1658   2.231   4.141   3.623 -0.4517  0.0757  0.0744
  185ETH     CH 1659   2.199   4.211   3.756 -0.3469  0.3030 -0.0197
  185ETH     HO 1660   2.314   3.977   3.686  0.6436 -0.1557 -1.1953
  185ETH     HC 1661   2.315   4.190   3.575  0.6706 -0.0542  1.8597
  185ETH     HC 1662   2.142   4.152   3.561 -2.4924 -2.5357  2.4253
  185ETH     HC 1663   2.287   4.194   3.818 -1.3380  1.1729  1.6534
  185ETH     HC 1664   2.183   4.315   3.728  1.3972  1.0031  1.4926
  185ETH     HC 1665   2.116   4.168   3.812 -0.8817  1.2645 -0.0755
  186ETH     OH 1666   0.108   4.620   2.468  0.6282  0.2340  0.6323
  186ETH     CH 1667   0.135   4.657   2.334 -0.2174 -0.1524  0.3502
  186ETH     CH 1668   0.006   4.707   2.267  0.1160 -0.1796 -0.3097
  186ETH     HO 1669   0.076   4.532   2.459  1.5718 -0.0810  0.3160
  186ETH     HC 1670   0.215   4.731   2.339 -0.1880 -0.1746  0.2043
  186ETH     HC 1671   0.163   4.568   2.279  1.0658  0.1594  0.4997
  186ETH     HC 1672   0.032   4.730   2.164 -0.1707 -2.5088 -0.9303
  186ETH     HC 1673  -0.075   4.634   2.272  1.3116 -1.4291  1.9288
  186ETH     HC 1674  -0.022   4.797   2.322  0.0118 -1.2956  1.5140
  187ETH     OH 1675   1.968   0.722   3.376 -0.4643 -0.3607  0.4653
  187ETH     CH 1676   1.843   0.692   3.435 -0.7420  0.0052  0.0629
  187ETH     CH 1677   1.888   0.662   3.578  0.4712 -0.1924 -0.3498
  187ETH     HO 1678   1.949   0.745   3.287 -1.0001  1.5866  1.0457
  187ETH     HC 1679   1.784   0.784   3.439 -0.7987 -0.0906  1.5493
  187ETH     HC 1680   1.786   0.611   3.391  0.0423 -1.4364  1.6579
  187ETH     HC 1681   1.798   0.618   3.623 -1.3899  1.5300 -2.2695
  187ETH     HC 1682   1.966   0.590   3.601 -0.3788 -0.6200  1.3380
  187ETH     HC 1683   1.911   0.758   3.623  1.5310 -0.9926  0.8406
  188ETH     OH 1684   4.911   6.118   1.050  0.3414 -0.0368  0.3589
  188ETH     CH 1685   4.965   6.211   1.141 -0.2557  0.3140  0.3651
  188ETH     CH 1686   4.951   6.151   1.281  0.5145  0.2133  0.4031
  188ETH     HO 1687   4.975   6.049   1.060  0.9650  0.9579  4.2380
  188ETH     HC 1688   5.067   6.234   1.108  0.4550 -0.6644  1.7925
  188ETH     HC 1689   4.912   6.306   1.149 -2.1574 -0.6610 -0.3794
  188ETH     HC 1690   4.958   6.042   1.284  2.3602  0.2421 -1.9015
  188ETH     HC 1691   5.035   6.189   1.340  0.8080 -1.0597  0.8152
  188ETH     HC 1692   4.869   6.189   1.341 -1.4744 -0.8158 -1.6076
  189ETH     OH 1693   5.591   3.680   0.156  0.2725 -0.3881  0.5316
  189ETH     CH 1694   5.554   3.815   0.170 -0.4403 -0.5090 -0.1273
  189ETH     CH 1695   5.433   3.818   0.264 -0.0972 -0.6836  0.3240
  189ETH     HO 1696   5.625   3.654   0.240  1.7729 -0.0275  0.0370
  189ETH     HC 1697   5.637   3.875   0.209  0.7735 -1.9941 -0.3988
  189ETH     HC 1698   5.540   3.856   0.070 -2.2751 -0.3461  0.1775
  189ETH     HC 1699   5.412   3.918   0.302 -0.4604 -0.6789  0.1136
  189ETH     HC 1700   5.339   3.798   0.212 -1.0715 -0.1042  1.8214
  189ETH     HC 1701   5.447   3.749   0.347 -0.9885 -0.0323  1.0220
  190ETH     OH 1702   4.553   0.002   6.045 -0.4557 -0.2103  0.0621
  190ETH     CH 1703   4.572   0.046   6.177  0.1743 -0.4492  0.0540
  190ETH     CH 1704   4.664   0.168   6.176  0.8360 -0.9434 -0.3313
  190ETH     HO 1705   4.628  -0.008   5.987 -0.7930 -0.5459 -0.3184
  190ETH     HC 1706   4.480   0.081   6.224  1.0090  1.8814  0.0246
  190ETH     HC 1707   4.602  -0.035   6.245 -2.6024 -1.1384  0.5018
  190ETH     HC 1708   4.670   0.195   6.282 -0.3721 -0.5706 -0.3497
  190ETH     HC 1709   4.766   0.157   6.141  1.2573 -0.9143  0.8670
  190ETH     HC 1710   4.621   0.248   6.116 -0.6836 -0.2057  1.6780
  191ETH     OH 1711   6.030   1.544   4.308  0.3054  0.0907  0.5961
  191ETH     CH 1712   5.944   1.434   4.325 -0.3813  0.6483  0.7851
  191ETH     CH 1713   6.008   1.296   4.312  0.3113  0.9988  0.4720
  191ETH     HO 1714   6.013   1.561   4.216 -2.2223 -1.0594  0.8129
  191ETH     HC 1715   5.888   1.445   4.418 -2.5636 -0.8115 -0.2919
  191ETH     HC 1716   5.863   1.435   4.252  0.4524 -1.8993 -0.2344
  191ETH     HC 1717   6.053   1.276   4.214  0.8103  0.9836  0.7031
  191ETH     HC 1718   6.080   1.295   4.394 -0.7822  0.5141  1.4353
  191ETH     HC 1719   5.928   1.224   4.331  1.6074  0.0690  2.5735
  192ETH     OH 1720   1.550   2.012   2.375 -0.0186 -0.2870 -0.3709
  192ETH     CH 1721   1.466   1.908   2.332  0.3001 -0.4973 -0.4861
  192ETH     CH 1722   1.332   1.962   2.281  0.0686 -0.9195 -0.3306
  192ETH     HO 1723   1.633   1.991   2.336  1.6941  1.9304  1.9287
  192ETH     HC 1724   1.514   1.840   2.262  0.6411  0.4677 -1.2001
  192ETH     HC 1725   1.443   1.855   2.424  0.9869 -1.4322 -0.8460
  192ETH     HC 1726   1.260   2.010   2.346 -0.0005  0.1544 -1.1860
  192ETH     HC 1727   1.357   2.030   2.199 -0.6901 -0.7693 -0.4449
  192ETH     HC 1728   1.283   1.877   2.233 -1.4125  0.0202 -0.5100
  193ETH     OH 1729   3.112   4.043   3.423  0.2418 -0.1385 -0.2936
  193ETH     CH 1730   3.056   4.129   3.519 -0.4297 -0.1340 -0.6834
  193ETH     CH 1731   3.061   4.275   3.473 -0.1076  0.1127  0.1129
  193ETH     HO 1732   3.204   4.029   3.437  0.1833  0.0881  0.3395
  193ETH     HC 1733   2.951   4.100   3.523 -0.4121 -0.1217  0.0454
  193ETH     HC 1734   3.084   4.104   3.621 -0.5142 -1.1819 -0.9139
  193ETH     HC 1735   3.025   4.290   3.371 -0.6199  0.3415  0.3230
  193ETH     HC 1736   2.996   4.340   3.532 -1.1599 -0.6973 -0.1350
  193ETH     HC 1737   3.165   4.307   3.476  0.5862 -1.9749 -0.9439
  194ETH     OH 1738   0.246   0.855   4.021 -0.2426 -0.4475 -0.4575
  194ETH     CH 1739   0.263   0.911   3.893 -0.4161 -0.2298 -0.3861
  194ETH     CH 1740   0.406   0.886   3.844  0.0609  0.3385  0.7007
  194ETH     HO 1741   0.324   0.878   4.068 -0.9640  0.1045  0.4845
  194ETH     HC 1742   0.186   0.864   3.831  0.8192  0.3009 -2.4024
  194ETH     HC 1743   0.246   1.019   3.893 -1.2537 -0.3266  2.6138
  194ETH     HC 1744   0.480   0.947   3.896 -0.0208  1.5652 -0.5879
  194ETH     HC 1745   0.432   0.780   3.848 -0.0470  0.2002 -1.5004
  194ETH     HC 1746   0.403   0.909   3.738 -1.0260 -1.7339  0.2495
  195ETH     OH 1747   4.342   1.798   2.712  0.0484  0.1219 -0.0866
  195ETH     CH 1748   4.338   1.831   2.575 -0.4076 -0.3834 -0.1957
  195ETH     CH 1749   4.234   1.750   2.497 -0.1045 -0.8076 -0.1593
  195ETH     HO 1750   4.279   1.854   2.754 -0.5181  0.6744 -1.6517
  195ETH     HC 1751   4.326   1.939   2.579 -0.8305 -0.4054 -0.7513
  195ETH     HC 1752   4.437   1.822   2.531 -0.1518 -1.9529  0.6548
  195ETH     HC 1753   4.245   1.646   2.530 -0.7531 -0.5211  1.0131
  195ETH     HC 1754   4.137   1.776   2.539 -0.2758 -2.4349  0.5100
  195ETH     HC 1755   4.236   1.752   2.388 -0.1573 -0.1286 -0.1460
  196ETH     OH 1756   0.760   6.222   0.831 -0.4376 -0.3901 -0.2414
  196ETH     CH 1757   0.831   6.107   0.872 -0.0048  0.1718  0.5931
  196ETH     CH 1758   0.917   6.148   0.992  0.1838  0.3792  0.3874
  196ETH     HO 1759   0.710   6.255   0.903  0.5731  0.0227  0.2869
  196ETH     HC 1760   0.754   6.034   0.897 -0.6544  0.7719  0.3612
  196ETH     HC 1761   0.882   6.059   0.788 -1.3757  2.3508 -1.5494
  196ETH     HC 1762   0.983   6.066   1.019  1.7378  1.5020  0.0818
  196ETH     HC 1763   0.990   6.222   0.959 -0.9135  1.5792  0.6092
  196ETH     HC 1764   0.857   6.193   1.072 -0.9477  1.3241 -0.9575
  197ETH     OH 1765   4.845   5.471   5.178  0.6340  0.3665  0.3096
  197ETH     CH 1766   4.873   5.606   5.209  0.1450  0.6019 -0.2732
  197ETH     CH 1767   4.878   5.609   5.361  0.1340 -0.9583 -0.2388
  197ETH     HO 1768   4.921   5.418   5.199  1.6641  1.7615  0.1960
  197ETH     HC 1769   4.966   5.643   5.166  0.6006  2.2758  2.0466
  197ETH     HC 1770   4.798   5.677   5.173  0.7953  1.2270 -0.4204
  197ETH     HC 1771   4.889   5.709   5.404 -1.8926 -1.0093  0.4245
  197ETH     HC 1772   4.787   5.561   5.398  0.1430 -0.3401  0.5941
  197ETH     HC 1773   4.969   5.559   5.397  0.3531  0.4373  1.1984
  198ETH     OH 1774   2.064   5.624   1.113  0.6260  0.2791  0.1307
  198ETH     CH 1775   2.018   5.555   1.228 -0.1983  0.6537  0.0269
  198ETH     CH 1776   1.880   5.615   1.255 -0.6480 -0.3680  0.0030
  198ETH     HO 1777   2.104   5.707   1.135 -1.8013  1.0998  1.6554
  198ETH     HC 1778   1.994   5.451   1.205  2.9198 -0.0160 -0.3430
  198ETH     HC 1779   2.087   5.558   1.312 -0.2874  0.5357  0.1047
  198ETH     HC 1780   1.819   5.600   1.166  0.4032  0.0594 -0.7959
  198ETH     HC 1781   1.827   5.558   1.331 -0.1736  0.0894  0.6807
  198ETH     HC 1782   1.889   5.720   1.281 -0.7469 -0.9222  2.4231
  199ETH     OH 1783   4.528   6.073   1.590  0.0587  0.0634 -0.4708
  199ETH     CH 1784   4.412   6.124   1.528  0.0463  0.5735 -0.0313
  199ETH     CH 1785   4.347   6.025   1.432  0.6904 -0.0295  0.1548
  199ETH     HO 1786   4.565   6.151   1.628  1.5324 -0.4091 -0.8983
  199ETH     HC 1787   4.329   6.159   1.589  1.2329 -0.3960  2.2234
  199ETH     HC 1788   4.437   6.202   1.456 -0.0572 -1.7158 -2.6172
  199ETH     HC 1789   4.422   5.988   1.362  0.7680 -0.2481  0.3519
  199ETH     HC 1790   4.308   5.933   1.476  0.7584 -0.4483 -0.6452
  199ETH     HC 1791   4.276   6.071   1.364 -0.2346  0.2645  1.3123
  200ETH     OH 1792   4.801   2.200   5.837 -0.6327 -0.2581  0.0162
  200ETH     CH 1793   4.660   2.190   5.847 -0.6644  0.1506  0.0089
  200ETH     CH 1794   4.642   2.053   5.912  0.1710 -0.0722 -0.2170
  200ETH     HO 1795   4.843   2.220   5.920 -0.0935 -1.8908  0.1441
  200ETH     HC 1796   4.607   2.271   5.896 -1.5942  0.4118 -1.4033
  200ETH     HC 1797   4.614   2.184   5.748  0.4479  2.3731 -0.6777
  200ETH     HC 1798   4.652   2.069   6.019 -2.5413 -1.8114  0.3480
  200ETH     HC 1799   4.548   2.006   5.883  0.8523 -1.4295 -0.2786
  200ETH     HC 1800   4.710   1.974   5.878  2.2924  2.0466 -1.0163
  201ETH     OH 1801   3.026   4.775   1.931  0.1091 -0.2974  0.5862
  201ETH     CH 1802   3.089   4.651   1.957 -0.4048 -0.6829  0.0031
  201ETH     CH 1803   2.989   4.558   2.026 -0.6446 -0.7573 -0.4452
  201ETH     HO 1804   3.042   4.825   2.010  2.4348 -0.7709  0.4524
  201ETH     HC 1805   3.102   4.603   1.861 -2.5932  1.7047 -1.5593
  201ETH     HC 1806   3.183   4.651   2.013 -0.2168  1.1123 -0.2847
  201ETH     HC 1807   2.894   4.538   1.976 -1.5270 -0.6046  1.1354
  201ETH     HC 1808   3.050   4.473   2.054  0.1940 -0.3164 -0.9259
  201ETH     HC 1809   2.959   4.604   2.120 -1.3344 -2.5565  0.2425
  202ETH     OH 1810   5.320   4.148   1.154 -0.1933  0.2847 -0.4397
  202ETH     CH 1811   5.264   4.232   1.252 -0.2458 -0.1888 -0.0573
  202ETH     CH 1812   5.363   4.271   1.362 -0.3495  0.7533 -0.2891
  202ETH     HO 1813   5.376   4.201   1.101 -0.0252 -2.0874 -2.7735
  202ETH     HC 1814   5.226   4.326   1.211  2.1512  0.7656 -0.1641
  202ETH     HC 1815   5.176   4.186   1.296 -0.3286 -1.5139 -1.5575
  202ETH     HC 1816   5.318   4.329   1.442 -0.6599  2.8881 -1.9507
  202ETH     HC 1817   5.407   4.181   1.404 -1.7451 -0.4025 -1.2519
  202ETH     HC 1818   5.451   4.327   1.328  1.0934  0.5043  2.8859
  203ETH     OH 1819   3.400   0.047   3.431 -0.1529 -0.4963 -0.4322
  203ETH     CH 1820   3.539   0.046   3.407 -0.1004  0.6343 -0.2024
  203ETH     CH 1821   3.612   0.013   3.537 -0.0003  0.1834 -0.3730
  203ETH     HO 1822   3.366   0.135   3.436 -0.1841 -0.6605  2.6800
  203ETH     HC 1823   3.548  -0.029   3.329  0.0674  1.3336 -0.8636
  203ETH     HC 1824   3.567   0.140   3.359 -0.5995  0.6597 -0.4486
  203ETH     HC 1825   3.718   0.036   3.521  0.2888 -0.7259  0.2051
  203ETH     HC 1826   3.574   0.069   3.622  0.3050  0.6582 -0.5416
  203ETH     HC 1827   3.616  -0.094   3.554 -0.7330 -0.0562 -1.6476
  204ETH     OH 1828   1.557   5.464   3.629 -0.2681 -0.4080 -0.3795
  204ETH     CH 1829   1.508   5.597   3.630 -0.2198 -0.3892 -0.5358
  204ETH     CH 1830   1.491   5.646   3.486  0.1667  0.6109 -0.2446
  204ETH     HO 1831   1.640   5.465   3.584  0.1430  1.4381  0.3562
  204ETH     HC 1832   1.413   5.595   3.683 -0.1844  2.5798 -0.3009
  204ETH     HC 1833   1.587   5.656   3.677 -0.2129  1.0504 -2.2902
  204ETH     HC 1834   1.586   5.685   3.451 -0.2790  0.5161 -1.5724
  204ETH     HC 1835   1.451   5.586   3.404  2.2359 -1.5233  0.2623
  204ETH     HC 1836   1.422   5.730   3.483  1.0413  1.4264  1.6453
  205ETH     OH 1837   3.806   3.937   2.857  0.3404  0.2077  0.3516
  205ETH     CH 1838   3.807   3.902   2.720 -0.1410 -0.4916  0.5234
  205ETH     CH 1839   3.685   3.960   2.648  0.1337 -0.4263  0.1103
  205ETH     HO 1840   3.866   3.883   2.906 -0.4609 -0.9136  0.1249
  205ETH     HC 1841   3.889   3.954   2.671 -0.2328 -0.1936  0.6838
  205ETH     HC 1842   3.820   3.796   2.700  0.6778 -0.3084  0.0744
  205ETH     HC 1843   3.595   3.919   2.694 -0.8220  2.3640  0.8144
  205ETH     HC 1844   3.694   4.068   2.659 -0.7960 -0.4356  0.9969
  205ETH     HC 1845   3.687   3.947   2.540 -0.2103  0.3123  0.0159
  206ETH     OH 1846   0.238   5.976   5.359 -0.2477  0.1241 -0.2538
  206ETH     CH 1847   0.276   5.851   5.307 -0.0184  0.0992 -0.0217
  206ETH     CH 1848   0.311   5.755   5.421 -0.0263 -0.1531 -0.2294
  206ETH     HO 1849   0.238   6.037   5.286  0.6479  2.0478  1.3079
  206ETH     HC 1850   0.189   5.817   5.252 -0.7491  2.6086 -0.4643
  206ETH     HC 1851   0.356   5.862   5.233 -0.6641 -1.3393 -0.9504
  206ETH     HC 1852   0.399   5.789   5.476  1.4209  0.6556 -2.9596
  206ETH     HC 1853   0.236   5.753   5.500  0.1165  0.7552 -0.0553
  206ETH     HC 1854   0.325   5.651   5.393 -2.9327 -0.5850 -0.2044
  207ETH     OH 1855   0.650   0.938   6.092 -0.1685  0.4411  0.1895
  207ETH     CH 1856   0.641   1.079   6.084 -0.0287  0.4158 -0.4363
  207ETH     CH 1857   0.723   1.148   6.193 -0.0319 -1.0360  0.5093
  207ETH     HO 1858   0.588   0.904   6.029  0.4233  0.8033 -0.6028
  207ETH     HC 1859   0.678   1.116   5.988  1.4747  1.1497  0.4061
  207ETH     HC 1860   0.534   1.097   6.075 -0.1627 -1.2330 -2.7343
  207ETH     HC 1861   0.713   1.102   6.291  1.2200 -1.5971  0.3710
  207ETH     HC 1862   0.826   1.136   6.161  0.8092  0.4883  2.5509
  207ETH     HC 1863   0.689   1.252   6.189  2.7569 -0.1254 -0.8277
  208ETH     OH 1864   3.195   4.901   4.613  0.1876  0.2506  0.2867
  208ETH     CH 1865   3.304   4.825   4.567  0.1056  0.2105  0.1592
  208ETH     CH 1866   3.394   4.776   4.680  0.0748  0.1547  0.1604
  208ETH     HO 1867   3.126   4.846   4.648  0.3365 -0.4739 -0.5404
  208ETH     HC 1868   3.266   4.734   4.520  0.7119 -0.6261  1.2747
  208ETH     HC 1869   3.369   4.869   4.491  1.2583 -2.3435 -0.3974
  208ETH     HC 1870   3.464   4.713   4.625 -1.9817 -2.8239  0.8230
  208ETH     HC 1871   3.430   4.848   4.754 -1.9584  2.9919 -1.5085
  208ETH     HC 1872   3.343   4.698   4.736 -0.2099 -1.0468 -1.7097
  209ETH     OH 1873   2.448   4.932   3.277 -0.2204 -0.2317 -0.0922
  209ETH     CH 1874   2.415   4.795   3.270  0.4022 -0.3698 -0.3779
  209ETH     CH 1875   2.351   4.773   3.133 -0.4520  0.1199 -0.0590
  209ETH     HO 1876   2.538   4.949   3.253 -1.0194  0.5206 -2.6698
  209ETH     HC 1877   2.506   4.737   3.285  0.2410 -0.3001  0.9040
  209ETH     HC 1878   2.349   4.770   3.353  1.1865 -3.5803 -0.6783
  209ETH     HC 1879   2.276   4.851   3.120 -1.0996 -0.5113 -0.1378
  209ETH     HC 1880   2.422   4.782   3.051 -0.3183  2.9815  0.3119
  209ETH     HC 1881   2.302   4.676   3.127 -0.8281  0.2674  0.5437
  210ETH     OH 1882   4.907   0.416   4.464  0.3737 -0.1254 -0.4310
  210ETH     CH 1883   5.044   0.425   4.497  0.1669  0.5904  0.2282
  210ETH     CH 1884   5.141   0.446   4.381 -0.1619  1.0484  0.0330
  210ETH     HO 1885   4.884   0.503   4.435  2.7884  0.6745 -0.0647
  210ETH     HC 1886   5.055   0.510   4.565 -0.5411  0.7558  0.1400
  210ETH     HC 1887   5.070   0.335   4.553  0.6771  0.3943 -0.3177
  210ETH     HC 1888   5.248   0.455   4.400  0.1182  0.4296 -1.1552
  210ETH     HC 1889   5.160   0.348   4.336  0.5379  1.6055 -0.8867
  210ETH     HC 1890   5.117   0.520   4.305 -0.5002 -0.7714 -1.6874
  211ETH     OH 1891   3.695   3.121   4.212  0.4693  0.3358  0.3465
  211ETH     CH 1892   3.795   3.037   4.265 -0.1322 -0.2610  0.5512
  211ETH     CH 1893   3.758   2.889   4.254  0.0243 -0.2533 -0.0680
  211ETH     HO 1894   3.713   3.211   4.237 -0.0967 -0.1514  2.7068
  211ETH     HC 1895   3.887   3.069   4.216 -0.7520  1.1040  0.2599
  211ETH     HC 1896   3.806   3.059   4.371 -0.2310 -2.1789  0.9651
  211ETH     HC 1897   3.759   2.856   4.150 -0.6259 -0.2325 -0.0850
  211ETH     HC 1898   3.836   2.825   4.295 -1.9605 -2.3423  0.5112
  211ETH     HC 1899   3.667   2.864   4.307 -0.0388  1.6144  0.7459
  212ETH     OH 1900   1.260   1.014   3.324  0.0762 -0.0708  0.3652
  212ETH     CH 1901   1.172   1.114   3.278  0.3291  0.0617  0.1695
  212ETH     CH 1902   1.258   1.230   3.229 -0.3075  0.5384  0.1704
  212ETH     HO 1903   1.200   0.941   3.337 -1.9610  1.4285 -0.3241
  212ETH     HC 1904   1.105   1.064   3.209 -0.9916 -0.3647  1.7203
  212ETH     HC 1905   1.104   1.137   3.361 -1.9536 -3.3924 -0.6852
  212ETH     HC 1906   1.345   1.259   3.288  0.1841 -2.4909  1.0053
  212ETH     HC 1907   1.288   1.207   3.127  2.2272  3.8080  0.0938
  212ETH     HC 1908   1.189   1.311   3.206  0.5537  1.0703 -0.6013
  213ETH     OH 1909   4.187   4.649   5.640 -0.2294  0.1465  0.2923
  213ETH     CH 1910   4.287   4.610   5.548 -0.2472  0.4494  0.1462
  213ETH     CH 1911   4.221   4.565   5.417  0.0106  0.2457  0.0874
  213ETH     HO 1912   4.127   4.707   5.596 -0.3905 -1.6128 -1.9147
  213ETH     HC 1913   4.345   4.701   5.529 -1.5686  1.9975  3.1413
  213ETH     HC 1914   4.347   4.525   5.581  0.7455  0.2510 -2.0822
  213ETH     HC 1915   4.200   4.655   5.358 -1.2763  0.5170  0.9236
  213ETH     HC 1916   4.287   4.502   5.358  1.5456 -0.5435  2.5471
  213ETH     HC 1917   4.135   4.498   5.419  1.2515 -1.3533  0.0771
  214ETH     OH 1918   0.357   0.396   0.786  0.0533 -0.3032  0.5582
  214ETH     CH 1919   0.421   0.329   0.679  0.4166  0.4260  0.3151
  214ETH     CH 1920   0.499   0.211   0.737  0.2594 -0.0522 -0.4383
  214ETH     HO 1921   0.305   0.468   0.755 -1.6611 -1.7229  0.0678
  214ETH     HC 1922   0.345   0.300   0.606  0.1577  1.9459 -0.0306
  214ETH     HC 1923   0.487   0.401   0.631  1.2978  0.2470  1.2388
  214ETH     HC 1924   0.559   0.161   0.661  0.1607 -0.0440 -0.5218
  214ETH     HC 1925   0.574   0.250   0.805 -0.2909  0.3513 -0.0566
  214ETH     HC 1926   0.431   0.133   0.774  0.9038 -0.3595  0.1033
  215ETH     OH 1927   0.067   0.674   1.178 -0.0337  0.0538 -0.0169
  215ETH     CH 1928   0.134   0.603   1.077 -0.2019  0.2299 -0.2511
  215ETH     CH 1929   0.199   0.717   0.998  0.1547 -0.1041 -0.4394
  215ETH     HO 1930  -0.002   0.615   1.206 -1.1669  1.2027 -0.2874
  215ETH     HC 1931   0.200   0.525   1.113  0.4610  0.6095 -0.6247
  215ETH     HC 1932   0.068   0.545   1.012  1.9299 -2.9294  0.3025
  215ETH     HC 1933   0.129   0.781   0.945  0.7677  0.9821  0.0396
  215ETH     HC 1934   0.268   0.775   1.060  1.3193 -0.1319 -1.6880
  215ETH     HC 1935   0.268   0.678   0.923  0.9747  0.0235  0.2428
  216ETH     OH 1936   5.116   0.198   3.873 -0.0286  0.3610 -0.2044
  216ETH     CH 1937   5.236   0.272   3.879  0.0354  0.2591 -0.2282
  216ETH     CH 1938   5.282   0.282   4.024  0.5789  0.5657 -0.4197
  216ETH     HO 1939   5.100   0.170   3.784  0.3292 -1.8375  0.3945
  216ETH     HC 1940   5.234   0.368   3.829  3.8177  0.3116 -0.4285
  216ETH     HC 1941   5.307   0.210   3.823 -0.6115 -0.7857  0.0826
  216ETH     HC 1942   5.390   0.265   4.020  0.2745 -2.1621  1.2015
  216ETH     HC 1943   5.251   0.378   4.064 -1.7684 -0.8864  1.3777
  216ETH     HC 1944   5.228   0.208   4.083 -2.2726  1.8899 -1.2917
  217ETH     OH 1945   4.939   1.170   1.152  0.0208 -0.2103 -0.0064
  217ETH     CH 1946   4.851   1.227   1.246  0.2707  0.0425  0.0725
  217ETH     CH 1947   4.926   1.240   1.379  0.1530  0.0042  0.1423
  217ETH     HO 1948   4.886   1.169   1.074 -3.4142  1.9551  2.1662
  217ETH     HC 1949   4.819   1.322   1.203 -0.1014  0.8255  1.9951
  217ETH     HC 1950   4.760   1.168   1.256 -0.5035  0.9895 -1.2158
  217ETH     HC 1951   4.863   1.288   1.453 -2.2267  0.3216 -2.0396
  217ETH     HC 1952   4.937   1.139   1.421 -0.4731 -0.2269 -0.2545
  217ETH     HC 1953   5.024   1.289   1.383  0.9328 -1.6076  1.4982
  218ETH     OH 1954   0.271   5.740   4.642  0.0920 -0.3839  0.4806
  218ETH     CH 1955   0.234   5.615   4.695 -0.5782 -0.5683 -0.4061
  218ETH     CH 1956   0.289   5.602   4.837  0.0705 -0.6552 -0.6648
  218ETH     HO 1957   0.250   5.733   4.550  0.9023 -1.2346  0.3526
  218ETH     HC 1958   0.127   5.633   4.701 -0.1867  1.6154  0.6953
  218ETH     HC 1959   0.263   5.531   4.631  0.9987  0.6494 -1.3189
  218ETH     HC 1960   0.385   5.653   4.853 -0.8692  0.6478  1.0457
  218ETH     HC 1961   0.223   5.644   4.913  1.2582 -0.3300  0.2110
  218ETH     HC 1962   0.313   5.497   4.857 -0.6589 -0.8314 -0.7335
  219ETH     OH 1963   2.730   5.150   5.709  0.2173  0.0474 -0.4549
  219ETH     CH 1964   2.744   5.026   5.644 -0.1045 -0.0109 -0.4132
  219ETH     CH 1965   2.893   4.993   5.637  0.0594  0.7199 -0.3478
  219ETH     HO 1966   2.759   5.221   5.654 -2.1665  0.7737 -0.8074
  219ETH     HC 1967   2.686   4.954   5.702  1.9662  0.3122  2.1423
  219ETH     HC 1968   2.694   5.026   5.547  0.9535 -0.2484 -0.9623
  219ETH     HC 1969   2.911   4.894   5.597 -0.6419  0.5904 -0.3540
  219ETH     HC 1970   2.949   5.063   5.575 -0.6404  1.7376  0.1471
  219ETH     HC 1971   2.935   4.999   5.737  1.0946 -0.1799 -0.7213
  220ETH     OH 1972   5.475   4.270   0.970  0.2762 -0.4077 -0.1897
  220ETH     CH 1973   5.613   4.288   0.991  0.3422 -0.3395 -0.6703
  220ETH     CH 1974   5.684   4.155   0.961  1.0482 -0.0611 -0.2611
  220ETH     HO 1975   5.457   4.219   0.893  1.2138  0.6238 -1.1085
  220ETH     HC 1976   5.648   4.368   0.927  1.5884 -1.6519 -1.6650
  220ETH     HC 1977   5.630   4.331   1.090 -0.5513  0.2312 -0.7647
  220ETH     HC 1978   5.668   4.131   0.856  1.2362  0.1961 -0.3495
  220ETH     HC 1979   5.792   4.166   0.962  0.9610  0.7818  0.4133
  220ETH     HC 1980   5.646   4.065   1.008 -0.5135 -0.0115 -1.3616
  221ETH     OH 1981   1.132   0.787   1.104 -0.0145 -0.1022 -0.2402
  221ETH     CH 1982   1.236   0.783   1.199 -0.3980 -0.4449  0.1665
  221ETH     CH 1983   1.186   0.769   1.342 -0.2094  0.2855  0.3060
  221ETH     HO 1984   1.068   0.845   1.143  0.3200 -1.1094  1.8755
  221ETH     HC 1985   1.308   0.708   1.163 -0.1442 -0.4907  0.7715
  221ETH     HC 1986   1.305   0.867   1.191  0.0722 -0.8482 -0.0420
  221ETH     HC 1987   1.268   0.755   1.413  0.0797  1.8182  0.2769
  221ETH     HC 1988   1.143   0.863   1.376  0.0434  0.0009  1.4560
  221ETH     HC 1989   1.114   0.687   1.350 -1.0251  0.7872 -1.5652
  222ETH     OH 1990   3.294   4.560   2.333 -0.6587  0.1469 -0.0444
  222ETH     CH 1991   3.181   4.481   2.361 -0.5868  0.2194  0.4543
  222ETH     CH 1992   3.074   4.584   2.399 -0.5908  0.0429  0.9250
  222ETH     HO 1993   3.328   4.530   2.250 -2.2518 -1.6238 -0.0695
  222ETH     HC 1994   3.155   4.427   2.269 -0.8193  0.8812  0.1294
  222ETH     HC 1995   3.195   4.405   2.437  1.1410 -1.4784 -1.5070
  222ETH     HC 1996   3.062   4.651   2.314  2.0270  1.1676  1.3987
  222ETH     HC 1997   2.979   4.530   2.400 -0.3729 -0.3679  0.3432
  222ETH     HC 1998   3.086   4.641   2.491  1.1986 -0.6294  1.1387
  223ETH     OH 1999   5.358   4.131   0.752 -0.1475  0.2265 -0.3261
  223ETH     CH 2000   5.362   4.109   0.613  0.4349 -0.4564 -0.2045
  223ETH     CH 2001   5.487   4.180   0.559  0.1169  0.2470 -0.0294
  223ETH     HO 2002   5.304   4.071   0.803 -0.6346  0.5251 -0.4872
  223ETH     HC 2003   5.370   4.002   0.594  0.4596 -0.6033  0.6118
  223ETH     HC 2004   5.272   4.147   0.565 -0.1926 -1.0364  0.5091
  223ETH     HC 2005   5.477   4.288   0.563 -0.5920  0.1817  0.0403
  223ETH     HC 2006   5.582   4.164   0.609  0.1816 -1.8326 -0.7494
  223ETH     HC 2007   5.497   4.136   0.459 -0.7029  0.0488 -0.0341
  224ETH     OH 2008   0.295   0.116   2.234 -0.1269 -0.0576  0.1081
  224ETH     CH 2009   0.253  -0.009   2.284  0.2105 -0.0270  0.4688
  224ETH     CH 2010   0.285  -0.113   2.177  0.0832  0.1824  0.2249
  224ETH     HO 2011   0.283   0.172   2.309 -1.8069  0.7469 -0.7263
  224ETH     HC 2012   0.311  -0.039   2.371  1.0438 -1.7852 -0.6632
  224ETH     HC 2013   0.148  -0.000   2.311  0.8590 -0.5374  3.3357
  224ETH     HC 2014   0.233  -0.209   2.173  1.3085 -0.4279 -1.6272
  224ETH     HC 2015   0.263  -0.072   2.079 -1.5482  2.1420  1.3779
  224ETH     HC 2016   0.392  -0.132   2.165 -0.4222 -3.0363  0.4003
  225ETH     OH 2017   4.050   3.880   0.866  0.0231 -0.3711  0.2821
  225ETH     CH 2018   4.086   3.880   0.730 -0.5737  0.1477  0.1270
  225ETH     CH 2019   3.963   3.908   0.643 -0.3633  0.3265 -0.1143
  225ETH     HO 2020   4.128   3.856   0.914 -0.5665 -2.0548  0.4476
  225ETH     HC 2021   4.168   3.945   0.699  0.1127 -0.7278  0.1280
  225ETH     HC 2022   4.122   3.781   0.703  1.4812  1.0608 -0.6208
  225ETH     HC 2023   3.895   3.824   0.651  2.8231 -2.2873  0.6124
  225ETH     HC 2024   3.926   4.007   0.671 -0.6519  0.6828 -1.6639
  225ETH     HC 2025   4.000   3.900   0.540 -1.6272 -1.1595 -0.4672
  226ETH     OH 2026   3.391   0.942   5.211 -0.0380 -0.3580  0.4262
  226ETH     CH 2027   3.463   0.959   5.331 -0.1109 -0.1044  0.4354
  226ETH     CH 2028   3.609   0.960   5.287 -0.1881 -0.7960  0.1597
  226ETH     HO 2029   3.387   1.020   5.158  2.6653 -1.1364 -0.9819
  226ETH     HC 2030   3.436   1.057   5.370 -2.2912  0.0333 -1.3433
  226ETH     HC 2031   3.453   0.880   5.405  0.4796  1.3032  2.0601
  226ETH     HC 2032   3.644   1.051   5.238 -2.0729 -0.4679 -0.6318
  226ETH     HC 2033   3.670   0.942   5.375 -1.0826 -0.1082  0.9247
  226ETH     HC 2034   3.626   0.874   5.222 -0.5644  0.0248 -1.0440
  227ETH     OH 2035   5.942   2.314   2.184 -0.0972  0.1050 -0.1642
  227ETH     CH 2036   6.026   2.425   2.203  0.2376 -0.2130  0.2173
  227ETH     CH 2037   6.037   2.445   2.354  0.3059  0.3550  0.1382
  227ETH     HO 2038   5.936   2.310   2.090 -0.0359  2.6902 -0.3108
  227ETH     HC 2039   6.122   2.404   2.156  0.6519  0.4764  0.7381
  227ETH     HC 2040   5.984   2.513   2.154  2.7201  1.3264  0.7516
  227ETH     HC 2041   5.940   2.467   2.400  0.0770 -1.7645  0.7343
  227ETH     HC 2042   6.074   2.360   2.412  0.6521 -0.2880 -1.0055
  227ETH     HC 2043   6.107   2.525   2.379 -2.3160  2.0932  2.2846
  228ETH     OH 2044   5.090   4.558   0.820 -0.1980 -0.4919  0.3021
  228ETH     CH 2045   5.207   4.492   0.862  0.4549  0.5708  0.1657
  228ETH     CH 2046   5.283   4.457   0.734 -0.3703 -0.1167 -0.1418
  228ETH     HO 2047   5.058   4.522   0.739  0.2291  0.6662 -0.3851
  228ETH     HC 2048   5.259   4.553   0.936 -1.5812 -0.7707  2.8168
  228ETH     HC 2049   5.190   4.393   0.905  0.1003  0.8387  0.6458
  228ETH     HC 2050   5.223   4.396   0.666 -0.0895 -0.2672 -0.2544
  228ETH     HC 2051   5.307   4.546   0.677  0.4723  0.4826  1.1243
  228ETH     HC 2052   5.377   4.403   0.749  0.7220  2.3558  2.4333
  229ETH     OH 2053   1.564   2.539   3.976 -0.2887  0.1071  0.0855
  229ETH     CH 2054   1.625   2.463   3.875 -0.7740  0.0730 -0.1852
  229ETH     CH 2055   1.771   2.435   3.912 -0.9675  0.2650  0.7270
  229ETH     HO 2056   1.481   2.563   3.937 -0.7414 -1.5697 -0.0099
  229ETH     HC 2057   1.577   2.366   3.866  2.4121 -1.4926 -1.0200
  229ETH     HC 2058   1.619   2.522   3.783  2.3554  0.4996 -0.1624
  229ETH     HC 2059   1.776   2.365   3.996 -0.5584 -1.2400 -0.5411
  229ETH     HC 2060   1.825   2.385   3.831 -1.3388  1.0049  0.0151
  229ETH     HC 2061   1.828   2.524   3.940  0.6417 -1.5514  3.4582
  230ETH     OH 2062   1.608   4.422   1.325 -0.5026  0.2600 -0.1102
  230ETH     CH 2063   1.609   4.478   1.454 -0.1213 -0.1476  0.0682
  230ETH     CH 2064   1.753   4.498   1.501 -0.0771  0.3637 -0.2796
  230ETH     HO 2065   1.598   4.330   1.346  0.2770  0.3112  0.5251
  230ETH     HC 2066   1.562   4.577   1.454  0.2167  0.0213 -1.1263
  230ETH     HC 2067   1.544   4.418   1.518  2.8800 -1.1277  2.2842
  230ETH     HC 2068   1.811   4.416   1.543  2.8094  0.2771 -4.1455
  230ETH     HC 2069   1.800   4.540   1.412  0.1374 -1.4176 -1.0157
  230ETH     HC 2070   1.740   4.580   1.572 -0.4891  0.1718 -0.1303
  231ETH     OH 2071   1.242   3.331   3.345  0.2658 -0.5364  0.0387
  231ETH     CH 2072   1.322   3.422   3.418  0.0850 -0.3984  0.0637
  231ETH     CH 2073   1.434   3.354   3.496  0.1362 -0.2775  0.0954
  231ETH     HO 2074   1.155   3.367   3.347  0.7368  0.5472  1.4069
  231ETH     HC 2075   1.377   3.495   3.359 -3.1632  1.1427 -1.1747
  231ETH     HC 2076   1.257   3.475   3.487  0.1289  1.3685 -1.2292
  231ETH     HC 2077   1.399   3.263   3.544 -0.8207 -0.1909 -0.4374
  231ETH     HC 2078   1.511   3.325   3.424 -0.1654 -0.0196 -0.3312
  231ETH     HC 2079   1.483   3.424   3.564 -0.7208  1.6744 -1.2634
  232ETH     OH 2080   1.560   5.379   2.162  0.2612  0.1669  0.2404
  232ETH     CH 2081   1.515   5.472   2.258  0.5245 -0.0960  0.6168
  232ETH     CH 2082   1.635   5.507   2.346  0.7483  1.0656 -0.1390
  232ETH     HO 2083   1.490   5.334   2.116  1.0363 -0.8051 -0.0066
  232ETH     HC 2084   1.475   5.554   2.199 -0.3465 -0.0972  1.2018
  232ETH     HC 2085   1.441   5.430   2.326  0.4545  0.7410  1.0638
  232ETH     HC 2086   1.610   5.571   2.431  1.3067  0.5015  0.4620
  232ETH     HC 2087   1.662   5.416   2.400 -1.1064  0.8385  0.4650
  232ETH     HC 2088   1.728   5.539   2.299  1.5491 -0.5177  0.3252
  233ETH     OH 2089   0.657   2.519   2.889 -0.5212  0.1915  0.0211
  233ETH     CH 2090   0.518   2.497   2.906 -0.4222 -0.1401  0.4282
  233ETH     CH 2091   0.485   2.351   2.874 -0.2608 -0.1559  0.3310
  233ETH     HO 2092   0.666   2.612   2.898 -1.3161  0.0582  2.6491
  233ETH     HC 2093   0.484   2.547   2.997 -1.2503  1.6420 -0.8160
  233ETH     HC 2094   0.462   2.559   2.836 -1.4382 -0.4537  0.9530
  233ETH     HC 2095   0.376   2.345   2.883 -0.3182  0.8471  0.4688
  233ETH     HC 2096   0.497   2.332   2.768 -2.7571 -1.6279  0.2735
  233ETH     HC 2097   0.530   2.271   2.933 -2.3503 -1.0869  0.7045
  234ETH     OH 2098   2.579   5.799   1.457  0.2652 -0.1552  0.0287
  234ETH     CH 2099   2.642   5.674   1.437 -0.2433 -0.4671  0.3433
  234ETH     CH 2100   2.764   5.685   1.346 -0.0790 -0.8987  0.5130
  234ETH     HO 2101   2.632   5.848   1.518  2.6755 -0.8734 -1.4414
  234ETH     HC 2102   2.698   5.652   1.528  0.9998 -0.8446 -0.5002
  234ETH     HC 2103   2.570   5.601   1.400 -2.3936  1.6896  0.0718
  234ETH     HC 2104   2.825   5.773   1.367  1.7687 -1.7782 -0.9308
  234ETH     HC 2105   2.840   5.607   1.352  0.6244 -0.2458  0.1941
  234ETH     HC 2106   2.742   5.685   1.239  2.0251  0.7097  0.0528
  235ETH     OH 2107   1.149   3.633   4.509 -0.3682 -0.2913  0.0295
  235ETH     CH 2108   1.051   3.734   4.498  0.0193  0.0673 -0.1257
  235ETH     CH 2109   1.117   3.867   4.537  0.5000 -0.1042 -0.3554
  235ETH     HO 2110   1.152   3.603   4.599  0.1358 -0.7601 -0.1446
  235ETH     HC 2111   1.009   3.731   4.398 -2.0300 -0.2074  0.7172
  235ETH     HC 2112   0.962   3.724   4.559  0.5134 -1.5890  0.3351
  235ETH     HC 2113   1.136   3.876   4.644  0.2523  4.8971 -0.6100
  235ETH     HC 2114   1.210   3.892   4.485  1.0017 -0.3360  0.4164
  235ETH     HC 2115   1.043   3.946   4.524  0.5089 -0.1313 -0.5703
  236ETH     OH 2116   0.351   6.005   4.348 -0.4886 -0.3200  0.3294
  236ETH     CH 2117   0.349   5.975   4.210  0.0594  0.0374  0.2426
  236ETH     CH 2118   0.408   6.097   4.138 -0.1117  0.0177  0.0683
  236ETH     HO 2119   0.349   5.919   4.386 -0.1908 -0.5983 -0.2786
  236ETH     HC 2120   0.397   5.880   4.186  2.3700  0.6330  2.3048
  236ETH     HC 2121   0.245   5.961   4.181  0.5986  1.0111 -2.3356
  236ETH     HC 2122   0.380   6.193   4.180  0.0378  0.0954 -0.0073
  236ETH     HC 2123   0.516   6.085   4.137 -0.1982 -0.9286  1.1944
  236ETH     HC 2124   0.373   6.101   4.035  1.4235  1.1115 -0.4209
  237ETH     OH 2125   3.406   2.493   4.124 -0.3431 -0.0836 -0.6992
  237ETH     CH 2126   3.497   2.465   4.228 -0.7023  0.1933 -0.3063
  237ETH     CH 2127   3.429   2.455   4.364 -0.2379  0.0129 -0.0844
  237ETH     HO 2128   3.430   2.451   4.043 -2.3639  0.4063 -1.5679
  237ETH     HC 2129   3.545   2.367   4.216 -3.0890 -0.9826 -0.4790
  237ETH     HC 2130   3.564   2.551   4.236 -0.3991 -0.0397 -0.3174
  237ETH     HC 2131   3.353   2.377   4.372  0.1785 -0.3009  0.9498
  237ETH     HC 2132   3.497   2.437   4.447 -0.2788 -2.1976 -0.4846
  237ETH     HC 2133   3.378   2.551   4.367  0.8457  0.6226 -1.0035
  238ETH     OH 2134   2.241   1.152   2.820 -0.0146 -0.0518  0.6359
  238ETH     CH 2135   2.120   1.205   2.770  0.3425  0.2300  0.0653
  238ETH     CH 2136   2.041   1.102   2.691  0.6517  0.0200  0.0261
  238ETH     HO 2137   2.243   1.163   2.914  0.8189 -0.1613  0.6315
  238ETH     HC 2138   2.060   1.242   2.854  0.0216  0.2860 -0.1887
  238ETH     HC 2139   2.145   1.289   2.705 -1.9552  0.7078 -0.2239
  238ETH     HC 2140   1.957   1.159   2.649  0.9834 -1.0291 -2.1342
  238ETH     HC 2141   2.113   1.075   2.614  0.2860  0.3606 -0.4389
  238ETH     HC 2142   2.002   1.018   2.748  0.8966 -0.4832 -0.5515
  239ETH     OH 2143   6.064   0.527   5.884 -0.0569 -0.5753  0.1532
  239ETH     CH 2144   6.058   0.393   5.841 -0.0612 -0.4141 -0.3492
  239ETH     CH 2145   6.149   0.357   5.723  0.1128 -0.3408 -0.2359
  239ETH     HO 2146   6.154   0.541   5.909 -0.4680 -0.4189  1.5952
  239ETH     HC 2147   6.080   0.334   5.930  1.0691 -0.0395 -0.3769
  239ETH     HC 2148   5.956   0.372   5.808 -0.6569  2.9029 -0.8399
  239ETH     HC 2149   6.126   0.263   5.675  0.4337 -0.7083  0.3232
  239ETH     HC 2150   6.151   0.441   5.654  1.2841 -1.0310 -1.0550
  239ETH     HC 2151   6.247   0.348   5.772  0.0145 -1.6171 -0.2636
  240ETH     OH 2152   1.475   5.145   2.703  0.0809 -0.0791  0.0475
  240ETH     CH 2153   1.583   5.215   2.646 -0.1284 -0.2990 -0.6127
  240ETH     CH 2154   1.613   5.332   2.738  0.1045 -0.6439 -0.2482
  240ETH     HO 2155   1.431   5.096   2.636 -2.4731 -0.2398  1.7588
  240ETH     HC 2156   1.667   5.146   2.633  1.2639  1.2334  0.0722
  240ETH     HC 2157   1.549   5.244   2.546 -2.5681  0.5829  0.4619
  240ETH     HC 2158   1.690   5.398   2.699  0.1055 -0.9406 -0.7402
  240ETH     HC 2159   1.522   5.389   2.756  0.7676 -0.4178  2.7128
  240ETH     HC 2160   1.648   5.303   2.837 -1.6081  0.7395  0.8032
  241ETH     OH 2161   3.417   4.247   5.295  0.3912  0.1460  0.2423
  241ETH     CH 2162   3.310   4.315   5.233  0.1567 -0.4965 -0.0631
  241ETH     CH 2163   3.194   4.332   5.331  0.5394  0.1734  0.2796
  241ETH     HO 2164   3.426   4.278   5.384  0.1767 -1.4171  0.8172
  241ETH     HC 2165   3.350   4.413   5.206  1.7812 -0.7652  1.2705
  241ETH     HC 2166   3.274   4.260   5.146  1.1271 -0.7264 -0.3209
  241ETH     HC 2167   3.224   4.391   5.418  0.4927  1.2168 -0.4021
  241ETH     HC 2168   3.105   4.386   5.297  0.1761 -0.0151  0.9269
  241ETH     HC 2169   3.163   4.235   5.370  1.2346 -0.5249 -0.8838
  242ETH     OH 2170   5.372   1.663   2.892  0.5224  0.0132  0.3162
  242ETH     CH 2171   5.267   1.751   2.859  0.2829 -0.3005  0.2371
  242ETH     CH 2172   5.149   1.667   2.811  0.6784 -0.4810 -0.4268
  242ETH     HO 2173   5.446   1.716   2.919  0.1483  1.7171 -1.7741
  242ETH     HC 2174   5.229   1.811   2.942  1.1358  0.6097 -0.0070
  242ETH     HC 2175   5.298   1.817   2.777 -1.5250  0.6981  0.3235
  242ETH     HC 2176   5.057   1.726   2.811  0.3795 -0.8930  1.6934
  242ETH     HC 2177   5.163   1.628   2.711 -0.8462 -0.5621 -0.6248
  242ETH     HC 2178   5.133   1.581   2.876 -5.8069  1.3561  0.7917
  243ETH     OH 2179   2.747   4.998   3.392  0.7547 -0.0920  0.5523
  243ETH     CH 2180   2.799   5.123   3.352  0.1027  0.1303  0.4062
  243ETH     CH 2181   2.690   5.214   3.295 -0.2499 -0.8368 -0.4740
  243ETH     HO 2182   2.791   4.960   3.467  1.9718 -1.6381 -0.9104
  243ETH     HC 2183   2.870   5.169   3.420 -0.1169 -0.1982  0.8626
  243ETH     HC 2184   2.869   5.084   3.278 -0.1473  1.1071 -0.3581
  243ETH     HC 2185   2.624   5.245   3.375  1.8462 -0.5276  1.1837
  243ETH     HC 2186   2.726   5.311   3.258 -2.4109  0.5176  0.8970
  243ETH     HC 2187   2.630   5.160   3.222 -1.2301 -0.7593  0.2741
  244ETH     OH 2188   4.767   4.488   4.911 -0.5599 -0.3981  0.3101
  244ETH     CH 2189   4.640   4.540   4.878 -0.1547  0.4211  0.0112
  244ETH     CH 2190   4.599   4.498   4.737  0.5092 -0.7788  0.1706
  244ETH     HO 2191   4.825   4.551   4.952 -1.8262  0.1574  1.2972
  244ETH     HC 2192   4.569   4.499   4.950 -2.2560  0.6218 -1.8686
  244ETH     HC 2193   4.648   4.647   4.893 -0.6935  0.5825 -0.8037
  244ETH     HC 2194   4.686   4.487   4.672  0.8170  0.3976  0.3906
  244ETH     HC 2195   4.530   4.413   4.739  0.0715 -0.4692 -0.9740
  244ETH     HC 2196   4.537   4.577   4.696 -1.0096 -0.9767  1.9916
  245ETH     OH 2197   2.691   0.691   4.830 -0.3334  0.0190  0.3963
  245ETH     CH 2198   2.649   0.767   4.719 -0.6503 -0.5209  0.1439
  245ETH     CH 2199   2.553   0.885   4.738  0.2085  0.2503 -0.3063
  245ETH     HO 2200   2.733   0.615   4.792 -2.7139 -0.9799 -0.3926
  245ETH     HC 2201   2.734   0.818   4.674 -0.2026 -0.2414  1.3047
  245ETH     HC 2202   2.626   0.694   4.641  1.3613 -3.6270  2.3719
  245ETH     HC 2203   2.602   0.944   4.816 -0.1675 -3.0415  2.5418
  245ETH     HC 2204   2.550   0.942   4.645  1.0350  1.9579  0.6915
  245ETH     HC 2205   2.454   0.853   4.770  0.3969  0.6942  0.7377
  246ETH     OH 2206   6.232   3.500   4.797  0.1353 -0.1213 -0.4675
  246ETH     CH 2207   6.292   3.402   4.716  0.0528 -0.2595 -0.3638
  246ETH     CH 2208   6.354   3.293   4.803 -0.1452  0.0221  0.1307
  246ETH     HO 2209   6.178   3.559   4.746 -0.7959  0.3709  1.0564
  246ETH     HC 2210   6.361   3.455   4.650  2.0104 -0.2099  1.6802
  246ETH     HC 2211   6.214   3.362   4.652 -0.7100 -1.6057  1.3770
  246ETH     HC 2212   6.404   3.210   4.753  0.3350  0.0534  0.5546
  246ETH     HC 2213   6.439   3.322   4.865 -0.2560 -1.2829  0.9283
  246ETH     HC 2214   6.283   3.245   4.871 -0.2208 -1.7551 -1.1691
  247ETH     OH 2215   2.187   1.176   3.106  0.1651 -0.2599 -0.2958
  247ETH     CH 2216   2.245   1.082   3.193  0.3666  0.3729  0.2600
  247ETH     CH 2217   2.387   1.054   3.144  0.1595  0.6863 -0.5279
  247ETH     HO 2218   2.097   1.190   3.132  0.9130 -0.9038  2.8206
  247ETH     HC 2219   2.233   1.120   3.294 -0.5792 -0.8576  0.6205
  247ETH     HC 2220   2.181   0.995   3.182 -0.3916  0.9326  0.2214
  247ETH     HC 2221   2.435   0.979   3.207  1.1200  0.6058 -1.3273
  247ETH     HC 2222   2.396   1.037   3.037  2.6839 -1.1561 -0.0899
  247ETH     HC 2223   2.439   1.148   3.164  1.7110 -0.5426  1.3921
  248ETH     OH 2224   0.106   4.554   0.142 -0.2910 -0.1721  0.8680
  248ETH     CH 2225   0.201   4.640   0.203 -0.0475 -0.0445  0.3084
  248ETH     CH 2226   0.322   4.555   0.239 -0.1308 -0.4869 -0.4310
  248ETH     HO 2227   0.082   4.492   0.209 -0.9228 -1.0289 -0.1416
  248ETH     HC 2228   0.222   4.732   0.150 -1.0897  0.0713  0.0792
  248ETH     HC 2229   0.148   4.679   0.290 -3.1829 -0.5134 -1.2903
  248ETH     HC 2230   0.385   4.547   0.150  1.6206  1.6964  0.5518
  248ETH     HC 2231   0.392   4.608   0.305  0.5878 -2.6808  0.6536
  248ETH     HC 2232   0.299   4.453   0.269  0.3459 -0.7123 -0.8215
  249ETH     OH 2233   2.740   2.929   3.805 -0.3063 -0.2781  0.3330
  249ETH     CH 2234   2.741   2.802   3.743  0.0881 -0.1465  0.0625
  249ETH     CH 2235   2.874   2.731   3.767  0.2583  0.1544  0.0099
  249ETH     HO 2236   2.783   2.926   3.889 -3.6077  3.0748  2.2790
  249ETH     HC 2237   2.656   2.743   3.776  0.7244 -0.4650  1.1755
  249ETH     HC 2238   2.722   2.806   3.636 -3.5158 -0.1462  0.6577
  249ETH     HC 2239   2.877   2.627   3.734  2.3840  1.0030 -2.6319
  249ETH     HC 2240   2.960   2.782   3.723  0.3218  0.8782  0.9439
  249ETH     HC 2241   2.877   2.726   3.876  0.0360  0.8930  0.0508
  250ETH     OH 2242   1.142   4.002   1.417 -0.5137 -0.7025  0.1951
  250ETH     CH 2243   1.242   3.938   1.491  0.1017  0.6368  0.5394
  250ETH     CH 2244   1.182   3.903   1.627  0.2070 -0.2839  0.3525
  250ETH     HO 2245   1.066   3.946   1.410 -0.9206  0.0429 -1.8802
  250ETH     HC 2246   1.277   3.850   1.437  0.0086 -0.3457  2.0359
  250ETH     HC 2247   1.334   3.997   1.502 -0.5798  1.8519 -0.1945
  250ETH     HC 2248   1.176   3.991   1.690  0.7678  0.4294 -0.5774
  250ETH     HC 2249   1.078   3.872   1.622  0.4675 -0.9666 -1.0262
  250ETH     HC 2250   1.250   3.833   1.676  1.0941 -1.1292 -2.0119
  251ETH     OH 2251   4.828   2.452   4.483 -0.0633 -0.0520  0.1690
  251ETH     CH 2252   4.847   2.352   4.581  0.3337  0.2416  0.3923
  251ETH     CH 2253   4.929   2.239   4.521  0.6945  0.4593  0.4757
  251ETH     HO 2254   4.848   2.416   4.398 -0.6082  1.4525 -0.6146
  251ETH     HC 2255   4.904   2.400   4.661  1.5399  2.3837 -1.6725
  251ETH     HC 2256   4.749   2.314   4.612  1.3607 -0.3782  3.0426
  251ETH     HC 2257   4.961   2.170   4.599 -1.3816  0.1671  1.0817
  251ETH     HC 2258   4.864   2.175   4.461  1.4895 -0.7512  0.8901
  251ETH     HC 2259   5.016   2.271   4.463  0.2488  1.2457  0.2412
  252ETH     OH 2260   4.832   3.800   0.434  0.1848  0.1621  0.4264
  252ETH     CH 2261   4.967   3.782   0.472  0.2407 -0.1937  0.0628
  252ETH     CH 2262   4.997   3.893   0.572  0.0097 -0.1810  0.1191
  252ETH     HO 2263   4.803   3.748   0.361  0.1483  1.3262 -0.3919
  252ETH     HC 2264   4.975   3.689   0.528 -2.2853 -1.0818 -0.9834
  252ETH     HC 2265   5.037   3.780   0.388 -0.4087 -0.7379 -0.4768
  252ETH     HC 2266   5.103   3.881   0.596 -0.0044 -1.1871 -0.3289
  252ETH     HC 2267   4.978   3.991   0.528 -0.4328 -1.2762 -2.1628
  252ETH     HC 2268   4.928   3.911   0.654 -2.2498 -1.8907 -1.3807
  253ETH     OH 2269   1.847   1.622   3.425  0.7633 -0.2642  0.4347
  253ETH     CH 2270   1.822   1.498   3.486 -0.3743 -0.2555 -0.0039
  253ETH     CH 2271   1.682   1.504   3.548 -0.2571 -0.1135  0.2496
  253ETH     HO 2272   1.839   1.686   3.495  0.4783  0.8957 -0.6461
  253ETH     HC 2273   1.826   1.427   3.404 -0.6186 -0.3281  0.0483
  253ETH     HC 2274   1.900   1.466   3.556 -0.6209 -0.5267  0.1519
  253ETH     HC 2275   1.687   1.560   3.641  1.4406  1.0747 -0.5085
  253ETH     HC 2276   1.611   1.547   3.477  1.4894 -0.5060 -1.7863
  253ETH     HC 2277   1.648   1.403   3.568 -0.3309  0.7001  4.6906
  254ETH     OH 2278   1.336   4.945   6.175  0.0901 -0.8145  0.2884
  254ETH     CH 2279   1.437   4.947   6.077  0.1291 -0.4000  0.3405
  254ETH     CH 2280   1.572   4.988   6.137  0.3429 -0.2598 -0.2341
  254ETH     HO 2281   1.339   5.023   6.227  2.0869 -0.1750 -0.7248
  254ETH     HC 2282   1.449   4.857   6.017 -1.1354  0.2021 -0.8412
  254ETH     HC 2283   1.426   5.022   5.998  0.1751  1.2306  1.8607
  254ETH     HC 2284   1.645   5.005   6.057  0.9434 -3.1480 -0.3579
  254ETH     HC 2285   1.571   5.082   6.191  0.0493  0.2401 -1.0907
  254ETH     HC 2286   1.619   4.917   6.205  0.1609  0.9901  1.1918
  255ETH     OH 2287   4.953   5.106   2.349  0.2891  0.0893  0.4260
  255ETH     CH 2288   4.950   4.972   2.303 -0.7535  0.1127  0.4103
  255ETH     CH 2289   4.860   4.972   2.180 -0.1129 -0.2009 -0.0641
  255ETH     HO 2290   4.870   5.130   2.386 -0.0301  0.1707 -0.3290
  255ETH     HC 2291   5.051   4.937   2.280 -1.2713 -1.7331  0.8995
  255ETH     HC 2292   4.908   4.921   2.389  0.5503 -2.1902 -0.2878
  255ETH     HC 2293   4.757   4.976   2.217  0.2120 -0.7281  0.9137
  255ETH     HC 2294   4.880   5.042   2.099 -0.5363  0.2526  0.2127
  255ETH     HC 2295   4.870   4.872   2.140  1.1128  0.2881 -0.9792
  256ETH     OH 2296   5.673   0.996   3.356  0.3770 -0.0075  0.0927
  256ETH     CH 2297   5.589   0.930   3.449  0.0626  0.1880 -0.0497
  256ETH     CH 2298   5.607   0.983   3.591 -0.1285  0.0382  0.0285
  256ETH     HO 2299   5.633   1.076   3.326 -2.0107 -1.8361 -1.8268
  256ETH     HC 2300   5.486   0.908   3.422  0.2811  0.0298 -0.7638
  256ETH     HC 2301   5.632   0.830   3.449  0.5937  0.3937  2.0961
  256ETH     HC 2302   5.712   0.965   3.612 -0.1546 -0.3218 -0.1364
  256ETH     HC 2303   5.578   1.087   3.602  1.9891  0.4083  2.6525
  256ETH     HC 2304   5.544   0.923   3.658 -1.2947  1.1426 -0.0663
  257ETH     OH 2305   5.309   1.271   0.546 -0.1518 -0.3200 -0.2109
  257ETH     CH 2306   5.229   1.382   0.511  0.5275  0.3126  0.2163
  257ETH     CH 2307   5.264   1.436   0.372  0.7942  0.0264  0.1706
  257ETH     HO 2308   5.291   1.208   0.478 -1.4834 -0.3194  0.1235
  257ETH     HC 2309   5.127   1.344   0.503  0.5525  0.4438 -0.8302
  257ETH     HC 2310   5.223   1.454   0.593 -0.7338  0.4577  0.0066
  257ETH     HC 2311   5.278   1.348   0.310  0.0367  0.4374 -0.5768
  257ETH     HC 2312   5.191   1.511   0.341 -0.3194 -0.7789  0.8008
  257ETH     HC 2313   5.367   1.473   0.374  1.2479 -1.2265  0.9475
  258ETH     OH 2314   0.839   4.637   2.797 -0.0884  0.0554  0.0051
  258ETH     CH 2315   0.844   4.758   2.870 -0.2253  0.4427 -0.6194
  258ETH     CH 2316   0.988   4.772   2.918 -0.1509  0.0068 -0.7113
  258ETH     HO 2317   0.849   4.564   2.856  0.7872 -1.3787 -1.8387
  258ETH     HC 2318   0.816   4.841   2.805  0.5410  1.5708  0.4790
  258ETH     HC 2319   0.778   4.742   2.955  0.8238 -0.0545  0.1116
  258ETH     HC 2320   1.065   4.734   2.850  0.1270  0.3383 -0.5855
  258ETH     HC 2321   1.008   4.866   2.969 -0.0478  0.5637 -1.7512
  258ETH     HC 2322   0.998   4.709   3.006 -2.4123  0.6107 -0.0125
  259ETH     OH 2323   1.807   1.315   2.190 -0.4033 -0.1752 -0.2072
  259ETH     CH 2324   1.858   1.196   2.245 -0.1937 -0.0448 -0.1204
  259ETH     CH 2325   2.011   1.198   2.236 -0.1977  0.3531 -0.1251
  259ETH     HO 2326   1.806   1.305   2.096 -0.9930  1.4254 -0.3881
  259ETH     HC 2327   1.824   1.192   2.348  0.3645  0.7921  0.1002
  259ETH     HC 2328   1.817   1.110   2.192  0.0917 -0.3574  0.1676
  259ETH     HC 2329   2.058   1.136   2.312 -0.1769  1.0634  0.4471
  259ETH     HC 2330   2.046   1.160   2.140  1.0928 -1.2745  0.9589
  259ETH     HC 2331   2.059   1.295   2.240 -0.3842  0.5044 -1.6121
  260ETH     OH 2332   5.152   6.258   5.345  0.5747 -0.0620 -0.1771
  260ETH     CH 2333   5.125   6.370   5.426  0.0915 -0.4303  0.1716
  260ETH     CH 2334   5.026   6.329   5.536 -0.2605  0.3989  0.1666
  260ETH     HO 2335   5.240   6.275   5.315  0.5104 -1.3451 -1.1448
  260ETH     HC 2336   5.213   6.405   5.480 -0.7765  1.2191  0.5672
  260ETH     HC 2337   5.094   6.456   5.367 -1.9630 -2.1224 -1.3372
  260ETH     HC 2338   4.943   6.271   5.496  1.1452 -0.0710 -2.2072
  260ETH     HC 2339   5.079   6.263   5.604 -0.8558 -2.9838 -2.4895
  260ETH     HC 2340   4.985   6.413   5.591 -0.3120  0.2307  0.3837
  261ETH     OH 2341   2.056   4.722   5.688  0.6622 -0.2591  0.1558
  261ETH     CH 2342   2.102   4.767   5.563  0.3916  0.5018  0.3251
  261ETH     CH 2343   2.032   4.900   5.535 -0.6473 -0.2479 -0.6646
  261ETH     HO 2344   2.082   4.632   5.701  0.6005 -0.2663  0.2403
  261ETH     HC 2345   2.210   4.782   5.573  0.3605  0.2812  1.0578
  261ETH     HC 2346   2.087   4.698   5.480 -0.1920  0.3788  0.5300
  261ETH     HC 2347   2.096   4.949   5.462 -0.0998  0.0303  0.0011
  261ETH     HC 2348   1.928   4.883   5.506 -0.5158 -3.1802  0.3733
  261ETH     HC 2349   2.019   4.967   5.620  1.7585 -1.1049  0.4330
  262ETH     OH 2350   3.052   4.951   2.154 -0.1651 -0.4711 -0.0341
  262ETH     CH 2351   3.049   5.089   2.128  0.4111 -0.3838  0.3562
  262ETH     CH 2352   2.976   5.169   2.236  0.3420 -0.2400  0.2047
  262ETH     HO 2353   3.107   4.942   2.230  2.3720  0.9650 -1.6054
  262ETH     HC 2354   3.153   5.122   2.124 -0.7175  3.3538 -0.6009
  262ETH     HC 2355   3.002   5.100   2.030 -1.1988 -1.1122  1.0348
  262ETH     HC 2356   2.997   5.275   2.222 -0.5351 -0.0839  0.0423
  262ETH     HC 2357   2.873   5.137   2.252  1.0310 -2.5955  0.0302
  262ETH     HC 2358   3.019   5.138   2.331 -0.8359 -0.4212  0.6825
  263ETH     OH 2359   1.333   1.011   4.603  0.5862  0.3995 -0.1103
  263ETH     CH 2360   1.296   1.000   4.739  0.1628  0.4685 -0.2173
  263ETH     CH 2361   1.406   0.926   4.816 -0.0400  0.4681  0.0696
  263ETH     HO 2362   1.265   1.059   4.558  0.2781  2.1195  2.1067
  263ETH     HC 2363   1.276   1.099   4.779 -2.8635  0.1005 -0.7075
  263ETH     HC 2364   1.205   0.942   4.756 -0.2363  1.6068  1.6600
  263ETH     HC 2365   1.385   0.910   4.922  1.1294  0.0975  0.2554
  263ETH     HC 2366   1.416   0.829   4.769  2.5453  1.1807 -0.8960
  263ETH     HC 2367   1.502   0.976   4.801  0.1256  0.4646  1.0781
  264ETH     OH 2368   1.664   2.798   0.753 -0.1718  0.0298 -0.1735
  264ETH     CH 2369   1.796   2.790   0.703 -0.1887 -0.0695 -0.2013
  264ETH     CH 2370   1.779   2.749   0.557 -0.2213  0.1978 -0.2726
  264ETH     HO 2371   1.677   2.815   0.845  1.7971 -0.6637 -0.3080
  264ETH     HC 2372   1.859   2.878   0.709 -0.9539  0.4251  0.8049
  264ETH     HC 2373   1.848   2.710   0.756  1.9946  1.3016 -0.2538
  264ETH     HC 2374   1.866   2.720   0.499 -1.0397 -0.0797 -1.3849
  264ETH     HC 2375   1.708   2.667   0.542  1.6395 -1.0758 -2.3575
  264ETH     HC 2376   1.740   2.837   0.507  0.6489  0.9925  0.4450
  265ETH     OH 2377   2.643   5.715   0.683  0.3492  0.1409  0.3211
  265ETH     CH 2378   2.610   5.778   0.805 -0.5759 -0.4846  0.3896
  265ETH     CH 2379   2.689   5.728   0.926 -0.7857 -0.7498  0.4191
  265ETH     HO 2380   2.590   5.737   0.608 -2.6254 -1.2749  1.9324
  265ETH     HC 2381   2.629   5.885   0.801  3.1944 -1.1489 -1.0443
  265ETH     HC 2382   2.505   5.760   0.830 -0.7132  2.3757  1.9761
  265ETH     HC 2383   2.701   5.810   0.997 -0.1278 -1.5274  1.1966
  265ETH     HC 2384   2.656   5.633   0.967  3.1086 -1.4487  2.1551
  265ETH     HC 2385   2.789   5.710   0.886 -0.6411  1.3829 -0.2461
  266ETH     OH 2386   1.558   1.882   5.990 -0.0208  0.1925  0.6083
  266ETH     CH 2387   1.547   2.023   5.985 -0.4250  0.1478  0.2211
  266ETH     CH 2388   1.445   2.057   5.876 -0.3438 -0.4789 -0.0530
  266ETH     HO 2389   1.537   1.848   6.076  0.6434 -1.2022  0.2234
  266ETH     HC 2390   1.509   2.068   6.076  2.2089  1.4424  0.7043
  266ETH     HC 2391   1.645   2.062   5.957 -0.3550 -0.8064 -0.8931
  266ETH     HC 2392   1.429   2.164   5.875  0.2744 -0.3892 -0.5493
  266ETH     HC 2393   1.480   2.027   5.777  4.1344  0.6861  1.0641
  266ETH     HC 2394   1.349   2.008   5.894 -1.4237  0.3206 -3.2555
  267ETH     OH 2395   3.143   5.425   6.090 -0.7621  0.2571 -0.3490
  267ETH     CH 2396   3.194   5.450   6.219  0.1071  0.0042 -0.6426
  267ETH     CH 2397   3.071   5.446   6.309  0.8063 -0.2545  0.3071
  267ETH     HO 2398   3.116   5.335   6.085 -1.1119  0.2808  0.9275
  267ETH     HC 2399   3.269   5.374   6.243  2.3829  1.2650 -3.3826
  267ETH     HC 2400   3.249   5.543   6.229 -1.5418  0.8162  1.2802
  267ETH     HC 2401   3.096   5.451   6.415  1.6679  0.0334  0.0939
  267ETH     HC 2402   2.997   5.522   6.283 -0.6283 -1.1552  1.6381
  267ETH     HC 2403   3.021   5.351   6.289  0.4908 -0.3712  1.5782
  268ETH     OH 2404   6.068   1.552   2.710 -0.0256 -0.3034  0.1491
  268ETH     CH 2405   6.066   1.481   2.588 -0.3435  1.1323 -0.6938
  268ETH     CH 2406   5.936   1.518   2.517 -0.7951  0.1916 -0.3610
  268ETH     HO 2407   6.033   1.491   2.773 -1.3205 -0.9482 -1.1544
  268ETH     HC 2408   6.154   1.506   2.529  0.4667  0.3870  0.1745
  268ETH     HC 2409   6.054   1.374   2.605  1.7693  1.1011  0.7865
  268ETH     HC 2410   5.933   1.626   2.524 -0.8846  0.2919 -1.6745
  268ETH     HC 2411   5.928   1.502   2.409  0.3142  1.4160 -0.6404
  268ETH     HC 2412   5.846   1.476   2.563  0.0227 -0.3944  0.7334
  269ETH     OH 2413   1.023   0.163   3.934  0.0598  0.1590 -0.0861
  269ETH     CH 2414   1.018   0.304   3.923  0.1812  0.1661 -0.0487
  269ETH     CH 2415   1.059   0.376   4.052 -0.2452  0.6431 -0.1774
  269ETH     HO 2416   0.992   0.123   3.855  0.6007 -0.9826  0.2673
  269ETH     HC 2417   1.096   0.344   3.858 -0.4828  2.2768  0.4225
  269ETH     HC 2418   0.920   0.339   3.894 -0.1910 -0.5271  0.3456
  269ETH     HC 2419   1.020   0.331   4.143  1.2544 -0.2404  0.0612
  269ETH     HC 2420   1.167   0.372   4.068 -0.6030  0.4386  2.4783
  269ETH     HC 2421   1.028   0.480   4.051  0.0903  0.7527  0.5773
  270ETH     OH 2422   4.510   1.351   6.198 -0.0072  0.2084  0.0660
  270ETH     CH 2423   4.540   1.275   6.083  0.2107  0.0286  0.2417
  270ETH     CH 2424   4.410   1.203   6.048  0.4619 -0.5534  0.4911
  270ETH     HO 2425   4.581   1.403   6.232 -0.1582  1.4284 -1.4700
  270ETH     HC 2426   4.563   1.345   6.003 -0.2020 -0.5239 -0.3588
  270ETH     HC 2427   4.620   1.202   6.100  0.8220  0.6963  0.2722
  270ETH     HC 2428   4.393   1.124   6.121  0.3419 -0.3847  0.6485
  270ETH     HC 2429   4.323   1.270   6.051  0.5845 -0.3069 -1.1162
  270ETH     HC 2430   4.423   1.162   5.948  0.1871 -2.7491  1.3323
  271ETH     OH 2431   0.224   5.229   4.172  0.3233  0.0325  0.3890
  271ETH     CH 2432   0.193   5.118   4.091  0.4851  0.2442  0.0365
  271ETH     CH 2433   0.132   5.022   4.192 -0.0418  0.6974  0.1491
  271ETH     HO 2434   0.275   5.289   4.119 -1.0061  0.5659 -0.3017
  271ETH     HC 2435   0.113   5.127   4.018  1.3405 -0.2048 -0.9590
  271ETH     HC 2436   0.284   5.077   4.046  0.5202  1.8171 -1.3830
  271ETH     HC 2437   0.067   5.078   4.259 -0.8816  0.2451 -0.2798
  271ETH     HC 2438   0.083   4.930   4.159  1.5296  0.1089 -0.5948
  271ETH     HC 2439   0.215   4.984   4.251  0.1273  0.5816 -0.1645
  272ETH     OH 2440   4.811   0.681   0.028 -0.5169  0.0260 -0.2523
  272ETH     CH 2441   4.785   0.577   0.119 -0.1272  0.2852  0.1517
  272ETH     CH 2442   4.785   0.449   0.036  0.7137  0.3976 -0.0250
  272ETH     HO 2443   4.740   0.675  -0.035  0.9072  0.1214 -1.9131
  272ETH     HC 2444   4.853   0.579   0.205 -0.7332 -2.8291  0.7671
  272ETH     HC 2445   4.687   0.588   0.167 -0.9154  1.3496 -1.6588
  272ETH     HC 2446   4.883   0.425  -0.006  0.3842  0.1466 -0.6597
  272ETH     HC 2447   4.756   0.376   0.111  2.9558 -0.3019  0.1953
  272ETH     HC 2448   4.706   0.454  -0.039 -0.1688 -0.2883  0.8509
  273ETH     OH 2449   4.764   3.242   3.543  0.6591  0.5233  0.2199
  273ETH     CH 2450   4.623   3.245   3.528  0.6869  0.0726 -0.1161
  273ETH     CH 2451   4.548   3.191   3.649 -0.3656 -0.1548 -0.8608
  273ETH     HO 2452   4.806   3.288   3.472  1.5183 -0.2625  0.2156
  273ETH     HC 2453   4.586   3.344   3.502 -1.2931 -0.6803 -0.2397
  273ETH     HC 2454   4.599   3.176   3.447  0.8531  0.5786 -0.6007
  273ETH     HC 2455   4.599   3.098   3.676  0.5412  0.6183  0.1742
  273ETH     HC 2456   4.553   3.255   3.738 -5.0818 -1.4943  0.4988
  273ETH     HC 2457   4.446   3.172   3.615 -0.7174  0.4145 -0.1316
  274ETH     OH 2458   4.099   5.846   2.148  0.4773 -0.2625  0.1532
  274ETH     CH 2459   3.977   5.911   2.120  0.5762 -0.1166  0.0545
  274ETH     CH 2460   3.859   5.819   2.153  0.3909  0.0639 -0.1020
  274ETH     HO 2461   4.159   5.864   2.077  0.6726  0.0811  0.4045
  274ETH     HC 2462   3.967   6.002   2.179  0.3654 -1.4802  2.2010
  274ETH     HC 2463   3.991   5.946   2.018  0.0102 -1.8277 -0.6390
  274ETH     HC 2464   3.864   5.727   2.094  0.4206  0.5297 -0.8348
  274ETH     HC 2465   3.839   5.773   2.250 -2.1738  1.1275 -0.1017
  274ETH     HC 2466   3.765   5.865   2.122 -0.2312  0.6204  2.5431
  275ETH     OH 2467   5.142   5.923   4.272  0.1494 -0.0476 -0.1983
  275ETH     CH 2468   5.162   5.805   4.198 -0.1584 -0.1506 -0.1170
  275ETH     CH 2469   5.247   5.717   4.289  0.9609  0.8833 -0.1469
  275ETH     HO 2470   5.082   5.972   4.216 -0.2314 -1.7551 -1.3149
  275ETH     HC 2471   5.075   5.753   4.158 -0.1310  0.9609 -1.7117
  275ETH     HC 2472   5.218   5.814   4.105  1.2541 -1.5899  0.5677
  275ETH     HC 2473   5.251   5.609   4.270  1.3830  0.9342 -0.3603
  275ETH     HC 2474   5.353   5.739   4.276  0.9954  0.4958 -0.5473
  275ETH     HC 2475   5.203   5.716   4.389 -1.5374  0.9522 -1.2094
  276ETH     OH 2476   5.289   1.775   4.603 -0.1669 -0.1810  0.3663
  276ETH     CH 2477   5.304   1.889   4.684 -0.2542 -0.0778  0.2393
  276ETH     CH 2478   5.166   1.950   4.709 -0.0374  0.3864  0.3140
  276ETH     HO 2479   5.365   1.721   4.618 -1.0288 -1.2823  0.8120
  276ETH     HC 2480   5.339   1.857   4.783  0.3103 -3.0205 -0.8716
  276ETH     HC 2481   5.376   1.961   4.646 -1.6420  0.0582 -2.1944
  276ETH     HC 2482   5.117   1.971   4.614 -1.8962  1.3503  1.4561
  276ETH     HC 2483   5.104   1.878   4.762  0.3530 -0.7429 -0.7329
  276ETH     HC 2484   5.176   2.047   4.758  1.3901  0.4426 -0.0586
  277ETH     OH 2485   5.612   2.814   1.549 -0.0399  0.5488  0.6419
  277ETH     CH 2486   5.753   2.821   1.564  0.1377 -0.0308 -0.7195
  277ETH     CH 2487   5.798   2.675   1.563  0.3558  0.0254  0.2342
  277ETH     HO 2488   5.583   2.902   1.570 -0.1952  1.2577 -2.4212
  277ETH     HC 2489   5.809   2.885   1.495 -0.6178  1.1185 -0.2921
  277ETH     HC 2490   5.774   2.863   1.663 -1.1638  0.8477 -0.7931
  277ETH     HC 2491   5.905   2.684   1.544  0.3393  1.7523  0.8688
  277ETH     HC 2492   5.786   2.622   1.657  2.4332  0.3432  0.6979
  277ETH     HC 2493   5.765   2.621   1.475 -2.7155  1.6643  0.3118
  278ETH     OH 2494   5.483   3.896   2.866 -0.2122  0.2197  0.1355
  278ETH     CH 2495   5.348   3.927   2.891 -0.2678 -0.0017  0.1057
  278ETH     CH 2496   5.262   3.805   2.853  0.4380 -0.4636 -0.0258
  278ETH     HO 2497   5.521   3.871   2.949 -0.4832 -1.1086 -0.1195
  278ETH     HC 2498   5.330   3.954   2.995 -0.4976 -2.5122  0.7714
  278ETH     HC 2499   5.321   4.008   2.824  0.2875  0.2426  0.1778
  278ETH     HC 2500   5.258   3.814   2.745 -0.4156  1.7697  0.1632
  278ETH     HC 2501   5.303   3.712   2.891 -1.1677 -1.0125  0.4045
  278ETH     HC 2502   5.158   3.813   2.885  0.9173 -0.1074  1.5071
  279ETH     OH 2503   2.096   0.338   1.556 -0.1684 -0.4500  0.0614
  279ETH     CH 2504   2.207   0.253   1.575  0.6915  0.6069 -0.2380
  279ETH     CH 2505   2.247   0.239   1.722 -0.2858  0.4613  0.0167
  279ETH     HO 2506   2.062   0.366   1.640 -3.5886 -0.8396 -1.0865
  279ETH     HC 2507   2.182   0.157   1.529  1.2553  0.6740 -0.6876
  279ETH     HC 2508   2.291   0.304   1.529 -0.3586  2.2487 -0.3859
  279ETH     HC 2509   2.186   0.161   1.768  0.0469 -0.3998 -0.9815
  279ETH     HC 2510   2.352   0.212   1.718  0.1372  1.8004  1.6260
  279ETH     HC 2511   2.244   0.334   1.774 -0.1837  1.2606 -1.4070
  280ETH     OH 2512   6.016   2.611   3.318  0.3258  0.6512 -0.0482
  280ETH     CH 2513   5.931   2.623   3.430 -0.0587 -0.0602 -0.2613
  280ETH     CH 2514   5.937   2.498   3.518  0.4842  0.3719  0.3176
  280ETH     HO 2515   6.104   2.638   3.339  0.3427  0.8040 -0.3168
  280ETH     HC 2516   5.958   2.708   3.493 -1.3877  0.4870 -0.4066
  280ETH     HC 2517   5.832   2.640   3.389 -0.1549  2.2021  0.8564
  280ETH     HC 2518   5.883   2.514   3.612 -0.0597  0.3002  0.0207
  280ETH     HC 2519   5.897   2.409   3.469  2.1234 -0.3560  0.2912
  280ETH     HC 2520   6.039   2.477   3.551  0.2569  0.4489  1.0851
  281ETH     OH 2521   0.859   6.176   5.037  0.2115 -0.0815 -0.2111
  281ETH     CH 2522   0.842   6.080   5.138  0.0521  0.7208  0.5334
  281ETH     CH 2523   0.705   6.108   5.200 -0.4177 -0.3688 -0.0063
  281ETH     HO 2524   0.949   6.177   5.009  1.0912 -2.1458  2.3767
  281ETH     HC 2525   0.855   5.981   5.095  2.2868  1.0362  0.4261
  281ETH     HC 2526   0.918   6.100   5.214  3.9664 -0.5811 -2.8466
  281ETH     HC 2527   0.687   6.067   5.299 -5.0029  1.0903 -0.1075
  281ETH     HC 2528   0.670   6.211   5.198 -1.2121 -0.6474 -1.2408
  281ETH     HC 2529   0.632   6.059   5.135 -0.1635  0.0586 -0.6299
  282ETH     OH 2530   3.543   1.071   4.350 -0.2809  0.1179  0.2673
  282ETH     CH 2531   3.530   0.942   4.296  0.3729  0.1393  0.0496
  282ETH     CH 2532   3.566   0.945   4.148 -0.2870 -0.0318 -0.1165
  282ETH     HO 2533   3.637   1.085   4.346 -0.2534 -0.0581  0.3112
  282ETH     HC 2534   3.589   0.866   4.348 -0.7031 -0.5131  0.3367
  282ETH     HC 2535   3.423   0.923   4.307  0.4122 -0.5871 -0.7765
  282ETH     HC 2536   3.502   1.006   4.084 -1.1842 -0.6421  0.1977
  282ETH     HC 2537   3.665   0.988   4.131 -1.5231  2.9556 -0.0459
  282ETH     HC 2538   3.562   0.847   4.101 -1.4777  0.5403 -1.2223
  283ETH     OH 2539   5.890   4.437   1.201 -0.0201 -0.0502  0.1559
  283ETH     CH 2540   5.811   4.472   1.313  0.5419  0.3147  0.4450
  283ETH     CH 2541   5.762   4.615   1.285 -0.3750 -0.0566  0.1253
  283ETH     HO 2542   5.950   4.368   1.225 -1.8706 -1.3247  1.2482
  283ETH     HC 2543   5.732   4.398   1.323 -0.6435  1.4763 -0.0377
  283ETH     HC 2544   5.872   4.470   1.402 -0.4668  1.9127  1.2059
  283ETH     HC 2545   5.838   4.692   1.299  0.7277 -1.3001  1.1454
  283ETH     HC 2546   5.692   4.615   1.201  0.3270  1.3721 -0.4642
  283ETH     HC 2547   5.694   4.637   1.367 -1.8245 -2.3034 -0.4186
  284ETH     OH 2548   5.163   3.369   3.965  0.0804 -0.5930  0.5572
  284ETH     CH 2549   5.299   3.357   3.926 -0.0011 -0.1193  0.1257
  284ETH     CH 2550   5.383   3.472   3.983  0.0941 -0.2568  0.2640
  284ETH     HO 2551   5.124   3.453   3.947 -1.1524 -1.3088 -0.1911
  284ETH     HC 2552   5.333   3.258   3.956  1.2759 -0.5089 -2.5134
  284ETH     HC 2553   5.307   3.370   3.818  0.8959  1.1802  0.3310
  284ETH     HC 2554   5.326   3.564   3.973 -0.2000 -0.3478  1.0736
  284ETH     HC 2555   5.389   3.451   4.090 -1.3313  1.1631  0.6390
  284ETH     HC 2556   5.485   3.474   3.943  0.2564  2.0916  0.7330
  285ETH     OH 2557   6.265   6.013   1.724  0.2377 -0.1044 -0.6660
  285ETH     CH 2558   6.182   5.959   1.622  0.2898 -0.5715 -0.4651
  285ETH     CH 2559   6.064   5.889   1.688  0.4999  0.1405  0.6839
  285ETH     HO 2560   6.294   5.938   1.773  0.6324 -2.1484 -3.8176
  285ETH     HC 2561   6.152   6.049   1.567 -0.5970 -0.4049  0.2768
  285ETH     HC 2562   6.228   5.898   1.544  0.5046 -1.1501  0.1123
  285ETH     HC 2563   5.985   5.867   1.616  0.1264  1.1396  0.7796
  285ETH     HC 2564   6.099   5.801   1.743 -0.4669 -0.7916 -0.1554
  285ETH     HC 2565   6.010   5.959   1.752 -1.2120  0.8373 -1.4806
  286ETH     OH 2566   3.772   2.994   2.707 -0.1341  0.2999  0.7507
  286ETH     CH 2567   3.646   3.029   2.653 -0.0800 -0.2647  0.2585
  286ETH     CH 2568   3.632   3.181   2.649  0.0712 -0.2407  0.5778
  286ETH     HO 2569   3.763   2.989   2.801  2.0638  2.1398  1.0964
  286ETH     HC 2570   3.629   2.965   2.567  0.4013 -1.2514  0.8816
  286ETH     HC 2571   3.577   2.980   2.722 -2.5032  0.3508 -1.6900
  286ETH     HC 2572   3.531   3.213   2.624  0.1648  0.1932  0.7463
  286ETH     HC 2573   3.660   3.224   2.745  2.5465 -0.9976  0.2359
  286ETH     HC 2574   3.708   3.230   2.588  0.0439 -1.0286 -0.1028
  287ETH     OH 2575   2.881   0.850   6.280 -0.2327  0.1459  0.2579
  287ETH     CH 2576   2.963   0.747   6.231 -0.2902  0.1081  0.2411
  287ETH     CH 2577   3.060   0.696   6.338 -0.1557  0.1551  0.1428
  287ETH     HO 2578   2.928   0.931   6.296 -1.2781  0.5525  1.3965
  287ETH     HC 2579   2.903   0.665   6.193  1.4182 -0.1623 -2.0112
  287ETH     HC 2580   3.025   0.779   6.147 -0.3758  0.2351  0.2278
  287ETH     HC 2581   3.028   0.665   6.438  2.4621 -0.7014  0.7406
  287ETH     HC 2582   3.111   0.611   6.293  1.2086  1.2690 -0.4370
  287ETH     HC 2583   3.137   0.769   6.362 -0.3886 -0.5643  3.2937
  288ETH     OH 2584   5.905   2.534   0.016 -0.6565 -0.1940  0.2620
  288ETH     CH 2585   5.870   2.502  -0.117  0.2059 -0.2828  0.0565
  288ETH     CH 2586   5.799   2.367  -0.128 -0.0835 -0.1579  0.3818
  288ETH     HO 2587   5.840   2.495   0.073 -1.7186 -0.6526 -1.2154
  288ETH     HC 2588   5.821   2.577  -0.178 -0.4662  1.0177  2.1630
  288ETH     HC 2589   5.962   2.485  -0.174 -0.3968 -2.3576 -0.3658
  288ETH     HC 2590   5.709   2.366  -0.067 -1.3787 -1.9101 -1.4997
  288ETH     HC 2591   5.760   2.329  -0.222 -0.6431 -0.1392  0.6076
  288ETH     HC 2592   5.862   2.294  -0.077  1.1944  2.0527  2.0474
  289ETH     OH 2593   2.121   5.656   5.604  0.2318 -0.1429 -0.1839
  289ETH     CH 2594   2.254   5.702   5.611 -0.0080  0.4985  0.2501
  289ETH     CH 2595   2.346   5.580   5.621 -0.4527  0.1687  0.3348
  289ETH     HO 2596   2.081   5.711   5.670 -1.4276 -1.7226  0.1664
  289ETH     HC 2597   2.270   5.766   5.525 -0.2163  0.9408  0.5419
  289ETH     HC 2598   2.268   5.758   5.704 -1.3310  0.8167  0.2592
  289ETH     HC 2599   2.441   5.629   5.602 -0.9936  1.1329  0.0751
  289ETH     HC 2600   2.357   5.536   5.720 -1.5155  0.5763  0.6410
  289ETH     HC 2601   2.337   5.513   5.535 -0.4452  0.4255  0.1362
  290ETH     OH 2602   4.015   5.913   3.692 -0.9459  0.4983  0.1701
  290ETH     CH 2603   3.907   5.942   3.607 -0.5355  0.0983 -0.4879
  290ETH     CH 2604   3.847   5.814   3.548 -0.0889 -0.4915  0.3263
  290ETH     HO 2605   4.061   5.995   3.702  2.3880 -0.9806 -2.0711
  290ETH     HC 2606   3.831   5.990   3.669 -0.9078 -0.6302 -0.3777
  290ETH     HC 2607   3.936   6.021   3.537  0.8839 -0.6792 -0.8079
  290ETH     HC 2608   3.803   5.758   3.630  1.1536 -3.1884 -0.7960
  290ETH     HC 2609   3.780   5.840   3.466  1.0245 -0.4696 -0.5913
  290ETH     HC 2610   3.921   5.749   3.502  2.2319  1.8429  0.5888
  291ETH     OH 2611   1.203   4.379   1.873 -0.2193 -0.5032  0.1838
  291ETH     CH 2612   1.224   4.347   1.738  0.1872  0.2841  0.0572
  291ETH     CH 2613   1.350   4.263   1.714 -0.0806 -0.2541  0.5362
  291ETH     HO 2614   1.280   4.426   1.902  0.2249 -1.7697  1.0785
  291ETH     HC 2615   1.135   4.295   1.701 -1.1111  1.3755  1.5909
  291ETH     HC 2616   1.236   4.438   1.679  0.5266  1.3888  1.8135
  291ETH     HC 2617   1.378   4.269   1.609  2.2817 -0.0524  1.1473
  291ETH     HC 2618   1.432   4.311   1.766  2.6911 -2.8212 -1.3175
  291ETH     HC 2619   1.339   4.157   1.735  0.3675 -0.9065 -2.3596
  292ETH     OH 2620   5.560   3.730   1.446 -0.4206  0.0212 -0.2380
  292ETH     CH 2621   5.660   3.813   1.391  0.2267 -0.5391  0.0861
  292ETH     CH 2622   5.698   3.770   1.249  0.3366  0.0893 -0.0754
  292ETH     HO 2623   5.489   3.723   1.384  0.7221 -0.1955 -1.5477
  292ETH     HC 2624   5.615   3.912   1.381 -1.0579 -1.1233 -0.1065
  292ETH     HC 2625   5.749   3.828   1.452  0.8704 -0.9248 -0.7364
  292ETH     HC 2626   5.612   3.748   1.185 -0.7084  0.2013  1.2548
  292ETH     HC 2627   5.756   3.852   1.208  0.8917  0.2079  0.9384
  292ETH     HC 2628   5.761   3.681   1.244 -1.5888 -1.3545  0.5709
  293ETH     OH 2629   4.093   3.151   2.279  0.1757 -0.3208 -0.0277
  293ETH     CH 2630   3.959   3.141   2.322  0.2080 -0.7667 -0.0266
  293ETH     CH 2631   3.878   3.269   2.297  0.4905 -0.5894 -0.0412
  293ETH     HO 2632   4.107   3.164   2.186 -0.7335 -1.9501 -0.4115
  293ETH     HC 2633   3.905   3.057   2.278  0.3892 -1.3149  0.7886
  293ETH     HC 2634   3.965   3.116   2.427  0.0843 -0.7389 -0.0128
  293ETH     HC 2635   3.871   3.288   2.190 -0.8742  1.1289  0.3314
  293ETH     HC 2636   3.781   3.249   2.341  0.7488  0.4925  1.0290
  293ETH     HC 2637   3.926   3.357   2.340 -1.6358  1.7161 -2.2736
  294ETH     OH 2638   0.691   4.684   1.094 -0.2440  0.6318  0.2547
  294ETH     CH 2639   0.735   4.717   0.964 -0.7098  0.1582 -0.0267
  294ETH     CH 2640   0.764   4.867   0.960 -0.0837  0.0438  0.0410
  294ETH     HO 2641   0.766   4.650   1.140 -1.1900 -1.2340  0.4548
  294ETH     HC 2642   0.824   4.659   0.939 -0.1227 -0.0536  2.3475
  294ETH     HC 2643   0.674   4.688   0.879  0.6364 -2.0425 -0.2768
  294ETH     HC 2644   0.828   4.886   0.873  1.0650 -2.0735  0.3988
  294ETH     HC 2645   0.671   4.925   0.964  0.8245  1.4276  1.4112
  294ETH     HC 2646   0.819   4.905   1.046  0.6254 -1.2806  0.1733
  295ETH     OH 2647   2.215   3.546   0.674  0.0746 -0.2292  0.2211
  295ETH     CH 2648   2.221   3.409   0.641 -0.2922 -0.1580 -0.1530
  295ETH     CH 2649   2.366   3.365   0.663 -0.2139  0.0648 -0.2165
  295ETH     HO 2650   2.247   3.552   0.762 -1.5316  0.8772  0.7622
  295ETH     HC 2651   2.155   3.356   0.709  0.1444 -0.0484  0.3611
  295ETH     HC 2652   2.199   3.393   0.535 -0.3765 -1.6093  0.0759
  295ETH     HC 2653   2.428   3.450   0.635 -2.4031  0.9016 -2.6522
  295ETH     HC 2654   2.397   3.354   0.767 -1.2484  0.6529  0.1687
  295ETH     HC 2655   2.400   3.284   0.598 -0.2590  0.2016 -0.4096
  296ETH     OH 2656   5.894   5.115   1.468 -0.4982  0.4409 -0.1207
  296ETH     CH 2657   5.796   5.077   1.375 -0.6444  0.0543  0.1881
  296ETH     CH 2658   5.805   5.172   1.256 -0.0390 -0.1342  0.0826
  296ETH     HO 2659   5.909   5.034   1.514  0.4586  0.7511  0.1331
  296ETH     HC 2660   5.812   4.976   1.338  0.9860 -0.0021  1.0367
  296ETH     HC 2661   5.698   5.080   1.424  0.8556  0.1115  3.3216
  296ETH     HC 2662   5.782   5.272   1.293 -0.2649 -0.6731  1.4333
  296ETH     HC 2663   5.905   5.178   1.213  0.0389 -0.6280  0.1976
  296ETH     HC 2664   5.721   5.161   1.187 -2.1884  2.7403  2.1124
  297ETH     OH 2665   3.652   2.726   2.099 -0.4648  0.3760  0.1102
  297ETH     CH 2666   3.726   2.844   2.119 -0.0309  0.1469 -0.1212
  297ETH     CH 2667   3.634   2.959   2.077 -0.8195 -0.4663 -0.0955
  297ETH     HO 2668   3.714   2.656   2.118  0.1288 -0.4728 -4.4432
  297ETH     HC 2669   3.739   2.851   2.227 -1.9416 -2.1894  0.3211
  297ETH     HC 2670   3.816   2.845   2.059 -0.9123 -0.8830 -1.4871
  297ETH     HC 2671   3.544   2.942   2.135 -1.4855  2.0338 -0.3327
  297ETH     HC 2672   3.679   3.054   2.106 -0.3418 -0.9939  0.9190
  297ETH     HC 2673   3.616   2.944   1.971  0.1800 -0.0235 -0.3400
  298ETH     OH 2674   2.022   0.056   3.289  0.7158 -0.2552 -0.1586
  298ETH     CH 2675   1.967   0.096   3.413  0.9215 -0.2004 -0.0862
  298ETH     CH 2676   1.930   0.244   3.416 -0.7090 -0.6060  0.3340
  298ETH     HO 2677   2.060  -0.027   3.314  2.4705  0.5844 -0.0072
  298ETH     HC 2678   1.881   0.033   3.436 -0.1049  1.0349 -0.5070
  298ETH     HC 2679   2.036   0.072   3.494 -0.5947 -2.6090  0.5360
  298ETH     HC 2680   1.929   0.273   3.521  0.7358 -5.5485  1.8545
  298ETH     HC 2681   2.008   0.304   3.369 -1.7036  0.1259 -0.3933
  298ETH     HC 2682   1.840   0.289   3.373  0.6449  0.8769 -1.0716
  299ETH     OH 2683   5.763   0.605   1.130 -0.0254  0.2568  0.0362
  299ETH     CH 2684   5.688   0.724   1.138 -0.4613 -0.0054 -0.0967
  299ETH     CH 2685   5.760   0.816   1.236 -0.7003  0.2731 -0.1819
  299ETH     HO 2686   5.763   0.578   1.039 -0.2057 -0.7617  0.3242
  299ETH     HC 2687   5.674   0.773   1.041  1.0378 -0.1210 -0.3965
  299ETH     HC 2688   5.588   0.703   1.174 -0.2830  2.6218  2.0554
  299ETH     HC 2689   5.717   0.916   1.237  0.6579  0.8710  1.1879
  299ETH     HC 2690   5.750   0.774   1.336 -2.1157  0.9755 -0.0305
  299ETH     HC 2691   5.862   0.834   1.201 -0.6657 -0.5656 -0.5303
  300ETH     OH 2692   4.966   6.038   4.072  0.5807 -0.4880  0.3509
  300ETH     CH 2693   4.890   6.150   4.111  0.0332 -0.5980 -0.3995
  300ETH     CH 2694   4.993   6.246   4.171  0.5198 -1.0115 -0.5649
  300ETH     HO 2695   4.983   6.052   3.980  0.6698  1.4826  0.6532
  300ETH     HC 2696   4.837   6.196   4.027 -2.3434  4.2922  3.5695
  300ETH     HC 2697   4.810   6.116   4.176 -0.1798 -1.5738 -1.1575
  300ETH     HC 2698   4.961   6.342   4.213  3.7462  1.2431 -2.9941
  300ETH     HC 2699   5.051   6.194   4.247  1.3441  0.5486 -0.1152
  300ETH     HC 2700   5.057   6.286   4.092 -0.2866 -1.5707 -1.5234
  301ETH     OH 2701   4.552   3.280   2.148 -0.0792 -0.2492 -0.0901
  301ETH     CH 2702   4.479   3.365   2.233  0.3940 -0.1317  0.2000
  301ETH     CH 2703   4.364   3.430   2.156  0.3781  0.0365  0.3646
  301ETH     HO 2704   4.616   3.238   2.203  0.8826  0.7511 -0.4301
  301ETH     HC 2705   4.438   3.309   2.317  0.3715 -0.0458  0.2469
  301ETH     HC 2706   4.528   3.455   2.270 -1.7668  0.8257  0.7946
  301ETH     HC 2707   4.299   3.504   2.202 -0.3867  0.5651 -1.5214
  301ETH     HC 2708   4.402   3.473   2.063 -0.5337  0.9639  0.4140
  301ETH     HC 2709   4.292   3.351   2.136  0.3484  0.6197 -2.0083
  302ETH     OH 2710   0.277   1.879   3.900 -0.3536 -0.0566 -0.3901
  302ETH     CH 2711   0.371   1.978   3.865  0.0554 -0.4239 -0.3254
  302ETH     CH 2712   0.349   2.096   3.960 -0.0895 -0.2202 -0.6121
  302ETH     HO 2713   0.306   1.839   3.980 -2.6719  0.4890  0.7687
  302ETH     HC 2714   0.471   1.938   3.886  0.7253  0.9460 -0.8188
  302ETH     HC 2715   0.357   2.002   3.760 -2.4406  0.1660  0.1310
  302ETH     HC 2716   0.365   2.078   4.066  2.0105  0.4118 -0.7937
  302ETH     HC 2717   0.413   2.181   3.937  2.0826 -1.2813  1.3122
  302ETH     HC 2718   0.247   2.134   3.950  0.4165  0.5932 -2.8712
  303ETH     OH 2719   1.041   4.862   0.376  0.2156 -0.3080  0.1236
  303ETH     CH 2720   0.970   4.789   0.473 -0.5125 -0.1589 -0.2979
  303ETH     CH 2721   0.965   4.641   0.435 -0.1728 -0.2734  0.1032
  303ETH     HO 2722   1.130   4.870   0.409 -0.0218 -1.9850  1.2261
  303ETH     HC 2723   1.027   4.789   0.566  0.1672  0.1837 -0.7167
  303ETH     HC 2724   0.875   4.841   0.486  0.6783  1.5958  1.7578
  303ETH     HC 2725   0.933   4.583   0.522  0.7753 -0.5789  0.2564
  303ETH     HC 2726   0.895   4.616   0.356 -0.7788  1.5565  0.0302
  303ETH     HC 2727   1.066   4.610   0.410 -0.4522 -0.6956 -0.5158
  304ETH     OH 2728   2.201   1.176   0.424  0.1997  0.3135  0.1661
  304ETH     CH 2729   2.166   1.181   0.288  0.6936  0.1780  0.0341
  304ETH     CH 2730   2.015   1.206   0.281  0.6370 -0.2236 -0.2055
  304ETH     HO 2731   2.175   1.096   0.467  0.2626  0.5220  0.5927
  304ETH     HC 2732   2.236   1.251   0.241  0.7278 -0.4739 -0.9125
  304ETH     HC 2733   2.199   1.089   0.240  1.6761  0.3069  0.4494
  304ETH     HC 2734   1.977   1.220   0.180 -1.1616  1.0167  0.6357
  304ETH     HC 2735   1.965   1.121   0.328 -0.4883  0.3283 -0.3996
  304ETH     HC 2736   1.992   1.290   0.346  0.9376 -0.9253  0.8246
  305ETH     OH 2737   5.815   3.406   2.755  0.4866  0.6044  0.0686
  305ETH     CH 2738   5.851   3.531   2.810  0.6220  0.3914  0.4688
  305ETH     CH 2739   5.757   3.552   2.929  0.2730  0.1036  0.2461
  305ETH     HO 2740   5.726   3.390   2.726  0.2748 -0.7120  1.3893
  305ETH     HC 2741   5.955   3.541   2.840  0.6106 -0.7282  0.8890
  305ETH     HC 2742   5.829   3.604   2.732  0.8270 -2.7737 -2.6627
  305ETH     HC 2743   5.760   3.648   2.981  1.7886 -0.9326  2.1416
  305ETH     HC 2744   5.655   3.559   2.891 -0.0359 -1.9740  0.6381
  305ETH     HC 2745   5.769   3.467   2.996  3.7773  2.6383  3.0531
  306ETH     OH 2746   5.696   2.261   1.352 -0.4573 -0.3985 -0.4046
  306ETH     CH 2747   5.752   2.148   1.290 -0.2892 -0.2624 -0.5028
  306ETH     CH 2748   5.903   2.149   1.313 -0.4114  0.1116  0.3258
  306ETH     HO 2749   5.693   2.338   1.297 -2.1916  0.3274  0.6594
  306ETH     HC 2750   5.700   2.064   1.337 -1.5803 -0.4361 -2.1813
  306ETH     HC 2751   5.723   2.151   1.185 -0.6857  0.5583 -0.3711
  306ETH     HC 2752   5.925   2.170   1.417  0.1036  1.0461  0.0355
  306ETH     HC 2753   5.936   2.050   1.281  3.2557  1.6907 -1.1601
  306ETH     HC 2754   5.959   2.218   1.249  0.0882 -2.0223 -1.5973
  307ETH     OH 2755   6.270   2.886   3.054 -0.5071  0.0859 -0.3762
  307ETH     CH 2756   6.362   2.974   2.994  0.2496 -0.2272  0.3134
  307ETH     CH 2757   6.480   2.995   3.089  0.2164  0.4420  0.2114
  307ETH     HO 2758   6.188   2.902   3.010 -0.4559  1.2566 -0.0478
  307ETH     HC 2759   6.395   2.941   2.895 -1.1421 -1.8262  0.3554
  307ETH     HC 2760   6.314   3.071   2.986 -0.2599 -0.5891 -1.3217
  307ETH     HC 2761   6.546   2.909   3.079 -1.0784 -0.3473 -2.0315
  307ETH     HC 2762   6.545   3.077   3.058  0.6573  0.0386  0.0536
  307ETH     HC 2763   6.453   3.006   3.194  1.8503 -1.3139  0.8404
  308ETH     OH 2764   4.767   5.740   0.145  0.6070 -0.0510 -0.1928
  308ETH     CH 2765   4.774   5.657   0.259  0.0459 -0.5167 -0.5002
  308ETH     CH 2766   4.687   5.729   0.362  0.3943 -0.2413 -0.3991
  308ETH     HO 2767   4.819   5.697   0.079  1.0926 -0.0502  0.1815
  308ETH     HC 2768   4.743   5.554   0.237  1.0294 -0.6957 -1.0816
  308ETH     HC 2769   4.876   5.644   0.294  0.3916  2.4446 -0.2898
  308ETH     HC 2770   4.581   5.733   0.337 -0.1488 -1.2449  1.6101
  308ETH     HC 2771   4.686   5.680   0.460  2.9719 -1.9677 -1.1802
  308ETH     HC 2772   4.723   5.829   0.386  1.5831 -0.3524 -1.6513
  309ETH     OH 2773   3.374   3.452   2.890  0.2262  0.3726  0.1830
  309ETH     CH 2774   3.387   3.565   2.807 -0.6760  0.3514  0.0131
  309ETH     CH 2775   3.483   3.669   2.864  0.1800 -0.0702 -0.6510
  309ETH     HO 2776   3.291   3.447   2.934 -0.6916  2.6759 -1.1945
  309ETH     HC 2777   3.294   3.616   2.782 -1.5642 -2.0659 -1.8437
  309ETH     HC 2778   3.426   3.522   2.714 -1.8855 -1.3881  0.2794
  309ETH     HC 2779   3.494   3.761   2.808  0.7507  1.7222  2.3041
  309ETH     HC 2780   3.454   3.688   2.967  1.7158 -2.7996  0.3658
  309ETH     HC 2781   3.587   3.636   2.868  0.0650 -0.4564 -0.7649
  310ETH     OH 2782   2.761   3.494   4.683 -0.0138  0.5538 -0.2121
  310ETH     CH 2783   2.889   3.541   4.648  0.2505 -0.1504 -0.1921
  310ETH     CH 2784   2.925   3.464   4.521  0.4539 -0.0111 -0.2202
  310ETH     HO 2785   2.746   3.526   4.770  0.6910 -1.9292  0.8539
  310ETH     HC 2786   2.905   3.649   4.655 -1.7641  0.1636 -0.2529
  310ETH     HC 2787   2.955   3.501   4.725  0.9163  1.3351  0.0301
  310ETH     HC 2788   2.908   3.357   4.532  2.1925 -0.1247  1.6513
  310ETH     HC 2789   2.858   3.503   4.444  0.3268 -0.4101 -0.3113
  310ETH     HC 2790   3.028   3.482   4.490 -0.5492  3.5191 -1.7629
  311ETH     OH 2791   2.284   0.227   0.763 -0.0758 -0.6473  0.0220
  311ETH     CH 2792   2.415   0.246   0.714 -0.1623 -0.3826 -0.1073
  311ETH     CH 2793   2.462   0.113   0.653  0.7042 -0.3178  0.4117
  311ETH     HO 2794   2.228   0.225   0.687 -1.1970 -2.9160  0.8580
  311ETH     HC 2795   2.425   0.324   0.638 -2.5015 -0.7720 -0.8541
  311ETH     HC 2796   2.478   0.265   0.800  2.7339 -0.9561 -2.0123
  311ETH     HC 2797   2.565   0.121   0.618  0.6850  2.2868  0.8107
  311ETH     HC 2798   2.478   0.044   0.736 -2.1258 -1.5381 -0.0082
  311ETH     HC 2799   2.393   0.078   0.576  0.0543  0.8584  0.4476
  312ETH     OH 2800   5.615   0.539   4.151 -0.4061  0.8850 -0.2536
  312ETH     CH 2801   5.748   0.587   4.153  0.2362 -0.8749 -0.1540
  312ETH     CH 2802   5.838   0.504   4.061  0.6668 -0.0392 -0.4862
  312ETH     HO 2803   5.596   0.525   4.059  3.1326  2.4597 -1.3119
  312ETH     HC 2804   5.750   0.690   4.120 -0.4165 -0.2034  1.8629
  312ETH     HC 2805   5.782   0.595   4.256  1.4931  2.6359 -0.7888
  312ETH     HC 2806   5.935   0.551   4.043 -0.1149  1.9286  0.3494
  312ETH     HC 2807   5.849   0.405   4.105 -1.6159  0.4643  1.3080
  312ETH     HC 2808   5.801   0.495   3.959 -0.2637 -0.5730 -0.1068
  313ETH     OH 2809   0.715   3.150   2.278 -0.3476 -0.0921  0.0168
  313ETH     CH 2810   0.832   3.169   2.200 -0.2008 -0.7884  0.0671
  313ETH     CH 2811   0.837   3.091   2.069 -0.1890  0.0918 -0.4566
  313ETH     HO 2812   0.755   3.133   2.362  1.6928  0.4065 -0.8198
  313ETH     HC 2813   0.861   3.272   2.182 -2.2315 -0.2084 -0.0348
  313ETH     HC 2814   0.913   3.130   2.262  0.4687  0.3256 -0.1007
  313ETH     HC 2815   0.840   2.986   2.098 -0.4971  0.9293  2.8202
  313ETH     HC 2816   0.748   3.105   2.008 -1.3867  0.8284  1.4238
  313ETH     HC 2817   0.923   3.114   2.006 -0.0875  0.1725 -0.2893
  314ETH     OH 2818   3.188   2.407   5.578 -0.3445 -0.1571  0.0727
  314ETH     CH 2819   3.195   2.344   5.704 -0.0427 -0.4675 -0.0978
  314ETH     CH 2820   3.316   2.392   5.783 -0.2713  0.2174 -0.1648
  314ETH     HO 2821   3.098   2.402   5.550 -1.4252  1.6306  2.9761
  314ETH     HC 2822   3.109   2.380   5.760  0.2354  0.7119 -0.4217
  314ETH     HC 2823   3.187   2.235   5.702 -1.4853 -0.3684 -0.2979
  314ETH     HC 2824   3.326   2.501   5.792  1.0079  0.2494 -1.7189
  314ETH     HC 2825   3.327   2.343   5.880  0.5243 -1.0529 -0.8876
  314ETH     HC 2826   3.408   2.364   5.731  0.7824 -0.1826  1.8623
  315ETH     OH 2827   4.369   2.673   2.275  0.0668  0.3077  0.7065
  315ETH     CH 2828   4.302   2.551   2.300 -0.1275  0.3910  0.5973
  315ETH     CH 2829   4.322   2.517   2.448  0.0455 -0.2680  0.4223
  315ETH     HO 2830   4.341   2.740   2.336  0.4647 -0.7775  2.0992
  315ETH     HC 2831   4.199   2.551   2.267  0.4646 -1.6808 -1.3829
  315ETH     HC 2832   4.359   2.480   2.241  0.0608 -0.0907  1.3409
  315ETH     HC 2833   4.249   2.565   2.513 -1.1425  0.6048 -1.5294
  315ETH     HC 2834   4.333   2.411   2.471 -1.6019 -0.5566 -0.0501
  315ETH     HC 2835   4.420   2.552   2.481 -0.6599  1.2866  0.9082
  316ETH     OH 2836   5.441   1.555   4.673 -0.0277 -0.5304 -0.1709
  316ETH     CH 2837   5.576   1.551   4.633  0.1248 -0.8215  0.3614
  316ETH     CH 2838   5.592   1.553   4.480 -0.3057  0.8260  0.3249
  316ETH     HO 2839   5.409   1.468   4.689 -0.0248 -0.9651 -2.3515
  316ETH     HC 2840   5.618   1.642   4.677 -2.1091  0.9116 -0.9661
  316ETH     HC 2841   5.624   1.470   4.687 -0.4866 -1.7877 -0.5387
  316ETH     HC 2842   5.545   1.638   4.432  2.6048 -0.0655 -4.3378
  316ETH     HC 2843   5.699   1.572   4.469  0.0623 -1.2552  0.0871
  316ETH     HC 2844   5.572   1.460   4.428 -0.0746  0.2165  1.3059
  317ETH     OH 2845   1.572   0.748   6.031 -0.0084  0.7391 -0.5178
  317ETH     CH 2846   1.707   0.710   6.027 -0.2590 -0.1797 -0.5613
  317ETH     CH 2847   1.793   0.837   6.032 -0.1651 -0.2553 -0.2747
  317ETH     HO 2848   1.531   0.662   6.031  2.1803 -0.3355 -0.0300
  317ETH     HC 2849   1.736   0.635   6.100  1.1255  2.8459  2.1311
  317ETH     HC 2850   1.734   0.667   5.930 -1.6529  1.0908 -1.5323
  317ETH     HC 2851   1.760   0.898   6.117 -2.9357 -1.0302 -0.7311
  317ETH     HC 2852   1.900   0.819   6.032  0.4879  3.1746  0.1442
  317ETH     HC 2853   1.773   0.893   5.941 -0.2264  0.8361  0.3998
  318ETH     OH 2854   5.699   1.662   3.631 -0.3125  0.3438 -0.1190
  318ETH     CH 2855   5.778   1.592   3.537 -0.2578  0.1404  0.0793
  318ETH     CH 2856   5.787   1.445   3.576 -0.1320 -0.0351 -0.6130
  318ETH     HO 2857   5.608   1.635   3.627 -0.5061  1.0888 -1.0546
  318ETH     HC 2858   5.877   1.637   3.544  0.1331 -0.7149  0.0881
  318ETH     HC 2859   5.745   1.613   3.436  0.0252  0.8256  0.1270
  318ETH     HC 2860   5.847   1.412   3.491  0.3196 -1.1080  0.1160
  318ETH     HC 2861   5.831   1.425   3.674  1.0175  1.9432 -0.7153
  318ETH     HC 2862   5.692   1.392   3.569  1.0513 -2.2823 -0.1734
  319ETH     OH 2863   2.051   3.710   2.687  0.5115 -0.0717  0.2958
  319ETH     CH 2864   2.160   3.777   2.747  0.3121  0.3652  0.1696
  319ETH     CH 2865   2.203   3.712   2.878 -0.5141 -0.1717  0.1754
  319ETH     HO 2866   1.976   3.706   2.744 -0.4276 -3.7079 -1.0208
  319ETH     HC 2867   2.238   3.769   2.671  0.3051  1.6982  0.0159
  319ETH     HC 2868   2.144   3.885   2.750  0.9688  0.5502 -2.2142
  319ETH     HC 2869   2.291   3.759   2.921 -1.2482  1.2524  0.1347
  319ETH     HC 2870   2.126   3.709   2.956  1.3150  0.3267  2.0274
  319ETH     HC 2871   2.220   3.605   2.865 -0.4325 -0.1073 -0.2504
  320ETH     OH 2872   2.666   0.433   0.009  0.2802  0.3561  0.4139
  320ETH     CH 2873   2.536   0.379   0.017  0.5885 -0.4612 -0.0752
  320ETH     CH 2874   2.467   0.424   0.146  0.3414  0.2352 -0.4479
  320ETH     HO 2875   2.652   0.526   0.011  0.4183  0.3918 -0.2150
  320ETH     HC 2876   2.484   0.409  -0.073 -1.7855 -3.0512  0.3493
  320ETH     HC 2877   2.539   0.270   0.019  1.5763 -0.4359  0.3000
  320ETH     HC 2878   2.377   0.363   0.160  1.6790 -1.4482  0.9701
  320ETH     HC 2879   2.524   0.408   0.238 -0.1117 -1.4286 -0.4309
  320ETH     HC 2880   2.443   0.530   0.140 -1.2211 -0.1688 -1.6623
  321ETH     OH 2881   4.910   2.382   1.006  0.1217 -0.0787 -0.0608
  321ETH     CH 2882   5.010   2.462   1.065 -0.2909  0.0889  0.4174
  321ETH     CH 2883   4.962   2.607   1.065  0.6357  0.4046 -0.4421
  321ETH     HO 2884   4.875   2.324   1.071 -1.5838  2.3894  1.2865
  321ETH     HC 2885   5.051   2.437   1.162  3.7087  1.2864 -0.8434
  321ETH     HC 2886   5.090   2.449   0.992  0.3659  0.7186  1.0141
  321ETH     HC 2887   4.943   2.652   0.967 -1.7524 -0.2387 -0.2998
  321ETH     HC 2888   4.871   2.617   1.125 -0.1240 -0.0085 -1.5019
  321ETH     HC 2889   5.031   2.679   1.110  1.9279 -0.8366 -0.4211
  322ETH     OH 2890   0.956   1.194   1.630  0.1846  0.2404 -0.0800
  322ETH     CH 2891   0.874   1.244   1.734 -0.3195  0.0631 -0.3942
  322ETH     CH 2892   0.761   1.144   1.758 -0.6805  0.4211 -0.5850
  322ETH     HO 2893   1.004   1.121   1.665 -2.7534 -0.9879  1.5448
  322ETH     HC 2894   0.936   1.268   1.820  0.5900  0.8636 -1.2537
  322ETH     HC 2895   0.822   1.336   1.706  0.5931 -0.1217 -2.8336
  322ETH     HC 2896   0.805   1.049   1.789 -1.1720  0.5590  0.5779
  322ETH     HC 2897   0.702   1.177   1.844 -1.3756  1.1575 -1.3345
  322ETH     HC 2898   0.689   1.121   1.679  0.8360 -1.6104 -1.4190
  323ETH     OH 2899   5.730   5.663   0.854 -0.4109  0.3596 -0.0485
  323ETH     CH 2900   5.716   5.796   0.898  0.4732  0.4139  0.0803
  323ETH     CH 2901   5.828   5.834   0.996  0.6810  0.0543 -0.0191
  323ETH     HO 2902   5.673   5.651   0.779 -0.8402  0.4367  0.2667
  323ETH     HC 2903   5.710   5.855   0.806  0.7924 -1.6026 -1.2491
  323ETH     HC 2904   5.616   5.810   0.940  0.4854  2.6309 -0.5681
  323ETH     HC 2905   5.836   5.764   1.079  0.3358 -0.5113 -0.4534
  323ETH     HC 2906   5.927   5.843   0.951 -0.4533 -1.6883 -3.0274
  323ETH     HC 2907   5.818   5.938   1.028 -2.3164 -0.8036  2.0373
  324ETH     OH 2908   0.927   1.929   0.547  0.2171 -0.0485  0.2856
  324ETH     CH 2909   0.995   1.892   0.429 -0.3529 -0.0771 -0.0322
  324ETH     CH 2910   1.142   1.894   0.468 -0.0957  0.1638 -0.9935
  324ETH     HO 2911   0.834   1.935   0.531  0.1388 -1.1585  0.2986
  324ETH     HC 2912   0.965   1.790   0.406 -2.2892 -0.1504  2.6093
  324ETH     HC 2913   0.967   1.949   0.340  1.4548  1.4281  0.3471
  324ETH     HC 2914   1.165   1.824   0.548 -0.7321  0.8962 -0.1488
  324ETH     HC 2915   1.209   1.868   0.386 -0.2802 -0.6118 -0.8994
  324ETH     HC 2916   1.169   1.994   0.505  1.3067 -0.7673  0.5838
  325ETH     OH 2917   5.381   1.258   3.579 -0.3905  0.4209  0.1527
  325ETH     CH 2918   5.295   1.153   3.617  0.2955 -0.0848  0.3188
  325ETH     CH 2919   5.250   1.188   3.759 -0.0063  1.2453 -0.0981
  325ETH     HO 2920   5.427   1.232   3.500 -1.0118 -2.0436  0.5776
  325ETH     HC 2921   5.206   1.154   3.555  0.1427  1.1546  0.5441
  325ETH     HC 2922   5.346   1.057   3.612  0.7347  0.0858  1.3404
  325ETH     HC 2923   5.333   1.197   3.828 -0.8920  0.5015  1.0762
  325ETH     HC 2924   5.194   1.279   3.781 -0.7503  0.3244  1.9321
  325ETH     HC 2925   5.187   1.107   3.794  1.4717  0.6306  1.1850
  326ETH     OH 2926   2.585   4.837   4.284  0.5771  0.1525  0.3629
  326ETH     CH 2927   2.585   4.699   4.309 -0.0089 -0.0424 -0.6800
  326ETH     CH 2928   2.658   4.627   4.195 -0.2226  0.4743 -1.1416
  326ETH     HO 2929   2.549   4.868   4.366  0.8570 -0.9633  0.9185
  326ETH     HC 2930   2.650   4.700   4.396  0.1603 -3.7474 -0.6524
  326ETH     HC 2931   2.491   4.653   4.339 -0.0837  0.4441 -0.1591
  326ETH     HC 2932   2.760   4.664   4.185 -0.1614  1.0043  1.0518
  326ETH     HC 2933   2.666   4.522   4.223 -3.3117 -0.0768 -2.1218
  326ETH     HC 2934   2.604   4.637   4.101  2.1619 -0.5434 -2.6499
  327ETH     OH 2935   0.866   0.762   6.191 -0.0121  0.0122 -0.3474
  327ETH     CH 2936   0.965   0.861   6.208  0.0684 -0.2720  0.8469
  327ETH     CH 2937   1.093   0.795   6.258  0.5043 -0.3092 -0.3161
  327ETH     HO 2938   0.796   0.818   6.159  2.3627  2.5727 -1.3128
  327ETH     HC 2939   0.971   0.913   6.113  0.2198 -3.0508 -0.7267
  327ETH     HC 2940   0.924   0.924   6.287 -2.0119  1.0434 -1.2056
  327ETH     HC 2941   1.175   0.863   6.283  0.9914  0.4860 -3.7557
  327ETH     HC 2942   1.081   0.722   6.338  0.6074  1.6370  1.4974
  327ETH     HC 2943   1.150   0.746   6.178  2.1742  0.5109  0.3411
  328ETH     OH 2944   4.023   2.270   1.769 -0.2628  0.1635 -0.3312
  328ETH     CH 2945   4.089   2.187   1.676  0.0286  0.3851 -0.3216
  328ETH     CH 2946   4.144   2.263   1.554  0.1499  0.0772 -0.4579
  328ETH     HO 2947   3.941   2.235   1.800  0.7753 -1.3462  0.7923
  328ETH     HC 2948   4.163   2.135   1.737 -0.7686 -1.4454 -0.9144
  328ETH     HC 2949   4.010   2.115   1.658  1.1224 -1.0028  0.3655
  328ETH     HC 2950   4.211   2.345   1.579 -0.7719  1.3205 -1.9780
  328ETH     HC 2951   4.183   2.191   1.482 -2.7890 -0.7308 -1.3357
  328ETH     HC 2952   4.059   2.316   1.512 -0.5147  0.3269  1.1736
  329ETH     OH 2953   6.264   3.061   1.572  0.2354 -0.0680  1.1304
  329ETH     CH 2954   6.233   2.924   1.587 -0.1858 -0.0186  0.7346
  329ETH     CH 2955   6.185   2.863   1.456  0.2180 -0.1691  0.6573
  329ETH     HO 2956   6.307   3.087   1.652 -1.1436  0.9991  1.5435
  329ETH     HC 2957   6.331   2.880   1.606 -0.8139 -2.2981 -1.0907
  329ETH     HC 2958   6.172   2.917   1.678 -2.3035  0.9477 -0.5593
  329ETH     HC 2959   6.264   2.885   1.385  0.7230  0.9446  1.5578
  329ETH     HC 2960   6.172   2.755   1.468 -0.6219 -0.3630 -1.7326
  329ETH     HC 2961   6.088   2.903   1.427  1.1151  1.5202 -0.0386
  330ETH     OH 2962   3.051   1.537   5.735  0.2258  0.3372 -0.0243
  330ETH     CH 2963   3.029   1.450   5.844  0.1967  0.0610 -0.2489
  330ETH     CH 2964   3.069   1.312   5.791 -0.0967 -0.0121 -0.2802
  330ETH     HO 2965   2.987   1.508   5.672 -2.1318  0.7115  2.1456
  330ETH     HC 2966   3.090   1.477   5.931 -0.4565 -2.0716  0.8907
  330ETH     HC 2967   2.923   1.469   5.860 -0.3798 -0.4379 -3.1593
  330ETH     HC 2968   2.993   1.281   5.719 -1.7089 -0.6965  1.6932
  330ETH     HC 2969   3.160   1.321   5.731  0.5391  0.9002  0.8038
  330ETH     HC 2970   3.077   1.227   5.858 -2.0349  0.0058 -0.0150
  331ETH     OH 2971   1.329   1.581   2.832  0.0454 -0.0920  0.1076
  331ETH     CH 2972   1.387   1.608   2.958 -0.3659  0.0913  0.2580
  331ETH     CH 2973   1.379   1.491   3.055 -0.2907 -0.1349 -0.0064
  331ETH     HO 2974   1.374   1.507   2.794  0.0402  0.0526 -0.1802
  331ETH     HC 2975   1.493   1.618   2.934 -0.7468 -0.4866 -1.7722
  331ETH     HC 2976   1.358   1.705   3.000  0.4771 -0.0266  1.1089
  331ETH     HC 2977   1.275   1.462   3.072 -0.1268  0.6802  2.6495
  331ETH     HC 2978   1.425   1.399   3.021  0.7903  0.0845  0.8561
  331ETH     HC 2979   1.412   1.527   3.153 -1.5701  1.2699 -0.0793
  332ETH     OH 2980   5.087   5.371   4.108  0.4678 -0.4025 -0.1068
  332ETH     CH 2981   5.122   5.386   3.972 -0.2534  0.0743 -0.2392
  332ETH     CH 2982   5.272   5.361   3.962 -0.1299  0.7762 -0.1702
  332ETH     HO 2983   4.994   5.357   4.111  0.6709 -1.5427  1.5480
  332ETH     HC 2984   5.078   5.309   3.908  1.5375 -2.5229  1.5334
  332ETH     HC 2985   5.097   5.481   3.925 -3.4989  0.8414  2.8608
  332ETH     HC 2986   5.298   5.345   3.858  1.3674  1.2860  0.1124
  332ETH     HC 2987   5.334   5.446   3.992 -0.9419  1.3615 -0.1507
  332ETH     HC 2988   5.304   5.275   4.021 -1.6559 -0.3778 -0.9932
  333ETH     OH 2989   2.087   2.777   0.771 -0.1959  0.0522  0.1715
  333ETH     CH 2990   2.195   2.848   0.828 -0.5367  0.4133  0.3705
  333ETH     CH 2991   2.198   2.990   0.770 -0.1833  0.2831  0.0646
  333ETH     HO 2992   2.086   2.699   0.823  0.0357 -0.1832 -0.1798
  333ETH     HC 2993   2.170   2.856   0.934 -2.8287 -0.9718 -0.0259
  333ETH     HC 2994   2.287   2.792   0.836  0.4252  1.9007 -0.0447
  333ETH     HC 2995   2.212   3.059   0.853 -0.0922  0.5228 -0.1515
  333ETH     HC 2996   2.259   3.013   0.684  0.4083  1.2121  0.7225
  333ETH     HC 2997   2.094   3.015   0.746  0.2479  1.4974 -0.5840
  334ETH     OH 2998   5.281   1.147   0.807 -0.1310  0.6531  0.6990
  334ETH     CH 2999   5.145   1.114   0.787  0.1972  0.1588 -0.8012
  334ETH     CH 3000   5.135   0.981   0.713  0.8449 -0.3041 -0.0621
  334ETH     HO 3001   5.314   1.201   0.737 -0.5745 -0.2372 -0.2076
  334ETH     HC 3002   5.088   1.089   0.877 -0.5192  1.7970 -0.7854
  334ETH     HC 3003   5.093   1.200   0.745  1.0326  0.3736 -1.3999
  334ETH     HC 3004   5.183   0.895   0.760  0.2652 -1.8839 -2.2634
  334ETH     HC 3005   5.031   0.956   0.697  0.7505 -0.0750  0.1847
  334ETH     HC 3006   5.172   1.004   0.613 -2.2225  1.2566 -0.8685
  335ETH     OH 3007   5.374   2.182   2.935 -0.1524  0.0430  0.1557
  335ETH     CH 3008   5.338   2.237   2.810 -0.3655  0.0207  0.2088
  335ETH     CH 3009   5.342   2.389   2.798 -0.3829  0.0065  0.0297
  335ETH     HO 3010   5.418   2.098   2.934  0.2171  0.2278 -1.8417
  335ETH     HC 3011   5.405   2.202   2.732  0.6487  1.9175  0.1995
  335ETH     HC 3012   5.237   2.207   2.781 -0.7209  0.2281  1.1918
  335ETH     HC 3013   5.286   2.407   2.706 -0.1668  0.3167 -0.0427
  335ETH     HC 3014   5.290   2.434   2.883  3.5958  1.2201  1.9247
  335ETH     HC 3015   5.445   2.416   2.778 -0.2593 -1.0413 -0.7725
  336ETH     OH 3016   4.636   4.335   2.864  0.1333 -0.8659  0.2372
  336ETH     CH 3017   4.567   4.279   2.973 -0.6443  0.2638  0.3304
  336ETH     CH 3018   4.620   4.323   3.110 -0.0208  0.4417  0.0313
  336ETH     HO 3019   4.694   4.265   2.839  1.1879  1.5873 -4.9439
  336ETH     HC 3020   4.463   4.312   2.965 -0.9315 -0.1744  2.0745
  336ETH     HC 3021   4.586   4.174   2.953 -2.0702  0.3804 -1.7639
  336ETH     HC 3022   4.559   4.284   3.191  1.2052  0.7470  1.1029
  336ETH     HC 3023   4.725   4.304   3.129  0.1282  1.5988  0.4239
  336ETH     HC 3024   4.603   4.431   3.117  0.2785  0.4814  0.1603
  337ETH     OH 3025   6.111   3.867   4.070  0.4842 -0.2306  0.0980
  337ETH     CH 3026   6.110   3.964   3.969  0.3558  0.0456  0.3647
  337ETH     CH 3027   6.179   3.913   3.842 -0.1380  0.3865 -0.0444
  337ETH     HO 3028   6.065   3.790   4.039 -0.5396 -0.3742  1.8784
  337ETH     HC 3029   6.009   4.001   3.954 -0.2595 -1.6122  0.3222
  337ETH     HC 3030   6.165   4.052   4.004  0.4662  0.5344 -1.0175
  337ETH     HC 3031   6.220   3.994   3.782  0.8576  1.3649  1.8943
  337ETH     HC 3032   6.265   3.853   3.871  1.3792  1.7235 -1.6581
  337ETH     HC 3033   6.114   3.860   3.774  1.6813 -1.4914 -0.3628
  338ETH     OH 3034   0.314   3.130   5.376 -0.0656 -0.0349 -0.0587
  338ETH     CH 3035   0.174   3.147   5.376 -0.0621 -0.0060 -0.0324
  338ETH     CH 3036   0.142   3.286   5.322 -0.3420 -0.0920 -0.0864
  338ETH     HO 3037   0.346   3.126   5.287 -2.4445 -0.3156 -0.9298
  338ETH     HC 3038   0.134   3.070   5.309  0.8227  0.4657 -1.1158
  338ETH     HC 3039   0.129   3.125   5.473 -1.5846 -0.1779 -0.7678
  338ETH     HC 3040   0.213   3.358   5.362  0.1253 -0.6107  0.0225
  338ETH     HC 3041   0.142   3.297   5.214 -4.3764  0.7083 -0.1078
  338ETH     HC 3042   0.043   3.312   5.362 -0.6569  1.1769 -1.6723
  339ETH     OH 3043   1.945   1.482   1.435  0.8058 -0.2661  0.1425
  339ETH     CH 3044   2.019   1.362   1.422  0.3548 -0.5882  0.5235
  339ETH     CH 3045   2.130   1.382   1.320 -0.4149  0.0011 -0.2078
  339ETH     HO 3046   1.903   1.491   1.351  3.0175 -0.0351 -0.9755
  339ETH     HC 3047   2.058   1.324   1.517 -1.6277  2.4376  2.6730
  339ETH     HC 3048   1.961   1.278   1.385  1.4406 -1.1094 -0.0009
  339ETH     HC 3049   2.202   1.301   1.335 -1.1329 -0.6124 -0.0947
  339ETH     HC 3050   2.108   1.390   1.213  0.7739 -1.4956 -0.5803
  339ETH     HC 3051   2.183   1.475   1.340  2.2697 -2.0462  2.7850
  340ETH     OH 3052   2.494   6.090   0.294  0.1268  0.4115 -0.4761
  340ETH     CH 3053   2.389   6.151   0.223 -0.6072 -0.2599  0.0187
  340ETH     CH 3054   2.454   6.255   0.132  0.2140 -0.6276  0.1883
  340ETH     HO 3055   2.543   6.034   0.236  1.2985  1.8307 -0.8896
  340ETH     HC 3056   2.335   6.072   0.171 -1.9331  0.7576 -0.1910
  340ETH     HC 3057   2.314   6.191   0.291 -3.8670  0.3752 -3.7530
  340ETH     HC 3058   2.512   6.334   0.180 -0.9979  0.6810 -0.4794
  340ETH     HC 3059   2.521   6.201   0.064 -1.0348 -0.2428 -1.3587
  340ETH     HC 3060   2.378   6.303   0.071  1.9701  0.0380 -1.5459
  341ETH     OH 3061   5.509   5.029   0.985  0.5260 -0.4930 -0.3323
  341ETH     CH 3062   5.589   4.913   0.989  0.5994 -0.4667 -1.0451
  341ETH     CH 3063   5.499   4.790   0.989  0.0556 -0.0704 -0.3488
  341ETH     HO 3064   5.539   5.084   0.915  2.5207  0.2700  1.0635
  341ETH     HC 3065   5.637   4.910   0.891 -1.1982  0.8398 -1.9950
  341ETH     HC 3066   5.667   4.916   1.065  1.3158 -1.6009 -1.7123
  341ETH     HC 3067   5.432   4.794   0.903 -0.3882 -0.4285 -0.0236
  341ETH     HC 3068   5.565   4.704   0.979 -1.0586 -1.1683  1.4455
  341ETH     HC 3069   5.452   4.772   1.086 -0.1840 -0.2403 -0.4939
  342ETH     OH 3070   5.957   0.243   3.392 -0.2817  0.3736  0.5467
  342ETH     CH 3071   5.938   0.381   3.369  0.1822  0.2248 -0.7521
  342ETH     CH 3072   5.898   0.449   3.499  0.7077  0.4733 -0.7217
  342ETH     HO 3073   6.020   0.228   3.461  0.3579 -2.4727 -0.5813
  342ETH     HC 3074   6.035   0.425   3.345  0.3584  1.2588  1.7517
  342ETH     HC 3075   5.864   0.393   3.289 -0.5633  1.3935  0.0941
  342ETH     HC 3076   5.880   0.556   3.488  1.9731  0.5079 -2.7591
  342ETH     HC 3077   5.800   0.407   3.522  0.6250 -0.6095 -2.9666
  342ETH     HC 3078   5.958   0.425   3.587 -1.0238 -0.5524  0.2094
  343ETH     OH 3079   4.440   4.003   1.407  0.6376  0.2041 -0.1580
  343ETH     CH 3080   4.325   4.027   1.485  0.2372 -0.9469 -0.3876
  343ETH     CH 3081   4.359   4.006   1.633 -0.4741 -0.5857 -0.1709
  343ETH     HO 3082   4.407   4.020   1.320 -2.9109 -0.6194  0.9212
  343ETH     HC 3083   4.305   4.132   1.465  2.5055 -0.3436  0.3309
  343ETH     HC 3084   4.238   3.970   1.454 -0.0529 -0.6696 -0.0882
  343ETH     HC 3085   4.398   4.102   1.667  0.8234 -1.0159 -0.4233
  343ETH     HC 3086   4.274   3.987   1.699  1.1433 -0.3948  1.9932
  343ETH     HC 3087   4.438   3.932   1.650  0.2988  0.1197 -0.6662
  344ETH     OH 3088   5.569   3.833   3.105  0.0274 -0.3033  0.1580
  344ETH     CH 3089   5.659   3.891   3.197 -0.1040  0.6082 -0.2743
  344ETH     CH 3090   5.685   4.040   3.175  0.6021  0.5510  0.1919
  344ETH     HO 3091   5.533   3.759   3.152 -0.0401 -0.6041 -0.3627
  344ETH     HC 3092   5.624   3.872   3.298 -1.1500 -1.3039 -0.9641
  344ETH     HC 3093   5.751   3.833   3.185 -0.2677  0.6328 -1.8568
  344ETH     HC 3094   5.731   4.078   3.267 -0.9547  0.2190  1.1222
  344ETH     HC 3095   5.755   4.079   3.102  1.7176 -1.0864  0.3407
  344ETH     HC 3096   5.590   4.088   3.155 -1.1588 -2.8333  0.0389
  345ETH     OH 3097   3.018   2.632   4.374  0.4643  0.6213  0.7644
  345ETH     CH 3098   3.012   2.771   4.350  0.2338  0.5350  0.3046
  345ETH     CH 3099   2.900   2.845   4.423  0.3903  0.8205  0.2580
  345ETH     HO 3100   3.076   2.589   4.313 -1.3687 -2.1416  0.8974
  345ETH     HC 3101   3.107   2.822   4.368  1.3820 -0.9926 -1.3026
  345ETH     HC 3102   2.984   2.789   4.246 -1.0844 -2.8735 -0.0016
  345ETH     HC 3103   2.902   2.952   4.402  1.0829  0.6815 -0.4010
  345ETH     HC 3104   2.801   2.807   4.396  0.9169  0.8183 -1.7130
  345ETH     HC 3105   2.907   2.831   4.531  0.0441  0.6617  0.2619
  346ETH     OH 3106   4.104   3.104   3.494 -0.4463  0.5060 -0.6256
  346ETH     CH 3107   3.971   3.075   3.456 -0.3980 -0.4219 -0.1053
  346ETH     CH 3108   3.926   2.935   3.498 -0.3975 -0.4235 -0.1085
  346ETH     HO 3109   4.105   3.120   3.587  0.3152 -0.4551 -0.4584
  346ETH     HC 3110   3.904   3.152   3.494  0.0260 -0.3436  0.4855
  346ETH     HC 3111   3.975   3.080   3.347 -0.9581  2.0486 -0.0438
  346ETH     HC 3112   3.961   2.909   3.598 -2.2475 -1.6438  0.2350
  346ETH     HC 3113   3.817   2.933   3.500 -0.4577  0.3335 -1.9256
  346ETH     HC 3114   3.959   2.861   3.425 -0.7882 -0.5095 -0.1999
  347ETH     OH 3115   3.199   4.826   5.632  0.5216 -0.1326  0.2099
  347ETH     CH 3116   3.273   4.923   5.703  0.1654 -0.0005  0.4080
  347ETH     CH 3117   3.283   4.860   5.842  0.4455 -0.1779  0.3091
  347ETH     HO 3118   3.200   4.849   5.541  0.9853 -0.2005  0.1989
  347ETH     HC 3119   3.374   4.929   5.660  0.1444  0.6414  0.4486
  347ETH     HC 3120   3.236   5.025   5.707  1.6569  0.5785 -0.1524
  347ETH     HC 3121   3.350   4.915   5.908 -0.1155  1.8892 -0.7944
  347ETH     HC 3122   3.182   4.852   5.883  0.3243  2.4065  0.6095
  347ETH     HC 3123   3.333   4.763   5.839  1.6430  0.4377  0.2851
  348ETH     OH 3124   0.018   5.505   1.346 -0.0046  0.0584  0.4354
  348ETH     CH 3125   0.141   5.470   1.286 -0.2166  0.6316 -0.3439
  348ETH     CH 3126   0.263   5.534   1.353 -0.0924  0.5360 -0.4776
  348ETH     HO 3127   0.008   5.598   1.329  0.4341 -0.2397 -1.6179
  348ETH     HC 3128   0.154   5.364   1.304  0.9590  0.4000 -2.4017
  348ETH     HC 3129   0.127   5.498   1.181  2.7006  1.7528 -0.4879
  348ETH     HC 3130   0.253   5.515   1.460  0.7829 -1.4444 -0.7335
  348ETH     HC 3131   0.347   5.481   1.308  1.0208  0.7236  1.3390
  348ETH     HC 3132   0.250   5.641   1.335  0.0494  0.2433 -2.3567
  349ETH     OH 3133   5.835   0.592   6.025 -0.8478  0.2999  0.0984
  349ETH     CH 3134   5.739   0.491   6.046 -0.3348 -0.1693  0.1990
  349ETH     CH 3135   5.633   0.571   6.122 -0.5688 -0.1994 -0.0938
  349ETH     HO 3136   5.904   0.558   5.971  0.1464  2.5211 -0.0842
  349ETH     HC 3137   5.696   0.461   5.950  0.9230 -0.8334 -0.1663
  349ETH     HC 3138   5.789   0.405   6.089  1.7287  0.5611 -0.6803
  349ETH     HC 3139   5.600   0.657   6.064  0.1281  1.0997  1.3797
  349ETH     HC 3140   5.548   0.512   6.156 -1.9688  2.0307  0.3763
  349ETH     HC 3141   5.692   0.612   6.204 -0.7791 -0.5552  0.2367
  350ETH     OH 3142   0.092   3.720   1.106  0.3815  0.3349  0.1136
  350ETH     CH 3143   0.150   3.676   0.985 -0.2427 -0.1751 -0.0029
  350ETH     CH 3144   0.041   3.693   0.879 -0.8308  0.0204  0.6292
  350ETH     HO 3145   0.126   3.807   1.117  0.9041  0.2411 -0.6961
  350ETH     HC 3146   0.239   3.734   0.962 -0.1407  0.0726  0.9864
  350ETH     HC 3147   0.166   3.568   0.987 -0.8977 -0.2677  0.4616
  350ETH     HC 3148   0.061   3.651   0.780  0.3408  1.2649  0.3166
  350ETH     HC 3149  -0.052   3.651   0.917 -0.7857 -0.8623 -0.2059
  350ETH     HC 3150   0.017   3.799   0.867 -1.6326  0.0330  2.2501
  351ETH     OH 3151   0.833   1.372   5.840  0.5235 -0.1407 -0.1183
  351ETH     CH 3152   0.933   1.282   5.798  0.3194 -0.5415  0.2434
  351ETH     CH 3153   0.943   1.183   5.913 -0.1728  0.0809  0.8285
  351ETH     HO 3154   0.876   1.428   5.903  0.1678  0.8160 -0.7254
  351ETH     HC 3155   0.895   1.243   5.704 -0.6074 -0.4448  0.5706
  351ETH     HC 3156   1.027   1.333   5.777 -0.5093  0.1250 -1.9844
  351ETH     HC 3157   1.047   1.153   5.928 -0.0181  0.5838  0.7476
  351ETH     HC 3158   0.925   1.226   6.012  2.2105 -0.8979  1.7309
  351ETH     HC 3159   0.889   1.089   5.901 -1.0316  0.6320  0.3245
  352ETH     OH 3160   4.590   2.655   1.504 -0.1416  0.3344 -0.2429
  352ETH     CH 3161   4.559   2.754   1.600 -0.7262 -0.0126 -0.0724
  352ETH     CH 3162   4.643   2.718   1.723 -0.1348  0.7154 -0.2625
  352ETH     HO 3163   4.506   2.626   1.472 -1.5794  0.4735  3.1773
  352ETH     HC 3164   4.573   2.856   1.565 -1.1175  0.6622  1.6436
  352ETH     HC 3165   4.452   2.759   1.621 -0.7726 -0.3399 -0.2231
  352ETH     HC 3166   4.751   2.728   1.715 -0.0294 -0.7297 -0.6861
  352ETH     HC 3167   4.607   2.771   1.811 -0.6209  0.7883 -0.5035
  352ETH     HC 3168   4.634   2.613   1.750 -1.9862  1.2342  1.2772
  353ETH     OH 3169   3.450   4.348   4.208 -0.0597  0.0823 -0.2927
  353ETH     CH 3170   3.389   4.373   4.333  0.4185  0.9286 -0.2183
  353ETH     CH 3171   3.274   4.473   4.325  0.0659  0.5693  0.2523
  353ETH     HO 3172   3.498   4.268   4.220  1.5577  1.1083  0.2368
  353ETH     HC 3173   3.357   4.281   4.382  2.7257  0.2293  0.0210
  353ETH     HC 3174   3.461   4.417   4.401  0.3969  1.8213 -0.7675
  353ETH     HC 3175   3.187   4.448   4.265 -0.5809  1.9693  0.5778
  353ETH     HC 3176   3.238   4.500   4.424 -0.0964  1.6526 -0.0913
  353ETH     HC 3177   3.308   4.570   4.288 -0.2756  0.1770 -1.1417
  354ETH     OH 3178   5.678   3.626   0.426 -0.1594 -0.3895  0.4220
  354ETH     CH 3179   5.771   3.525   0.390  0.2512  0.1224  0.0359
  354ETH     CH 3180   5.888   3.580   0.309  0.1772  0.0125 -0.1441
  354ETH     HO 3181   5.593   3.590   0.446 -0.7450  0.0487 -1.1779
  354ETH     HC 3182   5.819   3.495   0.483 -0.0753  3.6058  1.4216
  354ETH     HC 3183   5.723   3.441   0.341  0.7353 -1.5377  2.3456
  354ETH     HC 3184   5.869   3.608   0.205  1.4766 -0.4751 -0.5292
  354ETH     HC 3185   5.932   3.669   0.354  0.2918 -0.3128  0.3909
  354ETH     HC 3186   5.972   3.510   0.304  0.8063  0.8673 -2.0595
  355ETH     OH 3187   4.468   0.554   5.715 -0.0095 -0.4092  0.0443
  355ETH     CH 3188   4.429   0.430   5.769 -0.2195 -0.4088 -0.1038
  355ETH     CH 3189   4.364   0.449   5.906  0.2889 -0.3731  0.1334
  355ETH     HO 3190   4.510   0.537   5.632 -0.5536 -0.0240 -0.3193
  355ETH     HC 3191   4.371   0.364   5.704  0.6959 -1.2034 -0.1273
  355ETH     HC 3192   4.522   0.375   5.783  0.7057  1.2188  0.3095
  355ETH     HC 3193   4.374   0.355   5.961 -0.3553 -0.4102  0.1872
  355ETH     HC 3194   4.411   0.529   5.963 -1.8585  2.2789 -1.6970
  355ETH     HC 3195   4.259   0.476   5.895  0.4076  1.5073  3.1905
  356ETH     OH 3196   4.732   4.252   5.317  0.1192  0.0347  0.2438
  356ETH     CH 3197   4.662   4.370   5.282 -0.2337 -0.1623  0.2756
  356ETH     CH 3198   4.526   4.341   5.220 -0.2844  0.2914  0.1742
  356ETH     HO 3199   4.693   4.220   5.397 -0.0304 -0.4161 -0.0026
  356ETH     HC 3200   4.654   4.434   5.370  0.5106 -1.7042  1.4893
  356ETH     HC 3201   4.721   4.425   5.209 -2.4214  1.2745 -0.4403
  356ETH     HC 3202   4.480   4.425   5.168  0.6216 -1.0773 -2.9418
  356ETH     HC 3203   4.536   4.261   5.146 -0.9863 -0.5143  0.9381
  356ETH     HC 3204   4.456   4.298   5.292 -1.2920 -1.8130 -1.9925
  357ETH     OH 3205   5.137   6.198   6.109  0.3260  0.4989  0.4853
  357ETH     CH 3206   5.044   6.135   6.195 -0.2212 -0.1134 -0.5374
  357ETH     CH 3207   4.939   6.240   6.235 -0.1987 -0.3402  0.1275
  357ETH     HO 3208   5.196   6.247   6.164 -0.4430  0.7500  1.1068
  357ETH     HC 3209   5.001   6.055   6.135  1.6750 -1.7944  0.2855
  357ETH     HC 3210   5.096   6.089   6.279 -0.5553  1.2015  0.4223
  357ETH     HC 3211   4.912   6.291   6.143 -0.6933 -0.8367 -0.0027
  357ETH     HC 3212   4.858   6.183   6.281 -0.2329 -0.2054  0.2340
  357ETH     HC 3213   4.979   6.317   6.300 -0.1414 -0.7677  0.6047
  358ETH     OH 3214   2.414   3.067   0.437 -0.1130 -0.3163  0.5384
  358ETH     CH 3215   2.469   2.939   0.458 -0.5111 -0.6555 -0.4344
  358ETH     CH 3216   2.542   2.930   0.593 -0.2731  0.6889 -0.4623
  358ETH     HO 3217   2.490   3.124   0.436 -1.2234  1.2219 -1.1829
  358ETH     HC 3218   2.385   2.870   0.450  1.1210 -2.6218 -0.9750
  358ETH     HC 3219   2.532   2.903   0.377 -0.0888  0.6864 -0.7218
  358ETH     HC 3220   2.471   2.905   0.672 -0.9269 -1.4731 -1.6663
  358ETH     HC 3221   2.621   2.855   0.595  0.5786  1.6112  2.3573
  358ETH     HC 3222   2.591   3.024   0.616 -1.4371  1.1580  0.1382
  359ETH     OH 3223   5.255   2.445   2.380 -0.6697 -0.0280  0.2212
  359ETH     CH 3224   5.188   2.525   2.285  0.0995 -0.0479 -0.3417
  359ETH     CH 3225   5.085   2.620   2.347 -0.0392 -0.0796 -0.5221
  359ETH     HO 3226   5.314   2.383   2.342 -2.1286 -1.2558 -0.0916
  359ETH     HC 3227   5.260   2.588   2.232 -0.3979  1.2817  0.5412
  359ETH     HC 3228   5.134   2.456   2.220 -0.9375  0.9874 -0.5970
  359ETH     HC 3229   5.016   2.561   2.408  1.1782  1.7923  2.7879
  359ETH     HC 3230   5.141   2.692   2.407  0.4802  0.0469 -1.1587
  359ETH     HC 3231   5.026   2.664   2.267  0.0988 -1.9282 -1.6907
  360ETH     OH 3232   3.668   3.867   4.351 -0.3958  0.6252 -0.1071
  360ETH     CH 3233   3.629   3.755   4.274  0.3448  0.2934 -0.0025
  360ETH     CH 3234   3.701   3.739   4.140 -0.7405 -0.7841 -0.4596
  360ETH     HO 3235   3.752   3.847   4.390 -0.5761  1.8268  0.9111
  360ETH     HC 3236   3.660   3.672   4.337 -0.3510  1.2728  1.6637
  360ETH     HC 3237   3.520   3.749   4.274  0.3021  1.0506 -1.5744
  360ETH     HC 3238   3.687   3.823   4.072 -0.1738 -0.4359 -0.1488
  360ETH     HC 3239   3.809   3.749   4.150 -0.7594 -0.3543 -0.6996
  360ETH     HC 3240   3.687   3.646   4.084 -0.5426 -1.1029  0.0095
  361ETH     OH 3241   1.985   5.315   5.520 -0.1798  0.2769 -0.3999
  361ETH     CH 3242   1.893   5.367   5.613  0.0347  0.3598 -0.2317
  361ETH     CH 3243   1.838   5.263   5.712  0.5405  0.2941 -0.0184
  361ETH     HO 3244   2.037   5.390   5.495 -0.9103  2.1873  3.4548
  361ETH     HC 3245   1.937   5.447   5.673  2.1982 -2.6928  2.4226
  361ETH     HC 3246   1.809   5.421   5.569 -0.7058 -1.6655 -1.3993
  361ETH     HC 3247   1.777   5.185   5.665  0.3013  1.0714 -1.0298
  361ETH     HC 3248   1.914   5.209   5.768 -1.6985 -1.9361  0.9319
  361ETH     HC 3249   1.777   5.307   5.791  1.3025  2.0572 -0.3751
  362ETH     OH 3250   4.217   5.678   5.836  0.3674 -0.2623 -0.2387
  362ETH     CH 3251   4.170   5.709   5.965  0.3103 -0.0156 -0.3202
  362ETH     CH 3252   4.276   5.652   6.058  0.3457  0.0736 -0.3049
  362ETH     HO 3253   4.169   5.713   5.763  0.7460  0.2144 -0.2630
  362ETH     HC 3254   4.158   5.817   5.977 -0.5852 -0.2750  1.1832
  362ETH     HC 3255   4.069   5.671   5.983  0.5551 -1.0069 -0.9926
  362ETH     HC 3256   4.255   5.676   6.162  3.2344 -0.1604  0.3792
  362ETH     HC 3257   4.292   5.544   6.050 -2.8585 -0.3262 -2.0075
  362ETH     HC 3258   4.373   5.695   6.034  1.0514 -0.4447  1.4987
  363ETH     OH 3259   3.853   0.130   0.657 -0.3311 -0.1078  0.3667
  363ETH     CH 3260   3.793   0.061   0.549  0.4186 -0.0645 -0.0813
  363ETH     CH 3261   3.893  -0.031   0.480  0.3709  0.0771 -0.3400
  363ETH     HO 3262   3.901   0.196   0.609 -1.2835  0.2873 -0.0542
  363ETH     HC 3263   3.710   0.010   0.598  0.7705 -0.0894  0.4984
  363ETH     HC 3264   3.757   0.134   0.477  0.6210 -1.0767 -1.2216
  363ETH     HC 3265   3.925  -0.116   0.540  1.3622 -0.6859 -1.8972
  363ETH     HC 3266   3.844  -0.074   0.392  1.3281 -0.9718 -0.3780
  363ETH     HC 3267   3.985   0.018   0.447  0.7667 -0.3838  0.0688
  364ETH     OH 3268   5.384   5.977   1.502 -0.1030 -0.1518  0.1393
  364ETH     CH 3269   5.476   5.973   1.395 -0.5133  0.1217 -0.2295
  364ETH     CH 3270   5.605   6.039   1.445 -0.3386 -0.4630  0.0955
  364ETH     HO 3271   5.329   5.900   1.505  1.7871 -1.5360 -0.1565
  364ETH     HC 3272   5.490   5.866   1.380 -0.4142  0.1022  0.0049
  364ETH     HC 3273   5.443   6.007   1.297 -0.7741  0.0730 -0.1595
  364ETH     HC 3274   5.681   6.030   1.367 -0.7863 -1.7015 -0.2157
  364ETH     HC 3275   5.607   6.146   1.465 -2.5685 -0.3696 -0.0539
  364ETH     HC 3276   5.633   5.987   1.536  2.4362  0.0965 -0.4113
  365ETH     OH 3277   0.616   0.312   2.865 -0.2864 -0.0795  0.3769
  365ETH     CH 3278   0.641   0.335   3.002 -0.1374  0.7800  0.2106
  365ETH     CH 3279   0.609   0.482   3.032  0.7343  0.9514  0.3101
  365ETH     HO 3280   0.598   0.220   2.856  1.7526 -0.5103  0.5364
  365ETH     HC 3281   0.587   0.268   3.068  0.3095  1.3751  1.1844
  365ETH     HC 3282   0.748   0.336   3.025 -0.2810 -0.1399  0.9530
  365ETH     HC 3283   0.505   0.510   3.016  0.5271 -0.4203 -0.8824
  365ETH     HC 3284   0.654   0.508   3.127 -0.9736  2.7733  0.6421
  365ETH     HC 3285   0.666   0.532   2.953  2.0021  0.8939  1.1786
  366ETH     OH 3286   0.435   0.805   5.962  0.3186  0.0111  0.1355
  366ETH     CH 3287   0.299   0.798   5.927  0.3149  0.4329  0.0631
  366ETH     CH 3288   0.232   0.891   6.029 -0.2003  0.3553 -0.2018
  366ETH     HO 3289   0.441   0.725   6.012 -0.2776 -0.7854 -1.0455
  366ETH     HC 3290   0.285   0.833   5.825 -0.4532  0.5814  0.2173
  366ETH     HC 3291   0.268   0.696   5.949  0.7356  0.2278 -0.2914
  366ETH     HC 3292   0.248   0.856   6.131  2.7565  4.5205  0.8639
  366ETH     HC 3293   0.278   0.989   6.018 -0.2407  0.3244 -0.6912
  366ETH     HC 3294   0.124   0.896   6.021 -0.2321  0.4780  0.3121
  367ETH     OH 3295   4.678   5.505   3.772 -0.0671  0.2886  0.1433
  367ETH     CH 3296   4.730   5.616   3.703 -0.0769 -0.3206 -0.8611
  367ETH     CH 3297   4.869   5.574   3.656  0.4672 -0.1925  0.6131
  367ETH     HO 3298   4.595   5.538   3.801 -0.8840  0.4896 -2.3180
  367ETH     HC 3299   4.676   5.668   3.623  2.9013  4.2278 -0.1111
  367ETH     HC 3300   4.755   5.695   3.774 -0.6004  0.7872 -1.8743
  367ETH     HC 3301   4.914   5.641   3.583 -2.8616 -0.3926 -1.7374
  367ETH     HC 3302   4.952   5.546   3.721  1.8091  0.7045 -0.6835
  367ETH     HC 3303   4.846   5.494   3.585 -2.0266  1.3514 -0.3903
  368ETH     OH 3304   0.014   2.907   2.273  0.3854 -0.2144  0.6724
  368ETH     CH 3305  -0.024   3.014   2.356 -0.6024 -0.2537  0.2876
  368ETH     CH 3306   0.064   2.998   2.481 -0.6473  0.2339  0.3846
  368ETH     HO 3307   0.042   2.837   2.330 -1.0777 -2.0914 -0.7938
  368ETH     HC 3308   0.008   3.104   2.303 -0.7653  1.2267  2.5998
  368ETH     HC 3309  -0.128   3.014   2.387 -0.6035  0.7770  0.3168
  368ETH     HC 3310   0.064   3.097   2.526 -0.8096  0.3737  0.0818
  368ETH     HC 3311   0.034   2.921   2.552 -0.0469 -0.8906 -0.5497
  368ETH     HC 3312   0.169   2.988   2.452 -0.2014 -1.6890  2.4944
  369ETH     OH 3313   1.735   6.212   1.541 -0.4636  0.3741 -0.6186
  369ETH     CH 3314   1.704   6.342   1.588  0.3614  0.4477 -0.2757
  369ETH     CH 3315   1.825   6.434   1.570  0.4089  0.5394  0.5133
  369ETH     HO 3316   1.673   6.154   1.583  1.8674 -1.0296  1.0008
  369ETH     HC 3317   1.626   6.369   1.516  0.9634  2.0982 -0.3187
  369ETH     HC 3318   1.666   6.342   1.690  0.9102 -0.1678 -0.0644
  369ETH     HC 3319   1.915   6.412   1.627 -0.6341 -0.7536  1.7079
  369ETH     HC 3320   1.857   6.429   1.466  2.5469 -1.9520  1.2613
  369ETH     HC 3321   1.804   6.539   1.591  1.6131  0.9958 -0.5160
  370ETH     OH 3322   1.522   1.923   3.956  0.1205  0.3512  0.0687
  370ETH     CH 3323   1.582   1.913   4.083  0.2182  0.3112  0.0203
  370ETH     CH 3324   1.667   2.037   4.107 -0.6059  0.9102 -0.1577
  370ETH     HO 3325   1.478   1.841   3.942 -0.1505  0.4537  0.3330
  370ETH     HC 3326   1.498   1.895   4.150 -0.2268  0.2178 -0.5607
  370ETH     HC 3327   1.643   1.823   4.076 -2.6332 -1.7703  0.7158
  370ETH     HC 3328   1.717   2.055   4.012 -0.4982  1.9159  0.0820
  370ETH     HC 3329   1.617   2.129   4.137  1.5935  2.6916 -1.7658
  370ETH     HC 3330   1.733   2.022   4.192 -0.1914  1.6976 -0.3347
  371ETH     OH 3331   4.765   0.670   2.265  0.1946  0.4877 -0.1863
  371ETH     CH 3332   4.875   0.724   2.196  0.1990 -0.3350 -0.8263
  371ETH     CH 3333   4.870   0.875   2.172 -0.1319 -0.2910 -0.4879
  371ETH     HO 3334   4.687   0.715   2.236  0.0384 -1.0111 -2.2203
  371ETH     HC 3335   4.964   0.703   2.255 -0.4120  0.4615  0.3934
  371ETH     HC 3336   4.892   0.668   2.104 -0.6568 -0.7675 -0.7261
  371ETH     HC 3337   4.949   0.912   2.107 -1.8968  2.8615 -0.9334
  371ETH     HC 3338   4.781   0.912   2.122  0.4541  0.2603 -1.1346
  371ETH     HC 3339   4.881   0.930   2.265  0.4894 -0.0975 -0.6703
  372ETH     OH 3340   3.889   2.463   2.096  0.5750  0.1391 -0.3971
  372ETH     CH 3341   3.888   2.322   2.092 -0.1695  0.1258  0.0520
  372ETH     CH 3342   3.904   2.259   2.230 -0.1674 -0.0559 -0.0306
  372ETH     HO 3343   3.899   2.485   2.005  0.8599 -0.2002 -0.4496
  372ETH     HC 3344   3.808   2.283   2.029  0.1575  0.4199 -0.5501
  372ETH     HC 3345   3.980   2.294   2.040  0.6413 -1.1864  2.1656
  372ETH     HC 3346   3.872   2.156   2.243 -0.7140  0.2914  1.4816
  372ETH     HC 3347   4.010   2.262   2.255  0.0493 -0.0148 -0.9293
  372ETH     HC 3348   3.847   2.306   2.311 -0.2054  0.5540 -0.4054
  373ETH     OH 3349   1.814   1.850   3.598 -0.1062  0.3671 -0.2131
  373ETH     CH 3350   1.777   1.869   3.733 -0.0404  0.2621 -0.1801
  373ETH     CH 3351   1.872   1.784   3.816  0.0963  0.3018 -0.2958
  373ETH     HO 3352   1.763   1.921   3.562  1.9133  1.7950 -0.3798
  373ETH     HC 3353   1.779   1.975   3.760 -1.9131  0.6183 -1.2747
  373ETH     HC 3354   1.673   1.839   3.747  1.0887 -3.9793 -0.4372
  373ETH     HC 3355   1.836   1.791   3.919 -0.5272 -2.0941 -0.3218
  373ETH     HC 3356   1.888   1.680   3.785 -2.8657 -0.4152  0.4830
  373ETH     HC 3357   1.970   1.831   3.809  0.6870 -0.7590  0.6566
  374ETH     OH 3358   1.724   6.017   4.730  0.2950 -0.0338  0.4775
  374ETH     CH 3359   1.632   6.043   4.626 -0.0060 -0.2779  0.6798
  374ETH     CH 3360   1.495   5.983   4.655 -0.2226 -0.0923  0.0486
  374ETH     HO 3361   1.741   5.925   4.736 -3.1467 -0.7886 -0.3428
  374ETH     HC 3362   1.632   6.149   4.600  0.3676 -0.5107 -0.2714
  374ETH     HC 3363   1.675   5.993   4.539 -0.7147  1.5587 -0.7462
  374ETH     HC 3364   1.514   5.875   4.662  3.6603  0.5434  0.5208
  374ETH     HC 3365   1.446   6.018   4.746 -0.2391 -0.2131  0.0863
  374ETH     HC 3366   1.424   6.006   4.576 -1.0360 -0.2137  0.7304
  375ETH     OH 3367   3.291   2.173   2.995 -0.0073  0.4656 -0.2034
  375ETH     CH 3368   3.357   2.075   2.918 -0.2925  0.1335 -0.0262
  375ETH     CH 3369   3.289   1.939   2.927  0.2180 -0.0956  0.4185
  375ETH     HO 3370   3.201   2.168   2.967 -0.6763  1.2790  1.6902
  375ETH     HC 3371   3.369   2.108   2.815 -1.1185 -1.6686 -0.7081
  375ETH     HC 3372   3.458   2.072   2.958 -0.8770  1.2501  1.5952
  375ETH     HC 3373   3.308   1.893   3.024  0.1286 -2.0721 -0.4887
  375ETH     HC 3374   3.181   1.940   2.914  0.3698 -1.5843 -1.0682
  375ETH     HC 3375   3.327   1.874   2.849 -0.0390 -0.7196  0.8026
  376ETH     OH 3376   5.561   3.089   4.582  0.0968  0.7066 -0.5890
  376ETH     CH 3377   5.442   3.157   4.612 -0.2221 -0.2462  0.3151
  376ETH     CH 3378   5.449   3.309   4.601 -0.5257 -0.2691 -0.1874
  376ETH     HO 3379   5.541   2.998   4.566 -0.9315  0.3926  2.2662
  376ETH     HC 3380   5.359   3.113   4.556 -0.2198 -1.4234  1.2082
  376ETH     HC 3381   5.435   3.140   4.720  0.0226  1.3854  0.5964
  376ETH     HC 3382   5.505   3.349   4.685  1.0024 -0.1190 -1.2496
  376ETH     HC 3383   5.501   3.344   4.511  0.6097 -0.8098  0.2454
  376ETH     HC 3384   5.348   3.351   4.597 -0.6880 -0.7081 -0.7840
  377ETH     OH 3385   2.935   2.072   3.965  0.3027  0.3123 -0.3899
  377ETH     CH 3386   2.804   2.124   3.975  0.0992 -0.3572  0.4531
  377ETH     CH 3387   2.719   2.056   3.868  0.5788  0.2991 -0.3551
  377ETH     HO 3388   2.940   1.985   4.000 -1.4923 -1.0563 -3.3105
  377ETH     HC 3389   2.756   2.108   4.072 -0.0389  0.4166  0.5157
  377ETH     HC 3390   2.823   2.229   3.954 -0.2119 -0.6663 -1.4150
  377ETH     HC 3391   2.615   2.088   3.870  0.0240 -1.2657 -2.3276
  377ETH     HC 3392   2.760   2.086   3.772  2.0885 -3.1588 -0.8892
  377ETH     HC 3393   2.721   1.947   3.872  1.0311  0.3206  0.1809
  378ETH     OH 3394   5.583   0.433   4.445  0.1870  0.3113  0.1572
  378ETH     CH 3395   5.604   0.300   4.404 -0.3786  0.0650  0.6576
  378ETH     CH 3396   5.495   0.213   4.341 -0.0157  0.2602 -0.2465
  378ETH     HO 3397   5.584   0.487   4.368 -0.0623 -2.3484 -1.7866
  378ETH     HC 3398   5.697   0.298   4.348 -0.6430  0.4207  0.2076
  378ETH     HC 3399   5.627   0.241   4.493 -0.2438 -2.6749 -1.1031
  378ETH     HC 3400   5.542   0.115   4.334 -1.5124 -0.2885 -3.8032
  378ETH     HC 3401   5.410   0.191   4.405  1.0292 -0.4421  0.9136
  378ETH     HC 3402   5.453   0.258   4.251 -1.1814 -0.4382 -0.0695
  379ETH     OH 3403   2.533   1.481   0.093  0.4217  0.1217 -0.2615
  379ETH     CH 3404   2.660   1.420   0.100  0.6230  0.5385 -0.2715
  379ETH     CH 3405   2.696   1.347  -0.030  0.1345  0.5126 -0.3941
  379ETH     HO 3406   2.526   1.539   0.167 -2.5052 -3.0487  2.1597
  379ETH     HC 3407   2.726   1.505   0.117  0.3694  0.6895 -0.0255
  379ETH     HC 3408   2.676   1.349   0.181  2.0222  0.6488 -0.4369
  379ETH     HC 3409   2.802   1.321  -0.033 -0.3162 -1.5372  0.2627
  379ETH     HC 3410   2.629   1.261  -0.039 -0.4293  0.7725  1.1001
  379ETH     HC 3411   2.678   1.397  -0.125  2.0465  2.1234  0.0750
  380ETH     OH 3412   1.916   0.105   0.461  0.1082 -0.8122  0.1875
  380ETH     CH 3413   1.809   0.106   0.368  0.2507 -0.1364  0.0294
  380ETH     CH 3414   1.852   0.053   0.232 -0.3901 -0.2522 -0.1285
  380ETH     HO 3415   1.896   0.113   0.553  0.3656 -3.0379  0.4597
  380ETH     HC 3416   1.729   0.043   0.406 -0.7577 -0.2683 -2.2439
  380ETH     HC 3417   1.777   0.211   0.367  3.1186  0.7932  0.1156
  380ETH     HC 3418   1.773   0.049   0.158 -0.4485 -0.3614 -0.0609
  380ETH     HC 3419   1.935   0.106   0.185  0.1204  1.0203  2.1523
  380ETH     HC 3420   1.877  -0.053   0.236 -0.2041 -0.1920  0.3628
  381ETH     OH 3421   0.645   4.219   1.721  0.0885  0.4256 -0.2694
  381ETH     CH 3422   0.772   4.273   1.749 -0.1489  0.4842  0.7039
  381ETH     CH 3423   0.850   4.182   1.844 -0.4244 -0.6861 -0.1807
  381ETH     HO 3424   0.608   4.266   1.647 -1.3151 -3.0168 -1.8624
  381ETH     HC 3425   0.816   4.273   1.649  1.9879  2.3185  1.5956
  381ETH     HC 3426   0.759   4.376   1.782  1.4691  0.1876  2.3476
  381ETH     HC 3427   0.893   4.098   1.789  0.1294 -0.6272  0.1555
  381ETH     HC 3428   0.926   4.232   1.904  0.6236  0.5769 -2.4947
  381ETH     HC 3429   0.783   4.135   1.917  0.0158  0.3768  0.9192
  382ETH     OH 3430   5.262   2.836   2.639 -0.2280  0.1626  0.0332
  382ETH     CH 3431   5.154   2.763   2.694 -0.0626 -0.1539 -0.0558
  382ETH     CH 3432   5.032   2.854   2.710 -0.0100 -0.1244  0.1939
  382ETH     HO 3433   5.318   2.769   2.603 -2.6674 -1.5545 -0.7286
  382ETH     HC 3434   5.118   2.686   2.627  2.0627 -1.3101  0.1041
  382ETH     HC 3435   5.193   2.707   2.779 -0.4563  1.2986  1.1094
  382ETH     HC 3436   5.053   2.936   2.778 -0.7731 -0.1682  0.4883
  382ETH     HC 3437   4.995   2.905   2.621 -2.0515  0.1102  1.1587
  382ETH     HC 3438   4.951   2.802   2.760 -0.4470  0.3945  0.0355
  383ETH     OH 3439   3.981   5.423   1.756 -0.2520 -0.2923  0.1643
  383ETH     CH 3440   4.015   5.389   1.623  0.1666 -0.0006  0.1925
  383ETH     CH 3441   4.014   5.237   1.603  0.2387  0.0543 -0.2315
  383ETH     HO 3442   3.960   5.515   1.758 -1.3858 -0.5840  2.2741
  383ETH     HC 3443   3.932   5.417   1.559  1.1787 -1.4087 -1.7847
  383ETH     HC 3444   4.097   5.449   1.585 -1.2588  2.3229  0.6885
  383ETH     HC 3445   4.088   5.190   1.668  1.0510  2.0613  0.3250
  383ETH     HC 3446   3.921   5.190   1.634  0.0804 -0.3391 -1.2934
  383ETH     HC 3447   4.033   5.211   1.499  0.0499 -2.3555  0.3210
  384ETH     OH 3448   3.887   1.131   2.460  0.6903 -0.4292 -0.0430
  384ETH     CH 3449   3.990   1.132   2.557  0.3609 -0.1011  0.3033
  384ETH     CH 3450   4.008   0.984   2.588 -0.2242 -0.3880 -0.6761
  384ETH     HO 3451   3.931   1.164   2.383 -0.4490  2.7248  0.5964
  384ETH     HC 3452   4.086   1.178   2.533  0.3961  0.1026  0.8227
  384ETH     HC 3453   3.951   1.178   2.647 -1.2955 -1.6476  0.4023
  384ETH     HC 3454   4.086   0.971   2.663 -0.4397 -0.1043 -0.4014
  384ETH     HC 3455   3.915   0.932   2.610 -0.4924  0.6312  0.6518
  384ETH     HC 3456   4.033   0.924   2.501 -1.8557 -0.2984 -1.2124
  385ETH     OH 3457   6.083   6.175   0.278  0.3765  0.1689  0.1405
  385ETH     CH 3458   6.136   6.306   0.273 -0.3462  0.4582  0.0300
  385ETH     CH 3459   6.256   6.332   0.364 -0.3791  0.0623  0.1883
  385ETH     HO 3460   6.154   6.120   0.248  0.5176  1.4889 -2.0264
  385ETH     HC 3461   6.170   6.311   0.169  2.4696  0.9193  0.9325
  385ETH     HC 3462   6.051   6.372   0.290 -0.5247  1.0867 -2.9844
  385ETH     HC 3463   6.287   6.436   0.360 -0.2123  0.0183  0.3280
  385ETH     HC 3464   6.223   6.305   0.464  0.6658  2.7469  1.2912
  385ETH     HC 3465   6.340   6.265   0.344 -2.0643 -2.8439  2.5494
  386ETH     OH 3466   1.044   3.487   0.019  0.0128  0.2406  0.2475
  386ETH     CH 3467   0.935   3.507   0.107 -0.4922 -0.1753 -0.2785
  386ETH     CH 3468   0.909   3.373   0.176  0.0968 -0.0961  0.1033
  386ETH     HO 3469   0.999   3.469  -0.062 -1.4486  1.5099  0.7624
  386ETH     HC 3470   0.957   3.585   0.180  1.0294 -0.5994 -0.2638
  386ETH     HC 3471   0.848   3.549   0.058  1.3550  2.8004 -1.1474
  386ETH     HC 3472   0.998   3.357   0.237 -0.0857 -0.6769  0.2192
  386ETH     HC 3473   0.813   3.375   0.228  0.5418  0.2613  0.9261
  386ETH     HC 3474   0.900   3.292   0.103 -0.6674  1.2864 -1.3798
  387ETH     OH 3475   4.458   2.665   0.799  0.3342 -0.4201 -1.1416
  387ETH     CH 3476   4.524   2.562   0.729  0.3385 -0.7018 -0.7258
  387ETH     CH 3477   4.450   2.428   0.730 -0.6760 -0.1381  1.0124
  387ETH     HO 3478   4.383   2.700   0.753  0.8870  0.3643 -1.4577
  387ETH     HC 3479   4.534   2.595   0.625 -0.8144  0.6131 -0.4325
  387ETH     HC 3480   4.621   2.556   0.779  0.7381  0.5839 -1.3088
  387ETH     HC 3481   4.354   2.450   0.685  0.9077 -0.2797 -2.6275
  387ETH     HC 3482   4.509   2.379   0.653 -0.2546  0.4464  0.9547
  387ETH     HC 3483   4.445   2.396   0.834 -0.6254  0.0220  1.0657
  388ETH     OH 3484   3.341   3.419   2.230 -0.3259 -0.1179  0.4287
  388ETH     CH 3485   3.395   3.499   2.333 -0.0728 -0.1071  0.2879
  388ETH     CH 3486   3.540   3.457   2.355  0.1743  0.6846  0.1786
  388ETH     HO 3487   3.410   3.398   2.169  0.4609  1.2496  0.8054
  388ETH     HC 3488   3.398   3.604   2.306 -0.5807 -0.3647 -0.8175
  388ETH     HC 3489   3.347   3.475   2.428 -0.4502  1.8505  0.6041
  388ETH     HC 3490   3.537   3.361   2.406  0.8489  0.4946 -0.1360
  388ETH     HC 3491   3.611   3.451   2.272  1.1309 -0.6114  1.0573
  388ETH     HC 3492   3.593   3.524   2.423 -3.1217  1.4563  2.0765
  389ETH     OH 3493   2.561   4.237   0.828 -0.4063 -0.6253  0.3331
  389ETH     CH 3494   2.579   4.376   0.808 -0.6588 -0.6031  0.2657
  389ETH     CH 3495   2.510   4.450   0.923  0.6910 -0.1651  0.8004
  389ETH     HO 3496   2.613   4.199   0.759 -0.3896  0.4145 -0.2352
  389ETH     HC 3497   2.686   4.393   0.813 -0.8249  1.2523 -1.7461
  389ETH     HC 3498   2.534   4.396   0.710 -0.6963  1.6369  0.7304
  389ETH     HC 3499   2.550   4.422   1.020  0.7451 -0.1863  0.7714
  389ETH     HC 3500   2.536   4.554   0.906 -1.0154  0.2217  0.4245
  389ETH     HC 3501   2.402   4.459   0.915  0.6971  1.4372  2.2858
  390ETH     OH 3502   0.650   3.469   2.984  0.5604 -0.0959 -0.4274
  390ETH     CH 3503   0.674   3.592   3.049  0.0142 -0.2182  0.0071
  390ETH     CH 3504   0.802   3.644   2.984 -0.3074  0.1956 -0.2919
  390ETH     HO 3505   0.557   3.454   2.994  0.5614  1.0475  1.6685
  390ETH     HC 3506   0.688   3.585   3.157  0.7165  2.7430  0.1598
  390ETH     HC 3507   0.590   3.661   3.039  1.1697  1.1475 -0.3909
  390ETH     HC 3508   0.893   3.592   3.010  0.0763  0.1934 -1.6000
  390ETH     HC 3509   0.793   3.645   2.875 -1.2432  1.3896 -0.2187
  390ETH     HC 3510   0.821   3.749   3.006 -0.0345 -0.2462  1.5903
  391ETH     OH 3511   0.594   2.529   4.494 -0.0870  0.0136  0.5520
  391ETH     CH 3512   0.728   2.502   4.457 -0.0321  1.0676 -0.0261
  391ETH     CH 3513   0.743   2.496   4.305 -0.3664  0.1866 -0.0266
  391ETH     HO 3514   0.549   2.449   4.518 -0.4287 -0.4202 -1.4625
  391ETH     HC 3515   0.788   2.589   4.486 -0.1938  2.0822 -2.5701
  391ETH     HC 3516   0.751   2.406   4.504  0.4289  0.5149 -1.3669
  391ETH     HC 3517   0.679   2.420   4.261  0.6158 -0.2458 -0.7254
  391ETH     HC 3518   0.722   2.589   4.253  0.5508  0.5388  0.2195
  391ETH     HC 3519   0.849   2.478   4.285 -0.0788  1.5651  0.1864
  392ETH     OH 3520   0.337   2.595   5.156 -0.2228 -0.1184 -0.6464
  392ETH     CH 3521   0.347   2.638   5.290  0.4680 -1.1948 -0.3528
  392ETH     CH 3522   0.235   2.573   5.371 -0.0631  0.0425 -0.0866
  392ETH     HO 3523   0.403   2.640   5.106  1.8237 -2.4770 -0.1093
  392ETH     HC 3524   0.441   2.604   5.334 -0.3115 -2.1677  0.6090
  392ETH     HC 3525   0.337   2.746   5.301  2.7711 -1.2144  2.8464
  392ETH     HC 3526   0.257   2.598   5.474 -1.4262  1.1722 -0.0538
  392ETH     HC 3527   0.134   2.593   5.334  0.2805 -0.0769 -1.1236
  392ETH     HC 3528   0.244   2.466   5.352  0.2861  0.1243 -0.3919
  393ETH     OH 3529   4.091   4.352   0.413 -0.3754 -0.0301  0.1316
  393ETH     CH 3530   4.203   4.281   0.459 -0.2267  0.0329 -0.1341
  393ETH     CH 3531   4.187   4.252   0.608 -0.2287  0.9184  0.0389
  393ETH     HO 3532   4.101   4.394   0.329  1.2104 -0.8277 -0.0915
  393ETH     HC 3533   4.213   4.186   0.406 -0.0630 -0.7276  1.2230
  393ETH     HC 3534   4.295   4.338   0.447 -0.8656  0.8145 -1.3899
  393ETH     HC 3535   4.213   4.335   0.673  1.5170 -0.7723  1.5494
  393ETH     HC 3536   4.091   4.205   0.633 -0.0675  0.8809  0.6011
  393ETH     HC 3537   4.267   4.180   0.621  0.2087  1.7693  2.3460
  394ETH     OH 3538   2.203   2.132   1.144 -0.6467 -0.8015 -0.2648
  394ETH     CH 3539   2.238   2.069   1.023 -0.3659 -0.2892 -0.4523
  394ETH     CH 3540   2.143   1.951   1.038 -0.1856 -0.3663  0.1066
  394ETH     HO 3541   2.216   2.074   1.217 -1.0861 -0.3793  0.1532
  394ETH     HC 3542   2.208   2.139   0.945  0.1128 -0.5799 -0.9053
  394ETH     HC 3543   2.344   2.041   1.020 -0.4119 -0.5818  0.4352
  394ETH     HC 3544   2.174   1.881   0.960  0.3835 -0.7784  0.6985
  394ETH     HC 3545   2.146   1.908   1.138  2.2892  0.0828  0.2597
  394ETH     HC 3546   2.036   1.964   1.019  0.0602  2.2176  0.3175
  395ETH     OH 3547   3.696   0.899   1.188  0.0088  0.2228  0.3152
  395ETH     CH 3548   3.713   0.857   1.055 -0.0042  0.3933  0.2606
  395ETH     CH 3549   3.802   0.962   0.987  0.0386  0.0724 -0.1835
  395ETH     HO 3550   3.687   0.823   1.244 -1.2532  0.1500  0.0245
  395ETH     HC 3551   3.746   0.754   1.046  0.2012  0.6776 -2.8549
  395ETH     HC 3552   3.614   0.861   1.010  1.0316 -0.0097 -2.1358
  395ETH     HC 3553   3.809   0.945   0.880  2.0684  0.3489 -0.1063
  395ETH     HC 3554   3.774   1.066   1.001 -0.8991 -0.3978  1.6419
  395ETH     HC 3555   3.904   0.945   1.022  0.0282  1.5470  0.6224
  396ETH     OH 3556   2.452   4.545   3.458 -0.1651 -0.2719 -0.6706
  396ETH     CH 3557   2.454   4.620   3.577 -0.4156 -0.2770 -0.6630
  396ETH     CH 3558   2.592   4.683   3.588 -0.7173  0.2253  0.2494
  396ETH     HO 3559   2.374   4.491   3.458 -0.1095 -0.3806  1.0188
  396ETH     HC 3560   2.368   4.686   3.589  0.5405  0.9924 -0.7330
  396ETH     HC 3561   2.447   4.558   3.667 -0.1480  1.7223  0.7761
  396ETH     HC 3562   2.670   4.612   3.561 -1.5616 -0.8549  0.6416
  396ETH     HC 3563   2.594   4.749   3.502  0.2005 -0.7955 -0.5279
  396ETH     HC 3564   2.621   4.740   3.677  0.4949 -1.3483  0.8866
  397ETH     OH 3565   0.570   4.503   1.996  0.3648  0.1956  0.2288
  397ETH     CH 3566   0.579   4.420   2.110 -0.4657 -0.0166  0.1396
  397ETH     CH 3567   0.490   4.298   2.088 -0.0421 -0.4076  0.5930
  397ETH     HO 3568   0.623   4.578   2.019 -0.3267  0.1345  2.1085
  397ETH     HC 3569   0.683   4.393   2.123 -0.0225  0.6571 -1.8001
  397ETH     HC 3570   0.546   4.471   2.201  0.5443  1.8196 -0.4932
  397ETH     HC 3571   0.385   4.330   2.088  0.1361  0.1815 -0.4998
  397ETH     HC 3572   0.525   4.255   1.994  1.3668 -0.3095  1.0637
  397ETH     HC 3573   0.498   4.225   2.169 -0.1256  0.1711  1.1259
  398ETH     OH 3574   1.583   3.030   0.641  0.2547 -0.0069 -0.3743
  398ETH     CH 3575   1.462   3.011   0.570  0.2408  0.3875 -0.4574
  398ETH     CH 3576   1.467   2.885   0.484 -0.1944 -0.0359  0.1313
  398ETH     HO 3577   1.620   2.955   0.684  2.2578  0.9686 -0.3461
  398ETH     HC 3578   1.371   3.002   0.630 -2.2005  0.3572 -4.0302
  398ETH     HC 3579   1.448   3.099   0.507  0.1183  0.6041 -0.1332
  398ETH     HC 3580   1.392   2.878   0.406 -0.3538 -4.1020  0.5539
  398ETH     HC 3581   1.562   2.888   0.430 -0.1153  0.1984  0.2777
  398ETH     HC 3582   1.465   2.793   0.541  0.7685 -0.1682 -0.0255
  399ETH     OH 3583   4.305   5.590   1.198 -0.1906 -0.2773 -0.1679
  399ETH     CH 3584   4.274   5.670   1.311  0.1866  0.2119 -0.4054
  399ETH     CH 3585   4.154   5.759   1.280  0.0653  0.1635 -0.0872
  399ETH     HO 3586   4.357   5.514   1.216 -0.4753 -0.9260 -2.0167
  399ETH     HC 3587   4.244   5.611   1.398 -2.0737  1.7897 -0.0718
  399ETH     HC 3588   4.359   5.722   1.353  0.2219 -0.4905  0.4185
  399ETH     HC 3589   4.173   5.814   1.187 -1.1683 -0.6540 -0.8377
  399ETH     HC 3590   4.053   5.723   1.262 -0.0571  0.6484 -0.4061
  399ETH     HC 3591   4.148   5.825   1.366 -0.3722  0.3036 -0.2229
  400ETH     OH 3592   1.579   3.905   1.582  0.2863 -0.4134  0.1015
  400ETH     CH 3593   1.618   3.877   1.715  0.0721 -0.4100  0.1660
  400ETH     CH 3594   1.547   3.748   1.754 -0.2020 -0.3062  0.0125
  400ETH     HO 3595   1.594   3.827   1.532 -0.6875  0.2691 -1.2834
  400ETH     HC 3596   1.727   3.868   1.713 -0.0054 -1.0944 -2.1168
  400ETH     HC 3597   1.585   3.957   1.781 -0.8080 -1.1452  0.6287
  400ETH     HC 3598   1.583   3.730   1.855  0.6767 -0.0764 -0.2544
  400ETH     HC 3599   1.441   3.769   1.739  0.0500 -0.0856 -1.5327
  400ETH     HC 3600   1.583   3.666   1.691 -2.7883 -0.9745 -0.6420
  401ETH     OH 3601   5.638   3.380   2.535 -0.7135 -0.0265 -0.0983
  401ETH     CH 3602   5.562   3.496   2.508  0.2612  0.6920  0.2031
  401ETH     CH 3603   5.420   3.481   2.563  0.1847  0.7607  0.0281
  401ETH     HO 3604   5.725   3.388   2.497 -1.4111 -1.7192 -2.2035
  401ETH     HC 3605   5.612   3.579   2.556 -1.5295  0.6720  2.1716
  401ETH     HC 3606   5.567   3.511   2.400 -0.3326  1.4849  0.2839
  401ETH     HC 3607   5.360   3.572   2.562  0.3115  0.8563  0.6688
  401ETH     HC 3608   5.360   3.410   2.506  1.7448 -0.2426 -0.4140
  401ETH     HC 3609   5.421   3.453   2.669 -0.2456  1.4448  0.2148
  402ETH     OH 3610   4.936   3.036   4.561  0.1330 -0.5657 -0.0306
  402ETH     CH 3611   4.979   3.030   4.695  0.4124  0.2652 -0.0785
  402ETH     CH 3612   5.058   3.158   4.721  0.1499  0.5713 -0.7810
  402ETH     HO 3613   4.879   2.963   4.542  1.0340 -1.2136 -0.2798
  402ETH     HC 3614   4.891   3.026   4.759  0.2607 -3.6864 -0.3752
  402ETH     HC 3615   5.038   2.941   4.719 -1.0726 -0.7574 -0.1634
  402ETH     HC 3616   5.002   3.246   4.688 -0.1782  0.7380  0.1988
  402ETH     HC 3617   5.089   3.166   4.825  0.7381 -0.0346 -0.9061
  402ETH     HC 3618   5.153   3.158   4.667  0.7206 -1.1720  0.1736
  403ETH     OH 3619   4.129   2.546   4.089 -0.2766 -0.4292 -0.3048
  403ETH     CH 3620   4.074   2.673   4.118  0.7093 -0.2276  0.7024
  403ETH     CH 3621   4.184   2.774   4.086  0.1988  0.2169  0.3468
  403ETH     HO 3622   4.117   2.536   3.995  0.2967 -1.6812 -0.2492
  403ETH     HC 3623   3.989   2.697   4.054 -0.1345 -1.8155  1.1911
  403ETH     HC 3624   4.032   2.692   4.216 -1.8712  1.4176 -0.6767
  403ETH     HC 3625   4.158   2.880   4.086  0.8403  0.3771  0.5507
  403ETH     HC 3626   4.266   2.735   4.147  1.6143  0.0164 -1.6368
  403ETH     HC 3627   4.204   2.766   3.979  2.9955  0.8289  0.7797
  404ETH     OH 3628   2.910   1.585   2.281  0.1102  0.0685 -0.3561
  404ETH     CH 3629   3.035   1.579   2.345  0.1242 -0.1052 -0.4007
  404ETH     CH 3630   3.098   1.718   2.350 -0.5721  0.2124 -0.4020
  404ETH     HO 3631   2.937   1.571   2.192  2.6386  3.1572 -0.1467
  404ETH     HC 3632   3.007   1.547   2.445  0.9462  1.7683  0.4495
  404ETH     HC 3633   3.096   1.508   2.290 -1.5968 -1.1688 -0.9666
  404ETH     HC 3634   3.108   1.762   2.251  4.8755 -1.5898 -0.8521
  404ETH     HC 3635   3.030   1.784   2.404 -0.8397 -1.1586  0.9820
  404ETH     HC 3636   3.198   1.715   2.393 -0.2852  3.2568 -0.7056
  405ETH     OH 3637   3.372   5.466   0.470 -0.3911 -0.0982 -0.0641
  405ETH     CH 3638   3.246   5.483   0.530 -0.1689 -0.0214  0.3802
  405ETH     CH 3639   3.149   5.385   0.466  0.2834 -0.0729 -0.2253
  405ETH     HO 3640   3.431   5.527   0.513  1.4700 -1.8567 -0.0608
  405ETH     HC 3641   3.256   5.465   0.637 -1.5024  0.4540  0.5944
  405ETH     HC 3642   3.225   5.589   0.513  2.5972  0.2854 -1.2971
  405ETH     HC 3643   3.137   5.399   0.358 -1.4083 -1.2443 -0.2223
  405ETH     HC 3644   3.183   5.282   0.477  0.2828 -0.2799 -1.9792
  405ETH     HC 3645   3.048   5.385   0.508 -0.0582 -0.2476 -1.0217
  406ETH     OH 3646   3.254   4.606   0.081 -0.3771 -0.3040 -0.2199
  406ETH     CH 3647   3.148   4.691   0.041  0.0592  0.3238 -0.0468
  406ETH     CH 3648   3.015   4.622   0.070  0.0703  0.2663 -0.1316
  406ETH     HO 3649   3.334   4.651   0.060 -1.7336  2.6606  0.5799
  406ETH     HC 3650   3.141   4.792   0.082  1.3970  0.9498 -1.3035
  406ETH     HC 3651   3.166   4.688  -0.066 -0.2102 -3.1956 -0.0539
  406ETH     HC 3652   2.995   4.536   0.006 -0.2828  0.7508 -0.6721
  406ETH     HC 3653   2.996   4.578   0.168 -1.1662  0.8827 -0.0769
  406ETH     HC 3654   2.931   4.692   0.062  0.0801  0.3020  0.0681
  407ETH     OH 3655   1.419   4.500   2.000 -0.3767  0.0114 -0.0682
  407ETH     CH 3656   1.431   4.640   2.018 -0.2747  0.0052 -0.0869
  407ETH     CH 3657   1.439   4.700   1.877  1.0755  0.0215 -0.0110
  407ETH     HO 3658   1.396   4.466   2.085  0.7121 -1.2756 -0.2707
  407ETH     HC 3659   1.353   4.676   2.085  1.1390 -0.8672  2.0877
  407ETH     HC 3660   1.524   4.656   2.073 -0.5142  0.1408  0.2794
  407ETH     HC 3661   1.504   4.643   1.810 -0.3999 -1.6101 -0.0978
  407ETH     HC 3662   1.341   4.697   1.830  1.6749 -2.3547 -1.1957
  407ETH     HC 3663   1.472   4.803   1.888  1.6594 -0.0283 -1.2499
  408ETH     OH 3664   1.639   5.568   0.191 -0.0605  0.0387 -0.1313
  408ETH     CH 3665   1.682   5.563   0.325 -0.0594  0.1871 -0.1260
  408ETH     CH 3666   1.565   5.602   0.415  0.2241  0.3073  0.1930
  408ETH     HO 3667   1.711   5.551   0.132  0.5480  0.1702  0.5679
  408ETH     HC 3668   1.719   5.462   0.342  1.4546  0.7643  0.1361
  408ETH     HC 3669   1.767   5.626   0.353  0.5621 -0.9292  0.5275
  408ETH     HC 3670   1.608   5.623   0.513 -0.4471 -0.5525  0.6763
  408ETH     HC 3671   1.523   5.700   0.396  0.1130  0.7467  2.5881
  408ETH     HC 3672   1.484   5.529   0.417  1.5839 -1.2617 -0.7541
  409ETH     OH 3673   5.362   3.666   6.261 -0.0246  0.1243  0.0559
  409ETH     CH 3674   5.355   3.532   6.217  0.1859  0.0978  0.1056
  409ETH     CH 3675   5.267   3.512   6.094  0.4067 -0.0960 -0.0212
  409ETH     HO 3676   5.422   3.670   6.334 -2.1268 -0.8644  1.9132
  409ETH     HC 3677   5.457   3.499   6.199  1.3714  3.0881  1.0381
  409ETH     HC 3678   5.312   3.464   6.292 -2.1826  0.3854 -0.9468
  409ETH     HC 3679   5.310   3.571   6.013 -0.5667  3.2235  1.7708
  409ETH     HC 3680   5.252   3.408   6.064 -0.5132  0.4297 -1.4279
  409ETH     HC 3681   5.169   3.557   6.112 -0.0808 -0.7238 -1.0755
  410ETH     OH 3682   3.151   4.488   1.557  0.2202  0.2745  0.3334
  410ETH     CH 3683   3.233   4.378   1.591  0.5530  0.3169 -0.3293
  410ETH     CH 3684   3.260   4.388   1.741  0.3527  0.4575 -0.3023
  410ETH     HO 3685   3.061   4.469   1.579 -0.1599  1.3026 -0.3098
  410ETH     HC 3686   3.185   4.282   1.572  0.9693 -0.1428  0.8703
  410ETH     HC 3687   3.322   4.387   1.528 -0.0335  1.3311 -1.0327
  410ETH     HC 3688   3.317   4.298   1.767 -2.1268 -0.6639  1.4502
  410ETH     HC 3689   3.320   4.478   1.753 -1.6928  1.8779 -0.5500
  410ETH     HC 3690   3.173   4.388   1.807  1.7377 -1.0889  1.6150
  411ETH     OH 3691   2.413   4.298   1.537  0.1417  0.1648  0.2896
  411ETH     CH 3692   2.501   4.197   1.492  0.1205  0.0804  0.4374
  411ETH     CH 3693   2.584   4.142   1.607  0.3457 -0.1768  0.1505
  411ETH     HO 3694   2.344   4.302   1.472  1.0225  0.3361 -0.6343
  411ETH     HC 3695   2.441   4.117   1.449  0.3596  0.2867 -0.2868
  411ETH     HC 3696   2.550   4.234   1.403 -1.4386  1.3690  0.0793
  411ETH     HC 3697   2.636   4.225   1.656  0.7722  0.4275 -1.3156
  411ETH     HC 3698   2.527   4.098   1.689 -0.5701 -0.5961 -0.7135
  411ETH     HC 3699   2.656   4.068   1.571 -0.6550  0.8366 -4.1981
  412ETH     OH 3700   0.524   1.577   5.135 -0.1428  0.0339  0.7509
  412ETH     CH 3701   0.406   1.502   5.146 -0.3493  0.3114  0.4392
  412ETH     CH 3702   0.296   1.546   5.049 -0.3983  0.3130  0.4956
  412ETH     HO 3703   0.531   1.629   5.214  1.3837 -0.3257  0.8707
  412ETH     HC 3704   0.433   1.397   5.136 -1.3484  0.1458 -0.6277
  412ETH     HC 3705   0.367   1.529   5.244 -0.7343 -0.0312  0.3819
  412ETH     HC 3706   0.313   1.505   4.950 -2.1395  2.1189 -0.5846
  412ETH     HC 3707   0.197   1.516   5.084 -1.0073 -0.6382 -1.9909
  412ETH     HC 3708   0.286   1.654   5.053 -0.3114  0.3993 -1.3642
  413ETH     OH 3709   5.091   4.303   4.467 -0.2469 -0.3431 -0.0778
  413ETH     CH 3710   5.053   4.438   4.462 -0.1996 -0.3225  0.1352
  413ETH     CH 3711   5.051   4.506   4.599 -0.1755  0.4308 -0.2367
  413ETH     HO 3712   5.039   4.266   4.537 -1.0283  0.3584 -0.2769
  413ETH     HC 3713   5.126   4.483   4.394 -1.0068 -1.7445 -1.7036
  413ETH     HC 3714   4.955   4.446   4.416 -1.2248  2.8644  2.6258
  413ETH     HC 3715   5.152   4.502   4.639  0.5988  0.1782 -2.1335
  413ETH     HC 3716   5.043   4.615   4.595  2.0942  0.6553  0.9770
  413ETH     HC 3717   4.968   4.475   4.662  0.7816  2.2172  1.9929
  414ETH     OH 3718   3.676   5.403   0.105  0.4699  0.9888 -0.1001
  414ETH     CH 3719   3.562   5.472   0.152 -0.0843 -0.0219  0.0662
  414ETH     CH 3720   3.598   5.619   0.125 -0.0352 -0.1405 -0.5120
  414ETH     HO 3721   3.666   5.309   0.113 -1.1062  1.1752  0.2654
  414ETH     HC 3722   3.472   5.432   0.107  1.1691 -1.4116 -1.2481
  414ETH     HC 3723   3.551   5.446   0.257 -0.3556  2.7924  0.7785
  414ETH     HC 3724   3.690   5.643   0.177 -0.2265 -1.2185  0.3486
  414ETH     HC 3725   3.622   5.623   0.019  1.3001 -2.0887 -0.3030
  414ETH     HC 3726   3.515   5.682   0.157 -1.1400 -2.1166  0.6662
  415ETH     OH 3727   4.625   5.538   1.529 -0.7012 -0.2200 -0.3973
  415ETH     CH 3728   4.548   5.531   1.647 -0.3934 -0.0167 -0.1829
  415ETH     CH 3729   4.644   5.564   1.761  0.4641 -0.1543 -0.8611
  415ETH     HO 3730   4.663   5.624   1.532 -0.8380 -0.1844  0.7709
  415ETH     HC 3731   4.477   5.613   1.639  0.4977  1.2047  3.4073
  415ETH     HC 3732   4.495   5.437   1.665  0.0562 -0.4545 -1.0866
  415ETH     HC 3733   4.598   5.595   1.855  3.7571  0.7873  0.5072
  415ETH     HC 3734   4.713   5.483   1.784  1.1250  1.2674  2.3670
  415ETH     HC 3735   4.700   5.651   1.726 -0.4660  0.3714 -1.0679
  416ETH     OH 3736   5.908   3.047   5.801 -0.1821  0.2186  0.3520
  416ETH     CH 3737   5.942   3.000   5.929  0.2945  0.0288  0.1556
  416ETH     CH 3738   5.997   2.858   5.918  0.6565  0.2037 -0.3145
  416ETH     HO 3739   5.942   3.135   5.790  1.2073 -0.4383 -0.7968
  416ETH     HC 3740   6.019   3.062   5.975 -0.6281  1.9946 -0.8736
  416ETH     HC 3741   5.860   3.005   6.001  1.1593  2.4748  1.0291
  416ETH     HC 3742   6.062   2.825   6.000  0.3989  1.2924  0.3468
  416ETH     HC 3743   5.912   2.790   5.914  2.1949 -1.9553  1.7870
  416ETH     HC 3744   6.044   2.842   5.821  0.9910  0.8759 -0.2682
  417ETH     OH 3745   1.239   0.190   5.124  0.0954  0.1411  0.2782
  417ETH     CH 3746   1.124   0.113   5.151  0.0366  0.0005 -0.3559
  417ETH     CH 3747   1.028   0.204   5.228 -0.2507 -0.4013 -0.2385
  417ETH     HO 3748   1.277   0.142   5.052  0.2746 -0.2165  0.6097
  417ETH     HC 3749   1.074   0.086   5.058  0.4669 -0.9236 -0.3245
  417ETH     HC 3750   1.148   0.020   5.202 -2.2915 -0.3770  0.1230
  417ETH     HC 3751   1.027   0.302   5.180 -0.3433 -0.1291  0.3144
  417ETH     HC 3752   0.932   0.153   5.240 -1.0882  1.5059  1.5602
  417ETH     HC 3753   1.058   0.212   5.332 -1.7149 -1.4578  0.2744
  418ETH     OH 3754   6.281   5.370   4.827  0.4577  0.1299  0.0444
  418ETH     CH 3755   6.348   5.302   4.931  0.3758 -0.0058  0.0106
  418ETH     CH 3756   6.381   5.393   5.050 -0.3923 -0.0506  0.2594
  418ETH     HO 3757   6.230   5.304   4.782 -1.7586  1.3591  0.6864
  418ETH     HC 3758   6.284   5.223   4.970 -1.4765  1.8924  0.9128
  418ETH     HC 3759   6.443   5.261   4.896  0.4608 -0.0932  0.3420
  418ETH     HC 3760   6.290   5.428   5.099 -0.4238  0.2901 -0.0365
  418ETH     HC 3761   6.434   5.325   5.117  1.7416  0.4217 -0.9312
  418ETH     HC 3762   6.449   5.477   5.034  0.0939 -0.6093 -0.6673
  419ETH     OH 3763   5.901   3.666   3.974  0.2271  0.2458  0.2787
  419ETH     CH 3764   5.850   3.602   3.860 -0.1086  0.0969  0.5119
  419ETH     CH 3765   5.830   3.452   3.878 -0.3248 -0.0014 -0.4959
  419ETH     HO 3766   5.831   3.666   4.038  0.0436 -0.7208  0.0777
  419ETH     HC 3767   5.750   3.644   3.846 -0.4451 -0.6023  0.7949
  419ETH     HC 3768   5.915   3.619   3.774 -0.1526  2.2956  0.8766
  419ETH     HC 3769   5.907   3.404   3.939 -1.4545 -1.6213 -0.2926
  419ETH     HC 3770   5.740   3.421   3.932 -0.6360 -0.5478 -1.3066
  419ETH     HC 3771   5.812   3.406   3.781 -0.6535  0.3074 -0.5834
  420ETH     OH 3772   2.874   4.888   3.609 -0.4823 -0.0197 -0.0854
  420ETH     CH 3773   2.933   4.760   3.616  0.0057  0.2076  0.0259
  420ETH     CH 3774   2.956   4.713   3.472  0.2718  0.3935  0.0075
  420ETH     HO 3775   2.881   4.935   3.691  1.0420 -0.7670  0.2483
  420ETH     HC 3776   3.034   4.771   3.654  1.1296 -1.0180 -2.4959
  420ETH     HC 3777   2.873   4.697   3.682 -0.9676 -0.6444 -1.6241
  420ETH     HC 3778   2.858   4.722   3.424 -0.4954  3.0377  1.8903
  420ETH     HC 3779   3.013   4.790   3.420 -1.2001  1.5633  0.0820
  420ETH     HC 3780   3.000   4.614   3.465  1.4626  0.9926 -1.2353
  421ETH     OH 3781   0.668   0.519   5.668 -0.1622  0.4480  0.2537
  421ETH     CH 3782   0.636   0.478   5.799  0.8858 -0.3635  0.2639
  421ETH     CH 3783   0.554   0.350   5.779  0.3758  0.0463 -0.3009
  421ETH     HO 3784   0.747   0.570   5.677 -0.5347  0.7463  1.9737
  421ETH     HC 3785   0.721   0.470   5.867  0.4964  2.3179  1.1047
  421ETH     HC 3786   0.568   0.555   5.837 -1.7502 -1.3716 -2.1506
  421ETH     HC 3787   0.629   0.271   5.771  0.0961 -0.7539  3.8302
  421ETH     HC 3788   0.496   0.319   5.865  0.5082 -0.7973 -0.5086
  421ETH     HC 3789   0.489   0.350   5.691 -0.3946 -0.2395  0.2650
  422ETH     OH 3790   5.864   3.519   2.423  0.0758 -0.0917 -0.1888
  422ETH     CH 3791   5.996   3.471   2.413 -0.0757 -0.3702 -0.9145
  422ETH     CH 3792   6.008   3.321   2.387  0.1946 -0.5320  0.1438
  422ETH     HO 3793   5.865   3.606   2.459 -1.7054 -0.2713  0.3758
  422ETH     HC 3794   6.045   3.524   2.331  2.3687  2.3414  2.1374
  422ETH     HC 3795   6.049   3.507   2.501  3.3071 -3.6798 -1.4896
  422ETH     HC 3796   5.974   3.270   2.478 -1.3651 -0.7031 -0.5204
  422ETH     HC 3797   5.946   3.284   2.306 -0.7942  0.4373  0.4377
  422ETH     HC 3798   6.109   3.286   2.366  0.4004  0.3359 -0.3253
  423ETH     OH 3799   2.318   3.424   1.410 -0.0751  0.4933  0.0278
  423ETH     CH 3800   2.247   3.538   1.451 -0.8928  0.2527 -0.6761
  423ETH     CH 3801   2.116   3.497   1.518 -0.0650 -0.0313  0.8003
  423ETH     HO 3802   2.370   3.401   1.485 -0.4949  0.3667  0.2851
  423ETH     HC 3803   2.310   3.604   1.512 -2.4003  0.6066  0.5310
  423ETH     HC 3804   2.225   3.580   1.353  1.1608 -0.4876 -1.4932
  423ETH     HC 3805   2.057   3.443   1.444 -1.6670 -1.1661  2.8504
  423ETH     HC 3806   2.138   3.423   1.596  3.0154  0.8688  0.8534
  423ETH     HC 3807   2.052   3.583   1.541 -2.1015 -0.8195 -1.6800
  424ETH     OH 3808   2.437   2.664   6.066 -0.2595  0.0568 -0.2360
  424ETH     CH 3809   2.515   2.771   6.018  0.0225 -0.2266 -0.4171
  424ETH     CH 3810   2.549   2.850   6.145  0.5094 -0.3992 -0.4400
  424ETH     HO 3811   2.497   2.593   6.084 -1.1039 -0.2971  1.2356
  424ETH     HC 3812   2.593   2.733   5.952 -0.3517 -1.2062 -0.2974
  424ETH     HC 3813   2.450   2.834   5.957 -1.3223 -1.2277 -0.0407
  424ETH     HC 3814   2.607   2.786   6.212  1.5957  1.5317  0.5012
  424ETH     HC 3815   2.605   2.940   6.120 -1.0694  0.6936 -0.1008
  424ETH     HC 3816   2.458   2.877   6.198 -0.6051 -4.1913 -0.2255
  425ETH     OH 3817   1.611   3.236   4.968  0.6756 -0.3892  0.7035
  425ETH     CH 3818   1.694   3.259   5.080  0.5892 -0.3340  0.7556
  425ETH     CH 3819   1.640   3.162   5.185 -0.0142 -0.7541  0.0623
  425ETH     HO 3820   1.649   3.289   4.899  0.3895  0.3534  1.1051
  425ETH     HC 3821   1.799   3.233   5.068  0.6574  0.4738 -0.5178
  425ETH     HC 3822   1.683   3.362   5.113 -1.0913 -0.4920  0.7284
  425ETH     HC 3823   1.533   3.181   5.195 -0.1949 -0.7773 -1.7708
  425ETH     HC 3824   1.643   3.060   5.147  1.2406 -1.3432  1.6798
  425ETH     HC 3825   1.695   3.164   5.279 -2.9417 -1.9746  1.8765
  426ETH     OH 3826   4.340   5.187   5.648  0.1565 -0.6626 -0.0223
  426ETH     CH 3827   4.221   5.166   5.721 -0.0022 -0.5289 -0.2418
  426ETH     CH 3828   4.222   5.026   5.782  0.1246 -0.6450 -0.5112
  426ETH     HO 3829   4.348   5.281   5.641 -1.1808 -0.7066 -2.6526
  426ETH     HC 3830   4.210   5.236   5.804  0.6267  0.5046 -1.0129
  426ETH     HC 3831   4.130   5.177   5.662 -1.1700 -2.6415  1.0866
  426ETH     HC 3832   4.138   5.022   5.852 -0.0647  0.7237 -0.6473
  426ETH     HC 3833   4.206   4.945   5.710  1.8559 -1.2875 -0.1964
  426ETH     HC 3834   4.313   4.999   5.835 -0.0601  0.4656  0.3842
  427ETH     OH 3835   5.382   5.582   0.148  0.3444 -0.0669  0.2201
  427ETH     CH 3836   5.375   5.457   0.215 -0.3771  0.2891  0.8157
  427ETH     CH 3837   5.230   5.409   0.212 -0.1026 -0.5612  1.2264
  427ETH     HO 3838   5.469   5.614   0.166  0.0569  0.0309  1.4564
  427ETH     HC 3839   5.437   5.394   0.151 -0.3869  0.6085  0.4868
  427ETH     HC 3840   5.404   5.447   0.319  2.4931  0.2354  0.0521
  427ETH     HC 3841   5.211   5.397   0.106  2.6162 -3.2652  0.9613
  427ETH     HC 3842   5.228   5.309   0.255 -2.5634 -1.2425 -0.3747
  427ETH     HC 3843   5.160   5.488   0.241 -0.4229 -0.2339 -0.4033
  428ETH     OH 3844   1.717   2.609   4.212  0.5696 -0.5096  0.3042
  428ETH     CH 3845   1.631   2.550   4.308 -0.5728  0.2847 -0.2197
  428ETH     CH 3846   1.704   2.528   4.440 -0.0232  0.4725 -0.4925
  428ETH     HO 3847   1.673   2.582   4.133  1.1686  0.2224 -0.2843
  428ETH     HC 3848   1.532   2.593   4.325  0.2558  1.7182  1.1539
  428ETH     HC 3849   1.615   2.452   4.262 -1.6678 -0.1626  1.0890
  428ETH     HC 3850   1.662   2.440   4.489  2.5996  0.5613  2.0892
  428ETH     HC 3851   1.807   2.497   4.424 -0.0513 -1.6529  2.8273
  428ETH     HC 3852   1.687   2.613   4.506  0.9746  0.7439 -0.5663
  429ETH     OH 3853   3.048   4.381   0.978  0.1457  0.2749 -0.1717
  429ETH     CH 3854   3.166   4.303   0.977  0.0941  0.1916  0.2915
  429ETH     CH 3855   3.188   4.214   0.855 -0.2288  0.1944  0.2305
  429ETH     HO 3856   3.047   4.451   1.040 -0.1601 -0.8798  1.1481
  429ETH     HC 3857   3.244   4.378   0.972  2.3729 -1.8695  3.0125
  429ETH     HC 3858   3.172   4.254   1.074 -2.0018 -2.9372 -1.0939
  429ETH     HC 3859   3.187   4.274   0.764  0.4359  1.6519  1.1667
  429ETH     HC 3860   3.283   4.160   0.855 -0.4185 -0.1636 -1.6203
  429ETH     HC 3861   3.119   4.130   0.847 -1.5200  1.3510 -0.9241
  430ETH     OH 3862   2.621   0.717   6.225  0.0992 -0.6282 -0.1586
  430ETH     CH 3863   2.610   0.708   6.084 -0.1117 -0.5632 -0.1458
  430ETH     CH 3864   2.460   0.717   6.053 -0.2174 -0.1041  0.4672
  430ETH     HO 3865   2.689   0.783   6.234 -0.8500  0.9571 -3.4705
  430ETH     HC 3866   2.670   0.787   6.040  2.0340 -1.7156  0.6678
  430ETH     HC 3867   2.651   0.613   6.051  1.7015  0.5255 -1.0668
  430ETH     HC 3868   2.430   0.820   6.069 -3.0572 -0.7358 -0.4230
  430ETH     HC 3869   2.430   0.686   5.953  0.1291 -3.0050  1.2239
  430ETH     HC 3870   2.399   0.654   6.117 -2.0206  0.0836 -1.0298
  431ETH     OH 3871   3.052   3.250   0.818 -0.3544  0.4608  0.3035
  431ETH     CH 3872   2.922   3.303   0.806 -0.3252  0.4260 -0.1712
  431ETH     CH 3873   2.842   3.175   0.780 -0.2020  0.3041  0.0458
  431ETH     HO 3874   3.113   3.314   0.852  0.8411 -0.4103 -0.1576
  431ETH     HC 3875   2.883   3.342   0.900 -2.4797 -0.5388 -0.6211
  431ETH     HC 3876   2.913   3.378   0.728 -2.0805  0.0372 -0.3568
  431ETH     HC 3877   2.735   3.193   0.771 -0.1298  0.1134 -1.2597
  431ETH     HC 3878   2.878   3.130   0.688  0.0688 -0.5139  0.5435
  431ETH     HC 3879   2.847   3.098   0.857 -1.5484 -0.6589 -0.8154
  432ETH     OH 3880   3.813   3.137   3.786  0.2726  0.0594  0.2505
  432ETH     CH 3881   3.687   3.183   3.827 -0.1608  0.0362 -1.0175
  432ETH     CH 3882   3.681   3.316   3.903  0.1113 -0.3987 -0.2220
  432ETH     HO 3883   3.809   3.043   3.778  1.5846 -0.1405  1.6733
  432ETH     HC 3884   3.619   3.180   3.742 -1.7129  1.0347  0.1510
  432ETH     HC 3885   3.646   3.113   3.900 -1.2488 -0.8794 -2.4825
  432ETH     HC 3886   3.710   3.400   3.840  1.1778  0.4596  1.3827
  432ETH     HC 3887   3.579   3.338   3.934 -0.2864 -1.3805 -0.8254
  432ETH     HC 3888   3.740   3.301   3.993 -1.7215 -0.9204  0.9102
  433ETH     OH 3889   1.556   0.924   0.956  0.1063 -0.1190  0.3710
  433ETH     CH 3890   1.691   0.884   0.955 -0.0211 -0.5373 -0.6469
  433ETH     CH 3891   1.697   0.735   0.992  0.4796 -0.3032  0.2182
  433ETH     HO 3892   1.503   0.884   0.889 -0.9340 -0.0359  1.1269
  433ETH     HC 3893   1.731   0.899   0.855  0.0669 -3.5236 -1.1155
  433ETH     HC 3894   1.742   0.944   1.029 -0.8916  1.1826 -1.4047
  433ETH     HC 3895   1.639   0.671   0.926  0.0198  1.1023 -0.7704
  433ETH     HC 3896   1.800   0.700   1.003  0.4536  0.3197  2.7355
  433ETH     HC 3897   1.665   0.721   1.095 -2.1861  2.7866 -0.1069
  434ETH     OH 3898   6.082   2.237   2.753  0.3727 -0.6007 -0.4764
  434ETH     CH 3899   6.200   2.160   2.748  0.4199 -0.5414 -0.2927
  434ETH     CH 3900   6.309   2.246   2.683  0.0546  0.3266  0.2384
  434ETH     HO 3901   6.041   2.222   2.837  2.0255 -2.1294  0.0964
  434ETH     HC 3902   6.228   2.128   2.849  2.2193  0.6934 -0.3610
  434ETH     HC 3903   6.174   2.069   2.694 -0.5031  0.3309 -1.3530
  434ETH     HC 3904   6.353   2.320   2.751 -0.4428  0.0979  0.8170
  434ETH     HC 3905   6.396   2.182   2.671  0.6311  0.7892  1.7977
  434ETH     HC 3906   6.270   2.289   2.591  3.4967  0.9903 -0.9812
  435ETH     OH 3907   3.001   5.621   4.034  0.3791 -0.3959 -0.2946
  435ETH     CH 3908   2.993   5.507   4.117  0.7809 -0.2163 -0.0092
  435ETH     CH 3909   2.925   5.540   4.250  0.6828  0.8078 -0.3136
  435ETH     HO 3910   3.016   5.599   3.944  2.8317  0.7404 -0.2017
  435ETH     HC 3911   2.942   5.421   4.074  3.2979 -1.1309 -1.2975
  435ETH     HC 3912   3.095   5.470   4.131  1.5962  2.3420  1.0443
  435ETH     HC 3913   2.821   5.560   4.226 -0.0960 -3.5336 -0.9014
  435ETH     HC 3914   2.920   5.458   4.321  2.5253  1.5907  0.7629
  435ETH     HC 3915   2.977   5.623   4.298  2.0195 -0.1518 -0.0728
  436ETH     OH 3916   4.582   0.224   3.281 -0.0224  0.8008 -0.1039
  436ETH     CH 3917   4.448   0.256   3.312 -0.2316 -0.1329 -0.0256
  436ETH     CH 3918   4.411   0.181   3.440  0.2393 -0.0159  0.1796
  436ETH     HO 3919   4.583   0.130   3.272 -1.7463  0.7559 -0.0583
  436ETH     HC 3920   4.455   0.364   3.324  0.9328 -0.2724  0.6037
  436ETH     HC 3921   4.387   0.229   3.226 -1.1190  0.1442  0.5179
  436ETH     HC 3922   4.310   0.199   3.476 -0.6994 -3.6426 -0.4855
  436ETH     HC 3923   4.444   0.078   3.441 -0.0064 -0.0922  2.6216
  436ETH     HC 3924   4.463   0.224   3.526  1.7045  1.7630 -1.5223
  437ETH     OH 3925   0.591   4.527   4.295 -0.1136  0.5980 -0.0260
  437ETH     CH 3926   0.701   4.541   4.381  0.3360 -0.1942 -0.4742
  437ETH     CH 3927   0.689   4.676   4.452  0.2755 -0.3803 -0.1331
  437ETH     HO 3928   0.609   4.561   4.208 -0.9364  1.6772  0.2045
  437ETH     HC 3929   0.700   4.452   4.443  0.4838 -0.7885 -1.3161
  437ETH     HC 3930   0.800   4.545   4.335  0.1844  1.2463 -0.6987
  437ETH     HC 3931   0.728   4.671   4.554  0.8807 -2.5565 -0.4391
  437ETH     HC 3932   0.719   4.759   4.388 -0.1177 -1.9247 -2.3858
  437ETH     HC 3933   0.583   4.695   4.472 -0.1648 -2.8556  0.0438
  438ETH     OH 3934   4.336   2.604   4.681  0.1715  0.1693 -0.3694
  438ETH     CH 3935   4.259   2.629   4.566 -0.0669  0.4295 -0.1542
  438ETH     CH 3936   4.355   2.651   4.449  0.5299  0.1098  0.2706
  438ETH     HO 3937   4.270   2.580   4.744 -1.1618  3.2955 -0.4717
  438ETH     HC 3938   4.197   2.711   4.602  1.3709  1.1155  0.7791
  438ETH     HC 3939   4.203   2.536   4.559 -0.7505  0.7897  0.4774
  438ETH     HC 3940   4.291   2.686   4.367  1.8112 -3.7955 -2.5640
  438ETH     HC 3941   4.422   2.735   4.465 -0.9824  1.1727  1.1478
  438ETH     HC 3942   4.410   2.563   4.415 -0.9116 -0.2572 -1.1744
  439ETH     OH 3943   5.651   1.023   4.258 -0.2648  0.3064  0.0199
  439ETH     CH 3944   5.698   0.952   4.370 -0.1780  0.5130  0.1151
  439ETH     CH 3945   5.845   0.912   4.368 -0.4996 -0.6522 -0.9096
  439ETH     HO 3946   5.562   1.047   4.279 -0.3067 -0.5864  0.9092
  439ETH     HC 3947   5.681   1.022   4.452 -0.6298  0.1491  0.3351
  439ETH     HC 3948   5.640   0.860   4.374  1.4720 -0.4940  1.5034
  439ETH     HC 3949   5.867   0.822   4.425  1.5342  0.0720 -0.5043
  439ETH     HC 3950   5.891   0.914   4.269  0.4464  1.0535 -0.4698
  439ETH     HC 3951   5.897   0.996   4.416 -0.9570 -0.3509 -0.9389
  440ETH     OH 3952   6.263   6.063   4.009  0.0940 -0.6363 -0.3833
  440ETH     CH 3953   6.237   6.191   3.957 -0.8436 -0.7747 -0.2658
  440ETH     CH 3954   6.371   6.255   3.922 -0.8125 -0.3746  0.5805
  440ETH     HO 3955   6.185   6.025   4.047 -0.2424 -1.5787 -1.9865
  440ETH     HC 3956   6.185   6.185   3.861 -0.1252 -0.7614 -0.6614
  440ETH     HC 3957   6.184   6.265   4.017  1.0762 -0.7437  1.4583
  440ETH     HC 3958   6.356   6.358   3.887  1.4371 -0.0994  0.3564
  440ETH     HC 3959   6.444   6.262   4.003  1.2318 -0.1377 -1.2338
  440ETH     HC 3960   6.420   6.198   3.843 -1.4110 -0.0505 -0.0295
  441ETH     OH 3961   2.233   0.201   6.259  0.3304 -0.4633 -0.5628
  441ETH     CH 3962   2.127   0.129   6.201 -0.1498 -0.5158  0.3797
  441ETH     CH 3963   2.183   0.052   6.082  0.1400 -0.1586  0.2865
  441ETH     HO 3964   2.183   0.269   6.303  0.4831 -0.4833 -0.3612
  441ETH     HC 3965   2.083   0.051   6.264 -1.1680 -0.1196  0.1697
  441ETH     HC 3966   2.041   0.187   6.167 -0.4317  0.9375  3.3996
  441ETH     HC 3967   2.212   0.115   5.998 -0.3752 -2.2191 -1.4816
  441ETH     HC 3968   2.265  -0.009   6.120  0.4432  0.5059  0.7011
  441ETH     HC 3969   2.104  -0.017   6.054  0.2221 -1.3709  2.9583
  442ETH     OH 3970   5.918   1.588   5.696  0.3081  0.0919  0.1004
  442ETH     CH 3971   6.002   1.687   5.750  0.1038  0.2232  0.1792
  442ETH     CH 3972   6.072   1.755   5.632 -0.3228  0.2704 -0.0464
  442ETH     HO 3973   5.866   1.551   5.766 -1.0415 -2.1642 -2.0107
  442ETH     HC 3974   5.934   1.759   5.796  2.9203  1.0384  3.2566
  442ETH     HC 3975   6.075   1.670   5.830  1.2086  0.4705 -0.7622
  442ETH     HC 3976   6.118   1.686   5.562 -1.0310 -0.5243  0.2623
  442ETH     HC 3977   6.006   1.825   5.581  3.0260  2.9288 -0.9142
  442ETH     HC 3978   6.151   1.819   5.670 -1.7140  2.0906 -0.1300
  443ETH     OH 3979   4.853   1.577   3.527  0.4181  0.2220 -0.1907
  443ETH     CH 3980   4.813   1.453   3.474  0.0863  0.1282  0.2756
  443ETH     CH 3981   4.852   1.338   3.568 -0.3827 -0.4723 -0.2590
  443ETH     HO 3982   4.813   1.579   3.613 -0.8270  0.0947 -0.7523
  443ETH     HC 3983   4.705   1.456   3.465 -0.1294  0.1526  2.4060
  443ETH     HC 3984   4.853   1.428   3.376  0.6264 -0.2026  0.5737
  443ETH     HC 3985   4.828   1.239   3.531 -1.0125 -0.3873 -0.1018
  443ETH     HC 3986   4.959   1.340   3.588 -0.3256 -1.3429 -0.4817
  443ETH     HC 3987   4.801   1.355   3.664  0.5261 -1.3500  0.3809
  444ETH     OH 3988   3.413   2.429   3.846  0.2910  0.1768 -0.2735
  444ETH     CH 3989   3.352   2.321   3.779  0.1228  0.2156 -0.1824
  444ETH     CH 3990   3.394   2.205   3.869  0.1495 -0.2598 -0.8013
  444ETH     HO 3991   3.395   2.506   3.793 -0.9013  0.9037  1.1704
  444ETH     HC 3992   3.245   2.341   3.780  0.4268  1.8753  1.6909
  444ETH     HC 3993   3.396   2.312   3.680 -1.9562  0.8056 -1.1982
  444ETH     HC 3994   3.494   2.214   3.911  0.0733  0.7363 -0.8172
  444ETH     HC 3995   3.330   2.175   3.952  3.0133 -2.1507  0.8144
  444ETH     HC 3996   3.400   2.117   3.805  1.3614  0.2476 -1.3809
  445ETH     OH 3997   3.965   1.916   1.270  0.4168  0.1993  0.0554
  445ETH     CH 3998   3.947   1.942   1.408 -0.0038  0.3549 -0.0259
  445ETH     CH 3999   4.022   1.848   1.503 -0.1669 -0.1588 -0.4023
  445ETH     HO 4000   3.895   1.962   1.225 -0.2681 -0.1352  0.7680
  445ETH     HC 4001   3.983   2.043   1.422  1.3328  0.1126 -1.4870
  445ETH     HC 4002   3.840   1.940   1.429 -0.4843 -0.5845 -2.3129
  445ETH     HC 4003   3.964   1.756   1.493 -1.5348  0.5107  1.0575
  445ETH     HC 4004   4.116   1.836   1.449 -1.9810  0.2131 -3.8279
  445ETH     HC 4005   4.027   1.885   1.605  0.2446  2.3017 -1.2770
  446ETH     OH 4006   1.142   0.836   2.427 -0.2168 -0.2594  0.4452
  446ETH     CH 4007   1.130   0.917   2.542  0.3067 -0.0584  0.3605
  446ETH     CH 4008   1.107   1.057   2.485 -0.8154 -0.0696  0.7637
  446ETH     HO 4009   1.158   0.753   2.469  0.6521  0.5161  1.6630
  446ETH     HC 4010   1.053   0.884   2.613 -1.1867 -0.2198 -1.2830
  446ETH     HC 4011   1.224   0.919   2.596  1.3427  2.8577 -1.4650
  446ETH     HC 4012   1.189   1.078   2.417 -0.1846 -0.5757  1.3643
  446ETH     HC 4013   1.025   1.051   2.413  2.3092 -1.5652 -2.9080
  446ETH     HC 4014   1.083   1.131   2.561  1.2622  0.9235  0.5001
  447ETH     OH 4015   2.321   3.530   0.926 -0.7707 -0.2029 -0.5126
  447ETH     CH 4016   2.317   3.447   1.040  0.6156  0.0082 -0.2939
  447ETH     CH 4017   2.459   3.393   1.060  0.4613 -0.1936  0.2716
  447ETH     HO 4018   2.377   3.605   0.942  0.5822 -1.7332  2.4192
  447ETH     HC 4019   2.276   3.509   1.120  2.4874  1.0304 -0.0923
  447ETH     HC 4020   2.245   3.368   1.018  0.2992 -0.0041  0.7681
  447ETH     HC 4021   2.455   3.336   1.152  2.6922 -1.6308 -0.4917
  447ETH     HC 4022   2.492   3.326   0.981 -1.2366 -1.6180  0.7340
  447ETH     HC 4023   2.538   3.467   1.069  0.2338  0.1150 -0.1948
  448ETH     OH 4024   5.349   1.062   5.474 -0.3254  0.4624 -0.4200
  448ETH     CH 4025   5.237   1.055   5.560 -0.2233  0.5976 -0.2745
  448ETH     CH 4026   5.212   0.906   5.586  0.1896  0.4536 -0.6917
  448ETH     HO 4027   5.351   1.146   5.433 -0.0077  0.3588 -0.6145
  448ETH     HC 4028   5.272   1.106   5.649  0.8365 -2.8159  1.3377
  448ETH     HC 4029   5.152   1.106   5.515  0.5480  2.8770  0.7788
  448ETH     HC 4030   5.199   0.847   5.496  1.0216 -0.9712  0.1057
  448ETH     HC 4031   5.301   0.868   5.637  0.0363  0.8312 -0.1372
  448ETH     HC 4032   5.133   0.889   5.659  0.7017  0.9478 -0.0061
  449ETH     OH 4033   6.244   4.371   2.455  0.1189 -0.5817  0.0255
  449ETH     CH 4034   6.266   4.272   2.553  0.6594 -0.7086 -0.2214
  449ETH     CH 4035   6.322   4.340   2.678  0.0246 -0.7697  0.0988
  449ETH     HO 4036   6.210   4.325   2.379  0.7300 -2.4825  0.8837
  449ETH     HC 4037   6.180   4.209   2.574 -1.6565  2.5256  0.3542
  449ETH     HC 4038   6.338   4.213   2.496  2.8675  1.2693  0.4523
  449ETH     HC 4039   6.291   4.290   2.770  0.9788  1.2993  1.5832
  449ETH     HC 4040   6.430   4.327   2.675  0.0013 -0.9634  0.0878
  449ETH     HC 4041   6.282   4.439   2.696 -1.3703 -1.3136  0.0636
  450ETH     OH 4042   2.334   3.731   4.545  0.1545  0.1523 -0.7401
  450ETH     CH 4043   2.459   3.676   4.514  0.3488  0.0027  0.2988
  450ETH     CH 4044   2.564   3.784   4.540  0.3260  0.0946  0.0098
  450ETH     HO 4045   2.269   3.664   4.531  2.0165 -2.5164  2.5835
  450ETH     HC 4046   2.479   3.588   4.575 -0.7679 -1.0580 -0.8347
  450ETH     HC 4047   2.439   3.649   4.410 -1.5110 -3.4809  1.4686
  450ETH     HC 4048   2.559   3.813   4.645 -2.9051  1.1635 -0.3923
  450ETH     HC 4049   2.659   3.737   4.515  0.4107  0.6335 -0.7121
  450ETH     HC 4050   2.554   3.874   4.478  0.3597 -0.1472 -0.3485
  451ETH     OH 4051   4.622   0.990   0.514 -0.6634  0.3429 -0.2069
  451ETH     CH 4052   4.546   0.894   0.583 -0.2493 -0.0431 -0.2778
  451ETH     CH 4053   4.418   0.972   0.615 -0.3536 -0.2480 -0.1955
  451ETH     HO 4054   4.571   1.035   0.448  2.4836  1.2031 -2.1733
  451ETH     HC 4055   4.525   0.800   0.533 -0.3712 -0.5469  0.7146
  451ETH     HC 4056   4.596   0.861   0.674  2.1687  0.3313 -1.4252
  451ETH     HC 4057   4.449   1.062   0.669  2.7670 -2.3138  1.5880
  451ETH     HC 4058   4.360   0.998   0.526  1.2687 -0.3903 -1.3296
  451ETH     HC 4059   4.356   0.912   0.681  1.3270 -0.0135  1.6290
  452ETH     OH 4060   5.401   4.487   3.733 -0.0295  0.1511  0.1783
  452ETH     CH 4061   5.415   4.389   3.833  0.0039  0.0229  0.0488
  452ETH     CH 4062   5.300   4.288   3.830  0.0023  0.0279 -0.0317
  452ETH     HO 4063   5.489   4.517   3.713  0.1640 -1.3971 -1.3890
  452ETH     HC 4064   5.510   4.340   3.815  1.4064  2.8231 -0.4881
  452ETH     HC 4065   5.430   4.437   3.930 -0.6794 -0.5191  0.4316
  452ETH     HC 4066   5.206   4.343   3.841  0.5151  0.9573 -0.1668
  452ETH     HC 4067   5.292   4.238   3.734 -2.8181 -0.2652  0.3072
  452ETH     HC 4068   5.307   4.224   3.918 -0.1714 -1.2240 -0.9159
  453ETH     OH 4069   3.525   3.424   2.036 -0.1016 -0.3022  0.2865
  453ETH     CH 4070   3.546   3.329   1.933  0.0127 -0.1873  0.2055
  453ETH     CH 4071   3.412   3.307   1.865  0.0210  0.3876 -0.0004
  453ETH     HO 4072   3.606   3.461   2.066  0.7419 -1.8278 -0.0762
  453ETH     HC 4073   3.615   3.364   1.856 -0.1024  0.9978  0.6162
  453ETH     HC 4074   3.594   3.238   1.967  0.6112  1.0441  2.8180
  453ETH     HC 4075   3.430   3.257   1.770  0.6381  0.9105 -0.1620
  453ETH     HC 4076   3.342   3.237   1.910  1.2397 -0.0612  1.2169
  453ETH     HC 4077   3.368   3.405   1.843  3.1660  1.4452 -1.8994
  454ETH     OH 4078   4.642   5.882   4.892  0.0024  0.4844  0.2699
  454ETH     CH 4079   4.706   5.999   4.844 -0.0018  0.2610 -0.2837
  454ETH     CH 4080   4.589   6.098   4.839 -0.3085 -0.0933 -0.1837
  454ETH     HO 4081   4.667   5.807   4.839 -0.4569 -0.3075  1.1799
  454ETH     HC 4082   4.790   6.026   4.908 -0.3917 -1.7347  1.1393
  454ETH     HC 4083   4.749   5.973   4.747 -0.6481  2.7806 -1.2840
  454ETH     HC 4084   4.635   6.195   4.818 -0.3970  0.2078  1.0241
  454ETH     HC 4085   4.514   6.068   4.765  1.1089 -2.7284 -0.6112
  454ETH     HC 4086   4.543   6.107   4.937 -2.6708  0.3694 -1.3131
  455ETH     OH 4087   4.802   6.230   1.753  0.0697 -0.2158 -0.0114
  455ETH     CH 4088   4.898   6.138   1.705 -0.1405 -0.6672  0.4324
  455ETH     CH 4089   5.028   6.208   1.669 -0.6233 -0.0981 -0.2191
  455ETH     HO 4090   4.839   6.259   1.835 -2.9296 -0.0896  1.3391
  455ETH     HC 4091   4.916   6.046   1.761  1.8291 -1.1726 -0.9567
  455ETH     HC 4092   4.874   6.096   1.607 -0.0454  0.1826  0.0489
  455ETH     HC 4093   5.090   6.132   1.620 -0.2728 -0.2760  0.4949
  455ETH     HC 4094   4.999   6.286   1.599 -0.2621  0.3936  0.1758
  455ETH     HC 4095   5.069   6.262   1.754  0.6825 -0.0295 -0.8718
  456ETH     OH 4096   3.405   1.555   6.270  0.8054 -0.0699 -0.3799
  456ETH     CH 4097   3.517   1.494   6.211  0.3637 -0.6472 -0.6286
  456ETH     CH 4098   3.615   1.606   6.177  0.2814 -0.4858 -0.3394
  456ETH     HO 4099   3.365   1.618   6.212 -0.0032  0.5474  0.8346
  456ETH     HC 4100   3.572   1.432   6.282 -0.3951  0.2981  0.7950
  456ETH     HC 4101   3.487   1.450   6.115  2.1993 -0.1141 -1.4807
  456ETH     HC 4102   3.654   1.649   6.269  0.5600 -0.0983 -0.6350
  456ETH     HC 4103   3.700   1.574   6.116  0.8874 -2.9279  1.7016
  456ETH     HC 4104   3.569   1.692   6.128 -1.0592 -1.1766 -0.3040
  457ETH     OH 4105   4.093   1.918   6.017  0.5911  0.3557 -0.0914
  457ETH     CH 4106   4.182   1.989   5.934 -0.0272  0.7678 -0.4048
  457ETH     CH 4107   4.248   1.910   5.822  0.0395  0.2792 -0.0207
  457ETH     HO 4108   4.106   1.958   6.102  1.6080  0.4081 -0.2681
  457ETH     HC 4109   4.131   2.079   5.900 -0.6408 -0.3342 -2.4635
  457ETH     HC 4110   4.262   2.042   5.986  0.1231 -1.0054  1.2249
  457ETH     HC 4111   4.335   1.854   5.859  1.7415  3.2907  0.6803
  457ETH     HC 4112   4.174   1.843   5.779  0.2340 -0.7050  1.1347
  457ETH     HC 4113   4.288   1.978   5.747 -1.2083  0.7966 -0.2155
  458ETH     OH 4114   4.758   3.417   0.854 -0.1827  0.2198 -0.4527
  458ETH     CH 4115   4.888   3.470   0.864 -0.0666 -0.1033 -0.2332
  458ETH     CH 4116   4.979   3.409   0.757 -0.4987  0.2975 -0.8306
  458ETH     HO 4117   4.727   3.423   0.943 -1.3180 -0.6547 -0.7785
  458ETH     HC 4118   4.899   3.577   0.848  1.1603  0.1439  2.0967
  458ETH     HC 4119   4.932   3.457   0.963  0.0887  0.9850 -0.1529
  458ETH     HC 4120   4.951   3.445   0.658  2.7919  2.2615 -1.1298
  458ETH     HC 4121   5.075   3.456   0.777 -0.5914 -0.1793  0.7565
  458ETH     HC 4122   4.986   3.301   0.764 -1.6430  0.2023 -0.9695
  459ETH     OH 4123   0.243   2.518   1.676 -0.2500  0.4560 -0.1344
  459ETH     CH 4124   0.349   2.515   1.769 -0.2544  0.0760 -0.1421
  459ETH     CH 4125   0.304   2.533   1.914  0.0641  0.4962 -0.0942
  459ETH     HO 4126   0.260   2.599   1.630 -0.3217  0.9503  0.7056
  459ETH     HC 4127   0.407   2.425   1.745 -1.2605 -1.1813  2.0196
  459ETH     HC 4128   0.416   2.596   1.741  1.9559 -1.6466 -0.0158
  459ETH     HC 4129   0.229   2.611   1.928  0.4369  1.2264 -2.0509
  459ETH     HC 4130   0.254   2.440   1.940 -0.4729 -0.1273 -3.1831
  459ETH     HC 4131   0.390   2.548   1.979  1.0789  1.8847 -1.7299
  460ETH     OH 4132   2.265   1.736   2.068  0.3633  0.2444  0.0607
  460ETH     CH 4133   2.269   1.865   2.012 -0.7216  0.0849 -0.3937
  460ETH     CH 4134   2.291   1.974   2.117 -0.3181 -0.2643 -0.1165
  460ETH     HO 4135   2.355   1.716   2.088  0.4507  0.5146 -0.0688
  460ETH     HC 4136   2.348   1.877   1.938  0.3282  0.8675  0.8280
  460ETH     HC 4137   2.172   1.887   1.966 -1.9543  0.4680  2.2380
  460ETH     HC 4138   2.202   2.016   2.164 -0.0328  0.6657 -0.3821
  460ETH     HC 4139   2.345   1.943   2.206  0.7060 -2.5991 -1.5218
  460ETH     HC 4140   2.362   2.052   2.088 -1.1095  0.1909 -0.8572
  461ETH     OH 4141   5.216   3.999   0.951 -0.6624  0.1815  0.1327
  461ETH     CH 4142   5.212   3.858   0.951  0.4896  0.1443  0.0532
  461ETH     CH 4143   5.345   3.787   0.929  0.1489 -0.3360 -0.4668
  461ETH     HO 4144   5.267   4.034   1.022 -0.1296 -0.1379 -0.0945
  461ETH     HC 4145   5.165   3.836   1.047 -1.8993  1.0166 -0.8868
  461ETH     HC 4146   5.142   3.823   0.875  1.0284 -0.5766 -0.1104
  461ETH     HC 4147   5.331   3.679   0.928 -2.7533 -0.0332  2.1945
  461ETH     HC 4148   5.398   3.821   0.839  0.2530 -1.5418 -0.8644
  461ETH     HC 4149   5.414   3.822   1.006 -0.9301  2.3435 -0.6679
  462ETH     OH 4150   5.143   0.802   0.359  0.2982 -0.4500 -0.0869
  462ETH     CH 4151   5.040   0.749   0.440 -0.0726  0.7002  0.2024
  462ETH     CH 4152   4.911   0.824   0.408 -0.1807 -0.0289 -1.1527
  462ETH     HO 4153   5.150   0.769   0.271  0.3794  0.8833 -0.5744
  462ETH     HC 4154   5.022   0.643   0.423 -1.7812  0.5777  2.6780
  462ETH     HC 4155   5.074   0.764   0.542 -0.5625  1.2881  0.2800
  462ETH     HC 4156   4.879   0.801   0.307  0.4929 -1.6104 -1.0129
  462ETH     HC 4157   4.822   0.806   0.469  0.1297 -1.8451 -1.2100
  462ETH     HC 4158   4.944   0.928   0.407 -1.3472  0.4418  1.8483
  463ETH     OH 4159   4.764   1.643   3.778  0.0819  0.1708 -0.1484
  463ETH     CH 4160   4.758   1.600   3.913  0.3864 -0.1385 -0.2324
  463ETH     CH 4161   4.860   1.487   3.929 -0.1776 -0.6115  0.0470
  463ETH     HO 4162   4.695   1.705   3.760  0.0084  0.2728  0.4664
  463ETH     HC 4163   4.784   1.690   3.968 -0.8619  1.0365 -1.5262
  463ETH     HC 4164   4.656   1.571   3.936  0.3500  0.1184 -0.0651
  463ETH     HC 4165   4.883   1.455   4.030 -0.0884  2.4608  1.0597
  463ETH     HC 4166   4.829   1.393   3.884  1.9692 -1.6480  0.6969
  463ETH     HC 4167   4.955   1.532   3.898 -1.0324  1.5532  0.4894
  464ETH     OH 4168   3.251   2.117   6.241  0.1573  0.4478 -0.2770
  464ETH     CH 4169   3.174   2.211   6.311 -0.7178 -0.2354 -0.3131
  464ETH     CH 4170   3.091   2.295   6.213 -0.5454  0.3886  0.0723
  464ETH     HO 4171   3.290   2.054   6.300  0.4942  1.8687  1.0638
  464ETH     HC 4172   3.123   2.146   6.381  1.7133 -2.0293 -0.1490
  464ETH     HC 4173   3.244   2.275   6.365 -1.3827  0.4755 -0.2700
  464ETH     HC 4174   3.045   2.377   6.268 -1.3422 -0.2127  0.3088
  464ETH     HC 4175   3.147   2.339   6.131 -0.4776 -2.6579 -1.5807
  464ETH     HC 4176   3.016   2.246   6.152  0.3697  0.3432 -1.0347
  465ETH     OH 4177   2.851   3.906   6.109  0.0240  0.2376  0.1827
  465ETH     CH 4178   2.818   3.770   6.088  0.2725  0.1872  0.1229
  465ETH     CH 4179   2.762   3.750   5.947 -0.2718  0.9135  0.2324
  465ETH     HO 4180   2.914   3.917   6.040  1.1985 -0.9056  1.0459
  465ETH     HC 4181   2.907   3.711   6.111 -0.3974 -0.4759  0.9959
  465ETH     HC 4182   2.740   3.745   6.159  0.4186  0.9664  0.5588
  465ETH     HC 4183   2.825   3.780   5.863 -1.0647  0.8869 -0.3799
  465ETH     HC 4184   2.747   3.642   5.940  0.0981  0.9242 -0.8360
  465ETH     HC 4185   2.663   3.794   5.932 -0.9964 -0.0850  1.9189
  466ETH     OH 4186   0.774   4.118   0.702 -0.0872 -0.0133  0.3014
  466ETH     CH 4187   0.878   4.209   0.675 -0.0470 -0.3822 -0.7918
  466ETH     CH 4188   1.008   4.158   0.737  0.1841 -0.0606 -1.0069
  466ETH     HO 4189   0.782   4.046   0.642  0.1358  0.1340  0.1527
  466ETH     HC 4190   0.902   4.220   0.569 -0.4847  1.1501 -0.7492
  466ETH     HC 4191   0.855   4.310   0.710  1.8091 -0.6181  1.2058
  466ETH     HC 4192   0.996   4.137   0.843  4.6928 -1.9506 -0.7765
  466ETH     HC 4193   1.050   4.066   0.694  1.0389 -0.5509  0.8308
  466ETH     HC 4194   1.088   4.231   0.735 -0.0726  0.3101  1.2210
  467ETH     OH 4195   2.476   5.261   1.164  0.2482  0.2783  0.0424
  467ETH     CH 4196   2.446   5.366   1.075  0.1430  0.1129 -0.1158
  467ETH     CH 4197   2.380   5.488   1.140  0.3746  0.2488 -0.1347
  467ETH     HO 4198   2.543   5.207   1.126  0.6530 -0.3186  1.5662
  467ETH     HC 4199   2.541   5.390   1.028  1.0096 -1.1903  0.9254
  467ETH     HC 4200   2.377   5.338   0.995  0.3781  0.6127 -0.4924
  467ETH     HC 4201   2.292   5.464   1.199 -0.7229  0.7352 -1.5480
  467ETH     HC 4202   2.451   5.547   1.198 -0.1971 -0.8420  1.7181
  467ETH     HC 4203   2.337   5.543   1.056  1.1753  0.6692 -0.2818
  468ETH     OH 4204   4.333   1.332   1.343  0.2873 -0.5349  0.0473
  468ETH     CH 4205   4.271   1.448   1.393  0.5257 -0.4541  0.1581
  468ETH     CH 4206   4.219   1.434   1.536  0.2184 -0.5251  0.0409
  468ETH     HO 4207   4.322   1.325   1.250  1.2285  0.4874 -0.1593
  468ETH     HC 4208   4.340   1.530   1.373 -0.6373  0.5772  0.2708
  468ETH     HC 4209   4.186   1.476   1.330  1.7532  1.2349 -0.7897
  468ETH     HC 4210   4.141   1.360   1.553 -0.7747  0.9929  2.3770
  468ETH     HC 4211   4.301   1.419   1.606  0.5663  0.8197 -0.0680
  468ETH     HC 4212   4.171   1.527   1.569  1.4569  0.0576  0.2355
  469ETH     OH 4213   5.626   2.468   1.211 -0.3463 -0.4403  0.0329
  469ETH     CH 4214   5.524   2.445   1.116 -0.1841  0.2168 -0.3013
  469ETH     CH 4215   5.428   2.560   1.085  0.0356  0.6680  0.6702
  469ETH     HO 4216   5.579   2.496   1.288  1.2776  2.4289  0.0314
  469ETH     HC 4217   5.576   2.407   1.029  1.1935  0.8821  0.2149
  469ETH     HC 4218   5.468   2.359   1.154 -4.6414  2.8708 -0.5555
  469ETH     HC 4219   5.379   2.539   0.990  0.6311  0.2413  0.4559
  469ETH     HC 4220   5.349   2.578   1.159 -0.4585 -0.6608  0.4722
  469ETH     HC 4221   5.490   2.650   1.075  0.0058  0.5627 -0.5079
  470ETH     OH 4222   0.407   3.398   3.345 -0.2699  0.2436  0.4668
  470ETH     CH 4223   0.464   3.502   3.421  0.1648  0.3884 -0.0528
  470ETH     CH 4224   0.453   3.633   3.344 -0.2805  0.4820  0.1700
  470ETH     HO 4225   0.315   3.402   3.362 -0.5978 -0.3265 -1.0726
  470ETH     HC 4226   0.427   3.522   3.521  0.9100  1.5681 -0.0051
  470ETH     HC 4227   0.568   3.473   3.438 -0.1396 -1.0423 -0.5623
  470ETH     HC 4228   0.515   3.708   3.393  1.1168 -1.0596  0.7994
  470ETH     HC 4229   0.489   3.612   3.243 -0.1846 -3.5202  0.9543
  470ETH     HC 4230   0.347   3.656   3.352 -0.6732 -1.3268  0.2287
  471ETH     OH 4231   3.855   3.708   3.250 -0.3056 -0.1320  0.3690
  471ETH     CH 4232   3.819   3.800   3.351 -0.0459 -0.1865  0.5133
  471ETH     CH 4233   3.672   3.833   3.326  0.2431  1.0193  0.3668
  471ETH     HO 4234   3.924   3.661   3.295 -0.1203 -0.1480  0.0675
  471ETH     HC 4235   3.842   3.759   3.450  0.7966 -1.8316 -0.3395
  471ETH     HC 4236   3.889   3.883   3.342  2.0953 -2.1409 -1.5925
  471ETH     HC 4237   3.628   3.821   3.227  0.7795 -1.4048  0.3876
  471ETH     HC 4238   3.608   3.763   3.381  0.3281  1.3756  0.9199
  471ETH     HC 4239   3.652   3.936   3.353  1.4538  0.9266  1.6889
  472ETH     OH 4240   1.168   0.557   2.445  0.1601  0.0311 -0.0099
  472ETH     CH 4241   1.275   0.565   2.536  0.0890  0.0989  0.0689
  472ETH     CH 4242   1.406   0.559   2.458  0.1088 -0.8542  0.1597
  472ETH     HO 4243   1.100   0.514   2.495  0.4707 -0.7763 -0.2806
  472ETH     HC 4244   1.260   0.652   2.599 -2.2429 -0.2294  0.0166
  472ETH     HC 4245   1.262   0.473   2.594 -2.6440 -0.8728 -1.9864
  472ETH     HC 4246   1.429   0.455   2.436  1.3733 -0.2004 -1.8597
  472ETH     HC 4247   1.404   0.628   2.373  1.5729 -2.0543 -0.8653
  472ETH     HC 4248   1.499   0.591   2.505  0.5687 -2.9596  0.7130
  473ETH     OH 4249   4.904   5.791   0.915 -0.0825 -0.1789  0.4377
  473ETH     CH 4250   4.969   5.698   0.831 -0.7340 -0.4884  0.2741
  473ETH     CH 4251   4.941   5.727   0.684  0.0559 -1.1505 -0.0048
  473ETH     HO 4252   4.966   5.858   0.939  0.9361 -0.7539 -0.5524
  473ETH     HC 4253   5.077   5.692   0.840 -0.7114  0.4192  0.6911
  473ETH     HC 4254   4.928   5.598   0.844  0.6023 -1.0560  0.1715
  473ETH     HC 4255   4.836   5.753   0.673  1.2349  4.4647  0.6306
  473ETH     HC 4256   4.999   5.811   0.646  0.7802 -2.3847 -1.7394
  473ETH     HC 4257   4.981   5.643   0.625  1.5904  0.7555 -1.7773
  474ETH     OH 4258   2.518   4.157   5.915 -0.2433 -0.1463 -0.2864
  474ETH     CH 4259   2.587   4.180   5.794 -0.1838  0.1639 -0.1935
  474ETH     CH 4260   2.652   4.048   5.752 -0.1081  0.2835 -0.4466
  474ETH     HO 4261   2.522   4.237   5.965 -0.6917  1.0279 -2.0834
  474ETH     HC 4262   2.516   4.219   5.721  0.1942  0.6601 -0.2914
  474ETH     HC 4263   2.667   4.252   5.807 -1.0435  1.1298 -0.2503
  474ETH     HC 4264   2.737   4.030   5.818 -1.1540  0.8365  1.0796
  474ETH     HC 4265   2.574   3.973   5.757  0.5633 -0.6187 -2.8092
  474ETH     HC 4266   2.691   4.052   5.650 -1.3840 -1.1130 -1.0057
  475ETH     OH 4267   1.637   5.623   5.703 -0.3941 -0.0475 -0.4116
  475ETH     CH 4268   1.546   5.543   5.777 -0.5307  0.2143 -0.2948
  475ETH     CH 4269   1.573   5.555   5.927  0.5031  0.2409 -0.4729
  475ETH     HO 4270   1.608   5.626   5.613 -1.6413 -1.1982 -0.0667
  475ETH     HC 4271   1.442   5.570   5.761  0.3820  3.3905 -1.3586
  475ETH     HC 4272   1.556   5.439   5.748  0.0293 -0.1068  0.9982
  475ETH     HC 4273   1.681   5.549   5.939  0.5758  0.4107 -1.0192
  475ETH     HC 4274   1.536   5.649   5.969 -0.4370 -1.2062  2.0272
  475ETH     HC 4275   1.540   5.469   5.984  0.1690 -0.4557 -1.6971
  476ETH     OH 4276   1.494   3.204   0.864  0.0385  0.1925  0.0552
  476ETH     CH 4277   1.506   3.320   0.785  0.6115  0.3807  0.4137
  476ETH     CH 4278   1.456   3.447   0.854  0.1199  0.2363  0.3282
  476ETH     HO 4279   1.537   3.130   0.824  2.1988 -0.5721  3.5807
  476ETH     HC 4280   1.607   3.328   0.746  0.5316  1.7509  0.4629
  476ETH     HC 4281   1.441   3.313   0.697 -2.0992 -0.2232  2.4012
  476ETH     HC 4282   1.465   3.529   0.782  0.6680 -0.9552 -0.9833
  476ETH     HC 4283   1.355   3.431   0.891 -0.2747 -1.1051 -1.2883
  476ETH     HC 4284   1.520   3.477   0.937 -0.5502  1.0882  0.5420
  477ETH     OH 4285   0.666   3.538   6.034  0.0278 -0.2119 -0.4684
  477ETH     CH 4286   0.710   3.671   6.050 -0.3577 -0.1054 -0.2881
  477ETH     CH 4287   0.783   3.733   5.931  0.1868  0.3316  0.2672
  477ETH     HO 4288   0.739   3.479   6.046 -0.5320 -1.5847 -3.4171
  477ETH     HC 4289   0.617   3.721   6.077 -0.1111 -0.7519  1.8873
  477ETH     HC 4290   0.774   3.682   6.138 -0.1473  1.8340 -0.6603
  477ETH     HC 4291   0.876   3.678   5.914  0.1259 -0.0348  1.0776
  477ETH     HC 4292   0.724   3.738   5.840  0.4675 -0.0472  0.0603
  477ETH     HC 4293   0.806   3.836   5.958  0.8191  0.3734 -0.4223
  478ETH     OH 4294   5.792   0.596   4.651 -0.7605 -0.2762  0.2207
  478ETH     CH 4295   5.903   0.519   4.691 -0.5280  0.0866  0.2718
  478ETH     CH 4296   5.973   0.587   4.808 -0.5199 -0.5427  0.6296
  478ETH     HO 4297   5.739   0.546   4.591 -4.2070 -0.1815  3.0318
  478ETH     HC 4298   5.869   0.419   4.715 -0.0712  0.4470  2.5431
  478ETH     HC 4299   5.974   0.508   4.609  1.0724 -1.8473  1.8813
  478ETH     HC 4300   5.913   0.591   4.900 -2.3524  1.5719 -0.6014
  478ETH     HC 4301   6.064   0.534   4.837  0.6800  0.5990 -0.9831
  478ETH     HC 4302   5.998   0.693   4.796 -1.9966 -0.3194 -0.5597
  479ETH     OH 4303   0.999   1.487   0.559  0.2855  0.0826  0.3602
  479ETH     CH 4304   1.122   1.420   0.541  0.1981  0.0833 -0.2553
  479ETH     CH 4305   1.164   1.369   0.679  0.4259  0.8383 -0.0441
  479ETH     HO 4306   0.999   1.571   0.516  2.3790 -0.2114 -0.2569
  479ETH     HC 4307   1.125   1.355   0.454 -2.0974 -0.5885  0.1368
  479ETH     HC 4308   1.193   1.498   0.514 -1.9368  2.2828  0.2726
  479ETH     HC 4309   1.112   1.281   0.717  1.3186  0.1535 -0.3790
  479ETH     HC 4310   1.268   1.336   0.679  0.6270  1.4711  0.0886
  479ETH     HC 4311   1.158   1.445   0.756  0.3882  1.2598 -0.4637
  480ETH     OH 4312   5.120   2.038   1.049  0.2831  0.0202 -0.5151
  480ETH     CH 4313   5.075   2.062   0.917  0.2706 -0.0051 -0.5153
  480ETH     CH 4314   5.187   2.115   0.828  0.4187 -0.0230 -0.3407
  480ETH     HO 4315   5.044   2.031   1.104  1.5931 -2.0083  1.1326
  480ETH     HC 4316   5.033   1.973   0.871  1.8824 -2.1349  1.9752
  480ETH     HC 4317   4.995   2.133   0.935  0.9677  0.7561 -0.3622
  480ETH     HC 4318   5.241   2.193   0.881  0.4996  0.3911 -1.0206
  480ETH     HC 4319   5.251   2.036   0.788 -1.0050 -1.0539 -0.6233
  480ETH     HC 4320   5.135   2.167   0.748  0.5907 -0.6000 -0.8313
  481ETH     OH 4321   4.512   4.915   3.172  0.0980 -0.4845  0.5376
  481ETH     CH 4322   4.505   5.014   3.272 -0.4569  0.3393 -0.3093
  481ETH     CH 4323   4.604   5.129   3.250  0.0186 -0.0515 -0.2277
  481ETH     HO 4324   4.456   4.844   3.199 -0.8598  0.4436  1.0398
  481ETH     HC 4325   4.405   5.052   3.293 -1.5209 -2.9300  0.8417
  481ETH     HC 4326   4.537   4.966   3.365  0.3504 -1.9403 -1.7502
  481ETH     HC 4327   4.702   5.096   3.285  0.1617 -0.1564 -0.7342
  481ETH     HC 4328   4.607   5.141   3.142  1.4797 -1.7006 -0.3728
  481ETH     HC 4329   4.568   5.219   3.302 -0.7240  0.3426 -1.4183
  482ETH     OH 4330   4.320   3.468   2.661 -1.0378  0.4831  0.1813
  482ETH     CH 4331   4.220   3.379   2.617  0.1081 -1.2198  0.9995
  482ETH     CH 4332   4.089   3.420   2.685 -0.1089  0.2861 -0.3219
  482ETH     HO 4333   4.383   3.479   2.592 -0.8606 -0.6501  0.1527
  482ETH     HC 4334   4.251   3.276   2.635  3.1792 -0.1925  1.8410
  482ETH     HC 4335   4.201   3.398   2.512 -0.0435  0.2070  1.2792
  482ETH     HC 4336   4.052   3.518   2.655 -0.6711 -0.0922 -0.8724
  482ETH     HC 4337   4.005   3.357   2.655  0.7282 -0.5348 -0.9656
  482ETH     HC 4338   4.096   3.419   2.794 -1.3332 -1.7023 -0.2453
  483ETH     OH 4339   3.659   4.950   3.024  0.7810  0.1752 -0.8150
  483ETH     CH 4340   3.777   4.948   3.101  0.0889  0.0520  0.2599
  483ETH     CH 4341   3.897   4.930   3.008  0.5075 -0.2109  0.8473
  483ETH     HO 4342   3.591   4.974   3.085  0.1072 -0.5963 -1.2516
  483ETH     HC 4343   3.783   5.029   3.173 -2.8338 -1.8433  2.7254
  483ETH     HC 4344   3.773   4.868   3.174  1.8245  1.5288  2.0092
  483ETH     HC 4345   3.981   4.922   3.077  0.4452 -0.6081  0.8822
  483ETH     HC 4346   3.882   4.831   2.965  1.1771 -1.0353  2.4852
  483ETH     HC 4347   3.907   5.013   2.937  1.0027 -1.3386 -0.4394
  484ETH     OH 4348   4.510   5.360   2.337 -0.1290  0.3515  0.6844
  484ETH     CH 4349   4.471   5.336   2.203 -0.4010  0.2054  0.7902
  484ETH     CH 4350   4.551   5.214   2.157 -0.1016  0.5626  0.3636
  484ETH     HO 4351   4.461   5.433   2.372 -1.4882 -0.4328  0.4745
  484ETH     HC 4352   4.364   5.314   2.202 -0.3461 -0.0369  0.3959
  484ETH     HC 4353   4.483   5.425   2.142  1.3215 -0.1665  0.5723
  484ETH     HC 4354   4.657   5.197   2.176 -0.2645 -1.2073 -0.2989
  484ETH     HC 4355   4.494   5.129   2.193 -0.5140  1.6094  2.2926
  484ETH     HC 4356   4.541   5.214   2.049  0.0267 -2.0564  0.3327
  485ETH     OH 4357   1.242   3.674   3.701 -0.6384 -0.2257 -0.1005
  485ETH     CH 4358   1.308   3.579   3.782 -0.1136 -0.1580 -0.4540
  485ETH     CH 4359   1.439   3.636   3.838 -0.4436 -0.4245  0.5774
  485ETH     HO 4360   1.164   3.701   3.748 -0.0746  0.1416  0.6292
  485ETH     HC 4361   1.243   3.536   3.858 -0.2621 -0.3360 -0.6795
  485ETH     HC 4362   1.338   3.497   3.716 -0.4015 -0.6933  0.0827
  485ETH     HC 4363   1.508   3.663   3.759 -0.7194  1.4708  0.9537
  485ETH     HC 4364   1.435   3.732   3.889  0.9690  0.0956 -0.2809
  485ETH     HC 4365   1.506   3.571   3.894  0.9809  1.4637  1.1068
  486ETH     OH 4366   2.177   6.123   3.375 -0.3216 -0.1927 -0.3392
  486ETH     CH 4367   2.315   6.096   3.390 -0.2544  0.2131 -0.2039
  486ETH     CH 4368   2.357   6.114   3.535 -0.4242 -0.2538 -0.0955
  486ETH     HO 4369   2.128   6.053   3.413  0.3077 -1.0017 -1.0020
  486ETH     HC 4370   2.346   5.998   3.354 -1.4833 -0.3838  0.3384
  486ETH     HC 4371   2.372   6.165   3.328 -0.3922  0.4115 -0.1102
  486ETH     HC 4372   2.463   6.104   3.555  0.1251  2.6908 -1.2471
  486ETH     HC 4373   2.334   6.216   3.568 -1.7050  0.8246 -4.0403
  486ETH     HC 4374   2.299   6.058   3.608 -0.0866 -0.1888  0.2264
  487ETH     OH 4375   2.283   6.057   2.918  0.6287  0.4539  0.0500
  487ETH     CH 4376   2.184   6.138   2.977  0.1589 -0.1284  0.0623
  487ETH     CH 4377   2.229   6.283   2.997 -0.1655 -0.0025 -0.1133
  487ETH     HO 4378   2.241   5.973   2.920  2.5942 -0.5772 -0.2764
  487ETH     HC 4379   2.091   6.137   2.921  1.7200  1.5956 -2.6901
  487ETH     HC 4380   2.164   6.099   3.077 -0.5784  0.5556  0.1812
  487ETH     HC 4381   2.174   6.332   3.077  0.1536 -0.2216  0.2421
  487ETH     HC 4382   2.331   6.300   3.033 -0.3033  0.1258  0.2122
  487ETH     HC 4383   2.222   6.341   2.905 -0.9471 -0.3699 -0.2918
  488ETH     OH 4384   5.001   0.144   3.631 -0.5096  0.4589 -0.3406
  488ETH     CH 4385   5.098   0.082   3.549 -0.5046  0.2619 -0.1858
  488ETH     CH 4386   5.208   0.188   3.541 -0.2382  0.0175  0.2206
  488ETH     HO 4387   4.935   0.179   3.573  1.2112  1.1859 -1.9058
  488ETH     HC 4388   5.137  -0.013   3.587 -1.4773 -0.6599 -1.4321
  488ETH     HC 4389   5.055   0.074   3.449  0.2293 -0.1120 -0.4790
  488ETH     HC 4390   5.199   0.247   3.449  0.3217 -1.2685 -0.6826
  488ETH     HC 4391   5.207   0.262   3.620 -1.6116 -3.2432  3.3586
  488ETH     HC 4392   5.302   0.137   3.516 -0.5817  0.6076 -2.5053
  489ETH     OH 4393   1.273   2.576   5.137 -0.0349 -0.0842  0.1626
  489ETH     CH 4394   1.211   2.454   5.168  0.2411 -0.2443  0.0894
  489ETH     CH 4395   1.198   2.444   5.320 -0.4603 -0.3660  0.0244
  489ETH     HO 4396   1.365   2.583   5.159  0.1688  1.9816 -1.1891
  489ETH     HC 4397   1.113   2.462   5.121 -0.7295 -1.8231  1.7830
  489ETH     HC 4398   1.256   2.358   5.141 -0.1297 -0.9846  1.9792
  489ETH     HC 4399   1.172   2.346   5.359  1.6268 -0.6963  0.6890
  489ETH     HC 4400   1.295   2.463   5.367  0.6945  4.5342 -3.8894
  489ETH     HC 4401   1.130   2.520   5.359 -2.0132 -1.1740 -1.1178
  490ETH     OH 4402   5.338   2.928   0.839  0.4399 -0.3279  0.1756
  490ETH     CH 4403   5.198   2.919   0.825  0.5117  0.0150 -0.7418
  490ETH     CH 4404   5.161   2.913   0.677 -0.4582  0.2098 -0.5068
  490ETH     HO 4405   5.363   2.948   0.928 -1.5757 -1.7847  1.0976
  490ETH     HC 4406   5.171   2.840   0.893  2.9713  1.4480  2.0423
  490ETH     HC 4407   5.161   3.010   0.871 -3.0478 -1.2694 -0.9562
  490ETH     HC 4408   5.223   2.836   0.632  0.8456  1.7106 -1.3664
  490ETH     HC 4409   5.055   2.887   0.674 -0.8234  1.4126  1.2821
  490ETH     HC 4410   5.181   3.010   0.631 -2.6042  1.6969  1.5621
  491ETH     OH 4411   0.061   5.552   0.648  0.2970  0.2493  0.2234
  491ETH     CH 4412   0.186   5.550   0.713  0.2439 -0.0666  0.3166
  491ETH     CH 4413   0.281   5.454   0.641 -0.0039 -0.4659  0.5209
  491ETH     HO 4414   0.006   5.604   0.705 -1.9935 -0.6058 -1.1695
  491ETH     HC 4415   0.235   5.647   0.702 -0.1877  0.0649 -0.4694
  491ETH     HC 4416   0.187   5.513   0.816 -0.6573  0.9987  0.7141
  491ETH     HC 4417   0.381   5.447   0.683  0.0764 -0.9033  0.2636
  491ETH     HC 4418   0.252   5.349   0.643 -1.2106 -0.1501  0.0603
  491ETH     HC 4419   0.284   5.505   0.544 -0.8804 -1.4409 -0.0314
  492ETH     OH 4420   0.482   4.701   3.397  0.5446 -0.2678  0.3330
  492ETH     CH 4421   0.415   4.599   3.467 -0.3127  0.3299  0.3789
  492ETH     CH 4422   0.396   4.481   3.371 -0.0116  0.3246  0.3272
  492ETH     HO 4423   0.548   4.739   3.453  0.4303 -0.6865  0.7570
  492ETH     HC 4424   0.466   4.572   3.559  1.1673 -0.2646 -0.6076
  492ETH     HC 4425   0.324   4.649   3.500  0.1601  0.1477  1.9922
  492ETH     HC 4426   0.379   4.390   3.429  1.1325 -0.0190  0.1291
  492ETH     HC 4427   0.319   4.493   3.295  1.3816 -1.3517 -1.3943
  492ETH     HC 4428   0.487   4.462   3.314 -0.6252  1.1616 -0.9565
  493ETH     OH 4429   4.558   3.344   3.015 -0.0250 -0.1014  0.0749
  493ETH     CH 4430   4.483   3.410   3.115  0.0897 -0.3621  0.3343
  493ETH     CH 4431   4.336   3.422   3.073  0.0720 -0.0471  0.4858
  493ETH     HO 4432   4.586   3.403   2.947 -0.5440 -0.1942 -0.2129
  493ETH     HC 4433   4.492   3.366   3.214  0.2692 -1.0345  0.0247
  493ETH     HC 4434   4.523   3.509   3.134 -0.5641  0.2358 -1.3730
  493ETH     HC 4435   4.276   3.484   3.140 -0.7696 -0.5323  0.1901
  493ETH     HC 4436   4.336   3.468   2.975 -2.5733  0.1609  0.5607
  493ETH     HC 4437   4.289   3.323   3.070 -0.2357  0.0861  0.8433
  494ETH     OH 4438   3.824   4.674   6.264  0.1076 -0.0536 -0.3258
  494ETH     CH 4439   3.890   4.783   6.325 -0.4677 -0.0058  0.2213
  494ETH     CH 4440   4.023   4.814   6.257 -0.3073 -0.2929  0.4013
  494ETH     HO 4441   3.871   4.636   6.192  1.0184  0.4340  0.0126
  494ETH     HC 4442   3.834   4.876   6.323 -1.2724 -0.4957 -0.2210
  494ETH     HC 4443   3.907   4.751   6.427  0.3977 -0.7983 -0.1652
  494ETH     HC 4444   4.088   4.880   6.315 -0.8145 -1.4946  2.3615
  494ETH     HC 4445   4.077   4.722   6.235  1.2206  0.6685  0.0824
  494ETH     HC 4446   4.014   4.861   6.159  2.0710  0.2138  0.3952
  495ETH     OH 4447   2.270   0.773   3.776  0.1005  0.5304 -0.0443
  495ETH     CH 4448   2.410   0.787   3.788  0.2678 -0.4452 -0.7286
  495ETH     CH 4449   2.463   0.832   3.925 -0.3606 -0.2635 -0.5437
  495ETH     HO 4450   2.255   0.746   3.687  1.7296  0.1519 -0.2340
  495ETH     HC 4451   2.461   0.701   3.744 -0.7180 -1.3073 -0.2053
  495ETH     HC 4452   2.436   0.866   3.717 -0.3750  0.6038  0.1865
  495ETH     HC 4453   2.571   0.844   3.917 -0.2342 -1.1803 -0.2702
  495ETH     HC 4454   2.429   0.928   3.965  0.1660  1.3768 -3.8062
  495ETH     HC 4455   2.449   0.754   4.000  2.4409  2.2172  2.7339
  496ETH     OH 4456   5.684   2.081   2.890  0.0723 -0.6701 -0.4484
  496ETH     CH 4457   5.790   2.062   2.798  0.1471  0.6497 -0.6436
  496ETH     CH 4458   5.747   1.972   2.683 -0.1283 -0.2781  0.1736
  496ETH     HO 4459   5.720   2.144   2.950 -0.1768  1.8607 -2.8608
  496ETH     HC 4460   5.818   2.163   2.767  0.6038  0.8928  0.5281
  496ETH     HC 4461   5.876   2.021   2.851  0.0559 -1.0537 -1.8008
  496ETH     HC 4462   5.655   1.995   2.629 -0.6825 -4.1077 -0.6764
  496ETH     HC 4463   5.824   1.967   2.606  0.1811  3.5689  0.1559
  496ETH     HC 4464   5.730   1.872   2.723  3.1226 -0.2775  1.7204
  497ETH     OH 4465   4.355   4.701   3.286  0.0471 -0.2654 -0.1570
  497ETH     CH 4466   4.300   4.573   3.270  0.2573 -0.3694 -0.0495
  497ETH     CH 4467   4.288   4.545   3.120 -0.3445 -0.3342 -0.0077
  497ETH     HO 4468   4.340   4.733   3.374 -0.3665  0.5855 -0.5343
  497ETH     HC 4469   4.359   4.495   3.319 -1.5278  0.1996  3.1555
  497ETH     HC 4470   4.206   4.572   3.325  0.9583  2.1056  1.2639
  497ETH     HC 4471   4.230   4.453   3.125  0.2705 -0.6063  2.5063
  497ETH     HC 4472   4.227   4.627   3.080 -1.5540 -0.8025  0.8646
  497ETH     HC 4473   4.385   4.539   3.071  0.5702 -2.0153  1.9524
  498ETH     OH 4474   1.839   2.444   1.144  0.0325  0.0784  0.7882
  498ETH     CH 4475   1.702   2.413   1.139 -0.0020  0.3832 -0.3173
  498ETH     CH 4476   1.647   2.424   1.282 -0.2528 -0.3660 -0.3540
  498ETH     HO 4477   1.885   2.370   1.182  2.0575  1.7804  1.7424
  498ETH     HC 4478   1.662   2.482   1.064 -0.1794  0.3688 -0.2358
  498ETH     HC 4479   1.682   2.312   1.104 -0.5813  0.0352  0.9905
  498ETH     HC 4480   1.672   2.522   1.324 -0.9251 -0.6699  0.7502
  498ETH     HC 4481   1.539   2.408   1.284 -0.0750 -2.5210 -3.5574
  498ETH     HC 4482   1.696   2.355   1.351  0.7383  1.0163  0.3528
  499ETH     OH 4483   1.152   0.182   2.649 -0.1374 -0.0466 -0.5944
  499ETH     CH 4484   1.211   0.133   2.767 -0.6226  0.0899 -0.2936
  499ETH     CH 4485   1.123   0.190   2.879  0.1831  0.2016  0.2906
  499ETH     HO 4486   1.082   0.129   2.613 -0.6937  1.1214 -1.2817
  499ETH     HC 4487   1.205   0.025   2.775 -0.5404  0.0964 -0.1435
  499ETH     HC 4488   1.318   0.152   2.774 -0.5010 -0.2785 -1.1648
  499ETH     HC 4489   1.138   0.138   2.974  0.1055  0.2453  0.3274
  499ETH     HC 4490   1.129   0.298   2.886 -0.5398  0.3780 -1.5216
  499ETH     HC 4491   1.015   0.181   2.862  0.1078  0.2171  0.7480
  500ETH     OH 4492   1.456   2.265   2.866 -0.0513 -0.2569 -0.7230
  500ETH     CH 4493   1.343   2.345   2.838  0.1287  0.2787  0.0628
  500ETH     CH 4494   1.270   2.392   2.964  0.5524 -0.0885  0.4474
  500ETH     HO 4495   1.485   2.215   2.792 -1.7960 -0.8684 -1.0101
  500ETH     HC 4496   1.355   2.435   2.779 -0.4562 -0.2279 -0.8341
  500ETH     HC 4497   1.270   2.298   2.772 -1.6623  0.4472  1.8606
  500ETH     HC 4498   1.201   2.313   2.995 -0.7724  1.6258  1.9688
  500ETH     HC 4499   1.341   2.433   3.036 -0.1776  0.8307  0.6544
  500ETH     HC 4500   1.196   2.467   2.935  0.9691 -0.7366 -2.4576
  501ETH     OH 4501   1.551   5.114   1.213  0.0683 -0.1550 -0.6768
  501ETH     CH 4502   1.474   5.206   1.139  0.1891  0.9158  0.5021
  501ETH     CH 4503   1.554   5.329   1.096  0.6768  0.2724 -0.4582
  501ETH     HO 4504   1.503   5.042   1.252  0.3494  0.8783  1.6883
  501ETH     HC 4505   1.433   5.153   1.053 -0.4256 -0.1660  1.4458
  501ETH     HC 4506   1.389   5.222   1.205  0.1147  1.0664  0.3685
  501ETH     HC 4507   1.486   5.401   1.049 -0.6458 -0.8864 -0.3802
  501ETH     HC 4508   1.591   5.381   1.184 -1.5164 -0.8878  1.2192
  501ETH     HC 4509   1.631   5.297   1.026  0.5203 -2.3235  0.5008
  502ETH     OH 4510   3.430   4.311   5.573 -0.3603 -0.1153 -0.5704
  502ETH     CH 4511   3.512   4.406   5.638 -0.4795  0.2749 -0.9871
  502ETH     CH 4512   3.430   4.535   5.635  0.3041  0.7969 -0.0971
  502ETH     HO 4513   3.349   4.305   5.621 -0.9042 -0.9057 -1.5737
  502ETH     HC 4514   3.543   4.381   5.739 -2.1792  1.6707 -0.1138
  502ETH     HC 4515   3.603   4.405   5.577 -0.2703  0.7128 -0.6791
  502ETH     HC 4516   3.397   4.558   5.534 -1.2882  2.0758  0.6941
  502ETH     HC 4517   3.336   4.540   5.690 -1.8120  1.9765 -3.7079
  502ETH     HC 4518   3.485   4.621   5.673  1.1870  0.7139 -1.1700
  503ETH     OH 4519   5.867   2.064   3.702  0.2424 -0.4667 -0.1228
  503ETH     CH 4520   5.777   2.010   3.608 -0.0520 -0.1151 -0.0425
  503ETH     CH 4521   5.824   2.039   3.466 -0.5649 -0.1157 -0.2158
  503ETH     HO 4522   5.953   2.029   3.685  0.1804 -0.5571 -0.2595
  503ETH     HC 4523   5.766   1.902   3.616  1.1905 -0.2802 -0.5057
  503ETH     HC 4524   5.677   2.054   3.611  0.3658  1.2792 -3.8077
  503ETH     HC 4525   5.922   2.004   3.434 -1.2997 -1.7686 -0.7097
  503ETH     HC 4526   5.740   2.029   3.397  1.3610 -0.9192 -2.5263
  503ETH     HC 4527   5.837   2.147   3.467 -0.8863 -0.0477 -1.9003
  504ETH     OH 4528   3.565   5.588   0.623 -0.0178  0.0626  0.3042
  504ETH     CH 4529   3.699   5.554   0.597 -0.1040 -0.4483  0.5302
  504ETH     CH 4530   3.720   5.403   0.612 -0.2402 -0.5559 -0.3017
  504ETH     HO 4531   3.554   5.682   0.628  0.2040  0.1052 -0.0042
  504ETH     HC 4532   3.716   5.595   0.497  0.5373  1.8030  1.5440
  504ETH     HC 4533   3.772   5.607   0.658 -1.3120  1.2849  0.4913
  504ETH     HC 4534   3.725   5.373   0.717  2.1994 -1.7437 -0.7222
  504ETH     HC 4535   3.638   5.347   0.566 -0.3353 -1.5995  1.0775
  504ETH     HC 4536   3.808   5.368   0.558  1.3866 -0.8816  2.4650
  505ETH     OH 4537   1.409   4.495   0.079 -0.1384  0.2305 -0.3410
  505ETH     CH 4538   1.406   4.636   0.081  0.1232  0.2306  0.1368
  505ETH     CH 4539   1.271   4.691   0.127  0.1230  0.2756  0.0840
  505ETH     HO 4540   1.378   4.459   0.161 -0.1103  0.2964 -0.3009
  505ETH     HC 4541   1.492   4.658   0.144  0.5438 -1.4819  0.1733
  505ETH     HC 4542   1.423   4.679  -0.018  2.3300 -0.0819  0.3442
  505ETH     HC 4543   1.267   4.671   0.234  1.9522  1.5930  0.4313
  505ETH     HC 4544   1.264   4.799   0.112  0.8110  0.0241 -2.2395
  505ETH     HC 4545   1.184   4.653   0.074  2.0302 -1.2642 -2.0188
  506ETH     OH 4546   4.765   3.659   0.223  0.1928 -0.4173  0.3325
  506ETH     CH 4547   4.730   3.523   0.208  0.1094 -0.3034 -0.5375
  506ETH     CH 4548   4.856   3.437   0.225  0.1061 -0.2675 -0.3196
  506ETH     HO 4549   4.783   3.691   0.137 -1.0235  1.9577  0.9266
  506ETH     HC 4550   4.655   3.500   0.283  0.4681  0.3777  0.0434
  506ETH     HC 4551   4.676   3.494   0.119  2.4391 -1.8582 -1.5017
  506ETH     HC 4552   4.826   3.333   0.213 -1.6118  0.3251 -1.3182
  506ETH     HC 4553   4.928   3.451   0.145  0.6057 -2.0143 -0.1839
  506ETH     HC 4554   4.906   3.459   0.319  0.1148  0.2951 -0.4546
  507ETH     OH 4555   5.175   2.862   3.535 -0.1430  0.1546 -0.5791
  507ETH     CH 4556   5.161   2.768   3.431 -0.2267 -0.0521 -0.3815
  507ETH     CH 4557   5.130   2.628   3.483 -0.0693  0.2526  0.5397
  507ETH     HO 4558   5.099   2.871   3.591  0.0989 -1.9817  0.1435
  507ETH     HC 4559   5.078   2.807   3.372  1.8519 -0.3498 -3.6253
  507ETH     HC 4560   5.241   2.764   3.357 -1.4128  0.1992 -1.6961
  507ETH     HC 4561   5.189   2.591   3.567 -0.9309 -1.2878  0.4805
  507ETH     HC 4562   5.024   2.609   3.496  0.3398 -3.0357 -0.4967
  507ETH     HC 4563   5.152   2.563   3.398 -2.2412  1.6534 -1.1318
  508ETH     OH 4564   4.432   0.554   0.150 -0.0842  0.5679  0.5121
  508ETH     CH 4565   4.398   0.595   0.280  0.3039 -0.0175  0.8028
  508ETH     CH 4566   4.281   0.694   0.285  0.1426 -0.1355 -0.6290
  508ETH     HO 4567   4.382   0.477   0.130  1.1287 -0.5373  1.6112
  508ETH     HC 4568   4.487   0.648   0.314  0.0387  0.3489  0.9415
  508ETH     HC 4569   4.396   0.510   0.348  2.0863 -1.1940 -0.5786
  508ETH     HC 4570   4.183   0.655   0.259 -1.0438  3.5721 -2.0102
  508ETH     HC 4571   4.268   0.720   0.390 -1.4122 -0.8021 -0.6408
  508ETH     HC 4572   4.288   0.783   0.221 -0.7280  0.3627 -0.0469
  509ETH     OH 4573   2.039   3.103   5.990  0.2675  0.0619  0.8205
  509ETH     CH 4574   2.065   2.973   6.039  0.0248 -0.2240  0.1991
  509ETH     CH 4575   2.045   2.884   5.916 -0.2193 -0.1081  0.1538
  509ETH     HO 4576   2.035   3.165   6.061  0.3620  1.0315 -0.0087
  509ETH     HC 4577   2.170   2.964   6.066 -0.3287  0.0666  1.6817
  509ETH     HC 4578   2.004   2.945   6.125  0.2915 -0.9425  0.1568
  509ETH     HC 4579   2.035   2.782   5.954 -0.2966  0.0987  0.6933
  509ETH     HC 4580   1.956   2.901   5.855 -1.0172 -1.0321  1.0367
  509ETH     HC 4581   2.129   2.890   5.847 -1.0532 -1.6959 -1.0281
  510ETH     OH 4582   4.936   3.298   3.343  0.2746  0.2535 -0.1176
  510ETH     CH 4583   5.040   3.204   3.329  0.2140  0.1498  0.1175
  510ETH     CH 4584   5.160   3.230   3.419  0.0394 -0.0115  0.3964
  510ETH     HO 4585   4.875   3.272   3.275  0.0316  2.9101 -0.9542
  510ETH     HC 4586   5.009   3.100   3.340  1.6299 -0.7347 -3.5523
  510ETH     HC 4587   5.083   3.206   3.228  3.7757  1.5041  1.5733
  510ETH     HC 4588   5.228   3.145   3.430 -0.6104 -0.2869  2.4944
  510ETH     HC 4589   5.211   3.316   3.376  2.4746 -0.4437  2.2388
  510ETH     HC 4590   5.131   3.261   3.520  1.8962  2.3879  0.2567
  511ETH     OH 4591   4.704   2.154   1.156 -0.4097  0.1032 -0.7357
  511ETH     CH 4592   4.612   2.236   1.226 -0.0519 -0.0761 -0.0494
  511ETH     CH 4593   4.690   2.356   1.280  0.1434 -0.2610  0.0850
  511ETH     HO 4594   4.653   2.102   1.095  0.9295 -0.0543 -1.7249
  511ETH     HC 4595   4.548   2.271   1.145 -0.7631  0.7775  0.8839
  511ETH     HC 4596   4.557   2.179   1.300  1.4508  1.6186  2.4331
  511ETH     HC 4597   4.718   2.419   1.195  0.4596  0.5115  0.7657
  511ETH     HC 4598   4.617   2.410   1.340  0.1713  0.1123 -0.2143
  511ETH     HC 4599   4.779   2.328   1.334  0.5055 -0.8942 -0.8243
  512ETH     OH 4600   3.321   4.566   0.791 -0.1802 -0.6691 -0.3359
  512ETH     CH 4601   3.432   4.635   0.844 -0.3744 -0.3211 -0.3859
  512ETH     CH 4602   3.412   4.784   0.813  0.5834 -0.1615 -0.2430
  512ETH     HO 4603   3.252   4.571   0.856 -0.2760  1.1387 -0.5606
  512ETH     HC 4604   3.438   4.616   0.951  0.1206  4.0642  0.4846
  512ETH     HC 4605   3.532   4.606   0.813  0.2812  0.5973  0.8304
  512ETH     HC 4606   3.311   4.816   0.837  1.0167  1.2575 -0.3068
  512ETH     HC 4607   3.484   4.857   0.849 -1.2585  0.1967  2.8913
  512ETH     HC 4608   3.406   4.796   0.705  1.7057 -0.1211 -0.3081
  513ETH     OH 4609   5.975   3.507   6.006 -0.4848  0.6932  0.2242
  513ETH     CH 4610   6.051   3.468   6.119 -0.1976  0.2379 -0.1221
  513ETH     CH 4611   5.961   3.430   6.237  0.0515 -1.1459 -0.3718
  513ETH     HO 4612   5.952   3.599   6.014 -0.8287  0.5034  1.5825
  513ETH     HC 4613   6.110   3.380   6.096 -1.0331 -0.4769  0.4464
  513ETH     HC 4614   6.122   3.547   6.144 -2.0690  1.5569  1.1697
  513ETH     HC 4615   5.897   3.346   6.210 -0.5629 -1.0949  0.8959
  513ETH     HC 4616   6.024   3.405   6.322 -0.8417  1.4714  1.1272
  513ETH     HC 4617   5.900   3.513   6.274  0.2244 -0.8272 -0.7974
  514ETH     OH 4618   5.363   0.752   0.955 -0.2873 -0.4520  0.4259
  514ETH     CH 4619   5.371   0.651   0.858  0.5949 -0.1744  0.2054
  514ETH     CH 4620   5.504   0.664   0.784  0.3927 -1.1315 -0.3302
  514ETH     HO 4621   5.290   0.737   1.014  1.2732  2.0604  3.1522
  514ETH     HC 4622   5.351   0.550   0.893  0.2101 -0.7113 -1.5042
  514ETH     HC 4623   5.297   0.668   0.780  0.4616 -2.1025 -0.1306
  514ETH     HC 4624   5.590   0.667   0.851 -0.0348  0.5720  0.1641
  514ETH     HC 4625   5.536   0.580   0.721  1.8838  0.0791 -1.2171
  514ETH     HC 4626   5.510   0.762   0.736  0.5530 -1.1756 -0.4009
  515ETH     OH 4627   5.517   2.048   1.533  0.0560 -0.2378  0.1896
  515ETH     CH 4628   5.554   1.914   1.556  0.0562 -0.1594  0.6475
  515ETH     CH 4629   5.703   1.891   1.581  0.2106 -0.1580 -0.2365
  515ETH     HO 4630   5.587   2.092   1.486 -1.3914  2.2838  0.3228
  515ETH     HC 4631   5.503   1.879   1.646 -0.0893  1.1800  1.1011
  515ETH     HC 4632   5.534   1.851   1.469  2.0868 -1.1028  0.8290
  515ETH     HC 4633   5.719   1.786   1.607 -1.2971 -0.7409 -1.6338
  515ETH     HC 4634   5.760   1.911   1.490 -1.7467  0.1860 -1.4002
  515ETH     HC 4635   5.748   1.945   1.665  0.9392  0.7603 -1.1989
  516ETH     OH 4636   6.288   0.810   1.838 -0.2147  0.1021  0.3985
  516ETH     CH 4637   6.206   0.884   1.752 -0.0322 -0.6822 -0.4595
  516ETH     CH 4638   6.056   0.876   1.782  0.0621  0.5614  0.4083
  516ETH     HO 4639   6.380   0.831   1.831 -0.1617  0.0668  0.9748
  516ETH     HC 4640   6.239   0.988   1.746 -1.9145  0.0786  1.4415
  516ETH     HC 4641   6.218   0.841   1.652 -0.5565  0.7570 -1.1656
  516ETH     HC 4642   6.010   0.778   1.770 -1.3929  1.4625 -1.5180
  516ETH     HC 4643   6.025   0.916   1.878  0.6674 -2.0326  1.7357
  516ETH     HC 4644   5.991   0.931   1.714 -1.9419 -0.6819  1.2618
  517ETH     OH 4645   3.641   4.015   5.030 -0.2763 -0.5789 -0.0538
  517ETH     CH 4646   3.728   4.022   5.141  0.3991  1.0640 -0.6812
  517ETH     CH 4647   3.868   4.001   5.081  0.4903  0.0644 -0.1269
  517ETH     HO 4648   3.553   4.015   5.063 -0.4952  0.2002 -0.6438
  517ETH     HC 4649   3.722   4.108   5.207 -0.2143  1.3538 -1.1064
  517ETH     HC 4650   3.713   3.939   5.210  0.2919  0.9658 -0.8207
  517ETH     HC 4651   3.940   3.982   5.160  0.0240 -4.6562 -0.7104
  517ETH     HC 4652   3.869   3.919   5.010  1.3887  1.0670 -1.2817
  517ETH     HC 4653   3.892   4.096   5.033 -0.3548 -0.1895 -1.0657
  518ETH     OH 4654   1.270   4.655   3.618  0.3329  0.3108  0.0388
  518ETH     CH 4655   1.326   4.748   3.708 -0.2880  0.2979  0.4426
  518ETH     CH 4656   1.242   4.876   3.717 -0.9088 -0.0885  0.1789
  518ETH     HO 4657   1.218   4.592   3.666 -2.5150  3.1187  0.7265
  518ETH     HC 4658   1.347   4.704   3.805 -0.6802 -1.2975 -0.1799
  518ETH     HC 4659   1.425   4.775   3.670  1.1064 -1.9700  2.3322
  518ETH     HC 4660   1.243   4.928   3.622 -0.5436 -0.6722 -0.1410
  518ETH     HC 4661   1.135   4.857   3.724 -1.3883  1.2592 -2.8469
  518ETH     HC 4662   1.279   4.941   3.797  1.9141 -0.9654 -0.3429
  519ETH     OH 4663   0.217   2.960   1.021 -0.4613  0.1801  0.0435
  519ETH     CH 4664   0.187   2.823   1.007  0.0276  0.0416  0.3820
  519ETH     CH 4665   0.059   2.777   1.076 -0.4910  0.3603 -0.3731
  519ETH     HO 4666   0.228   2.978   1.113  1.2561 -1.8591  0.2669
  519ETH     HC 4667   0.180   2.806   0.900 -0.2634  0.0388  0.4006
  519ETH     HC 4668   0.268   2.761   1.047 -0.8973 -1.8441 -0.6352
  519ETH     HC 4669   0.021   2.676   1.057 -2.2325  0.8085  0.6106
  519ETH     HC 4670   0.076   2.777   1.183  0.5822 -0.4991 -0.5365
  519ETH     HC 4671  -0.027   2.843   1.064 -1.0062 -0.6294 -2.2995
  520ETH     OH 4672   0.846   4.757   2.355 -0.1921 -0.0466  0.0281
  520ETH     CH 4673   0.919   4.823   2.456  0.1684  0.1053 -0.3297
  520ETH     CH 4674   0.918   4.976   2.445 -0.5672  0.1900  0.7930
  520ETH     HO 4675   0.818   4.675   2.392  0.0544 -0.3339 -0.4215
  520ETH     HC 4676   0.877   4.781   2.547 -0.2567  3.0808  0.9050
  520ETH     HC 4677   1.022   4.792   2.442  0.4956  2.3828 -3.7093
  520ETH     HC 4678   0.979   4.999   2.357 -0.9807 -2.1096 -0.1280
  520ETH     HC 4679   0.815   5.009   2.434 -0.5831 -0.5552 -1.6502
  520ETH     HC 4680   0.962   5.008   2.539 -1.8139  1.7082  0.8658
  521ETH     OH 4681   5.346   5.327   2.596 -0.1121  0.1119 -0.1827
  521ETH     CH 4682   5.310   5.461   2.571 -0.7460 -0.1392 -0.6148
  521ETH     CH 4683   5.268   5.548   2.689  0.0852 -0.3455 -0.1699
  521ETH     HO 4684   5.270   5.272   2.594 -0.5083  0.6551 -0.3239
  521ETH     HC 4685   5.404   5.506   2.541 -0.3402  0.3969  1.4076
  521ETH     HC 4686   5.238   5.471   2.489 -2.2648  0.0145  0.7021
  521ETH     HC 4687   5.190   5.502   2.749 -0.7517  1.8042  0.4317
  521ETH     HC 4688   5.348   5.545   2.764  1.4182  1.6634 -1.4441
  521ETH     HC 4689   5.240   5.650   2.661  0.9557 -0.3490 -1.0886
  522ETH     OH 4690   5.767   5.729   0.400  0.2216  0.0455  0.2145
  522ETH     CH 4691   5.806   5.860   0.434  0.5145  0.0538 -0.1455
  522ETH     CH 4692   5.880   5.911   0.311  0.1168 -0.1361 -0.4675
  522ETH     HO 4693   5.844   5.677   0.386 -0.4729 -0.9142 -0.1288
  522ETH     HC 4694   5.716   5.922   0.443  1.2652  1.2887 -1.1536
  522ETH     HC 4695   5.862   5.859   0.527 -1.3345 -1.3991  1.0072
  522ETH     HC 4696   5.820   5.922   0.221 -0.4106  0.5801 -0.0387
  522ETH     HC 4697   5.912   6.010   0.346  1.8473 -1.2590  1.2241
  522ETH     HC 4698   5.960   5.838   0.301  0.3056 -0.1054  0.7216
  523ETH     OH 4699   4.579   6.013   5.601 -0.3119  0.1366 -0.0367
  523ETH     CH 4700   4.562   5.876   5.569  0.0692  0.0566  0.1102
  523ETH     CH 4701   4.523   5.857   5.423  0.5755  0.2576 -0.0515
  523ETH     HO 4702   4.629   6.016   5.681 -0.4295 -0.2317  0.0529
  523ETH     HC 4703   4.641   5.811   5.608 -1.0732 -1.0912  0.5274
  523ETH     HC 4704   4.473   5.842   5.622  0.7984 -1.2692  0.5084
  523ETH     HC 4705   4.425   5.903   5.409  0.6581  0.4333 -0.0586
  523ETH     HC 4706   4.601   5.897   5.357  3.4442 -3.1224  1.1379
  523ETH     HC 4707   4.507   5.753   5.394  1.5416  0.0060  0.3065
  524ETH     OH 4708   3.221   5.404   4.626 -0.3539 -0.3020 -0.0432
  524ETH     CH 4709   3.080   5.397   4.613 -0.3997 -0.0954  0.3194
  524ETH     CH 4710   3.028   5.533   4.659 -0.9163 -0.0016 -0.5225
  524ETH     HO 4711   3.250   5.333   4.571 -1.0444  0.0730 -0.9112
  524ETH     HC 4712   3.068   5.376   4.507  1.1032  0.9719 -0.0883
  524ETH     HC 4713   3.035   5.319   4.674 -0.7081 -0.7508 -0.7317
  524ETH     HC 4714   2.923   5.526   4.633 -1.3848 -0.3732  1.3663
  524ETH     HC 4715   3.042   5.545   4.767 -0.0024 -0.9158 -0.5317
  524ETH     HC 4716   3.082   5.607   4.600  1.9202 -0.5791  1.2181
  525ETH     OH 4717   5.177   5.209   3.628 -0.0580 -0.1641  0.5329
  525ETH     CH 4718   5.041   5.244   3.622 -0.1995 -0.7009  0.5162
  525ETH     CH 4719   4.957   5.121   3.588 -0.1631 -0.5339 -0.2034
  525ETH     HO 4720   5.188   5.165   3.711  0.7462 -0.3853  0.3202
  525ETH     HC 4721   5.019   5.291   3.718  1.5551  0.1743  0.5073
  525ETH     HC 4722   5.016   5.317   3.544 -0.8039  0.7640  2.0571
  525ETH     HC 4723   4.978   5.086   3.487  0.0006  1.5767 -0.9179
  525ETH     HC 4724   4.966   5.033   3.653 -3.4864 -1.5280 -0.9871
  525ETH     HC 4725   4.853   5.148   3.572 -0.0270 -0.1790 -0.4863
  526ETH     OH 4726   2.681   0.293   5.394 -0.0323 -0.1701  0.0609
  526ETH     CH 4727   2.798   0.372   5.404 -0.3623  0.2267  0.8392
  526ETH     CH 4728   2.866   0.329   5.534  0.3454 -0.2746  0.3091
  526ETH     HO 4729   2.604   0.348   5.389 -1.2991 -1.9221 -0.1409
  526ETH     HC 4730   2.875   0.354   5.328  0.9245  1.3748  1.8510
  526ETH     HC 4731   2.774   0.478   5.397  3.3482  1.1510  1.2996
  526ETH     HC 4732   2.885   0.223   5.519 -0.9911 -0.3016 -1.2281
  526ETH     HC 4733   2.964   0.375   5.551 -0.2911  0.5865  1.7121
  526ETH     HC 4734   2.800   0.346   5.619 -1.5405 -1.2432 -0.9325
  527ETH     OH 4735   5.620   4.327   2.838  0.1047 -0.2934 -0.3959
  527ETH     CH 4736   5.525   4.256   2.913  0.4920 -0.4705 -0.0699
  527ETH     CH 4737   5.497   4.337   3.040 -0.1595 -0.5202 -0.1780
  527ETH     HO 4738   5.674   4.264   2.793  0.0428 -1.5405  1.2499
  527ETH     HC 4739   5.427   4.238   2.867  0.0160  0.3262  0.6215
  527ETH     HC 4740   5.569   4.160   2.941  0.3753 -0.8357 -1.1339
  527ETH     HC 4741   5.429   4.278   3.103  0.4364 -0.0602  0.9083
  527ETH     HC 4742   5.584   4.351   3.104 -1.2519  0.7340  1.0674
  527ETH     HC 4743   5.459   4.435   3.013  2.1417 -0.3006 -2.8480
  528ETH     OH 4744   0.074   4.212   1.762  0.1702  0.2778  0.3330
  528ETH     CH 4745   0.035   4.077   1.747 -0.1795  0.4101  0.0450
  528ETH     CH 4746   0.069   4.020   1.609  0.2616 -0.0085  0.3287
  528ETH     HO 4747   0.028   4.262   1.696  2.3460  2.2269  0.2563
  528ETH     HC 4748   0.085   4.017   1.823  1.1010  1.0676 -0.2651
  528ETH     HC 4749  -0.069   4.067   1.778 -0.0364  1.7986  0.9963
  528ETH     HC 4750   0.167   4.061   1.582  0.6961 -1.2848 -0.1033
  528ETH     HC 4751   0.069   3.911   1.612 -3.5679 -0.0589  3.1461
  528ETH     HC 4752   0.004   4.047   1.527  0.2580  2.0720  1.0012
  529ETH     OH 4753   2.645   5.987   5.318  0.0873  0.3231 -0.1193
  529ETH     CH 4754   2.590   5.989   5.448 -0.1377  0.2473 -0.2130
  529ETH     CH 4755   2.675   6.081   5.536 -0.0142  0.2065 -0.2895
  529ETH     HO 4756   2.623   5.902   5.284 -0.5288  0.1833  0.6218
  529ETH     HC 4757   2.488   6.022   5.432 -0.2194  0.0870 -0.0266
  529ETH     HC 4758   2.581   5.890   5.492  0.5158 -0.4543 -1.6397
  529ETH     HC 4759   2.690   6.178   5.490  1.3925 -0.2282 -0.7801
  529ETH     HC 4760   2.629   6.086   5.635 -2.2360 -2.7035 -1.0901
  529ETH     HC 4761   2.778   6.046   5.540  0.1337  0.6033 -0.6565
  530ETH     OH 4762   1.448   3.975   2.552  0.1279  0.0834  0.3615
  530ETH     CH 4763   1.395   3.950   2.424 -0.3031  0.2126  0.5095
  530ETH     CH 4764   1.324   3.815   2.419  0.0186  0.0469  0.3999
  530ETH     HO 4765   1.537   3.944   2.557  0.7667  2.0079  1.5054
  530ETH     HC 4766   1.320   4.029   2.421  1.1932  1.7338  1.9534
  530ETH     HC 4767   1.466   3.976   2.345 -1.4985  0.9065 -0.3533
  530ETH     HC 4768   1.266   3.806   2.328 -2.2388 -0.0501  1.8093
  530ETH     HC 4769   1.399   3.736   2.408 -0.0222 -0.1542  1.4990
  530ETH     HC 4770   1.264   3.789   2.506 -1.5569 -0.9759 -0.9628
  531ETH     OH 4771   2.917   0.156   2.055 -0.1501 -0.5372 -0.3429
  531ETH     CH 4772   2.822   0.236   2.123 -0.2828 -0.7278 -0.3040
  531ETH     CH 4773   2.755   0.160   2.237 -0.0696 -0.2860  0.1156
  531ETH     HO 4774   2.933   0.198   1.972 -2.7712  0.5542 -0.3514
  531ETH     HC 4775   2.878   0.317   2.170 -0.8570 -0.3137 -0.3353
  531ETH     HC 4776   2.754   0.275   2.048  1.7334 -1.2794 -2.5056
  531ETH     HC 4777   2.835   0.121   2.300  0.2276  0.1597  0.0158
  531ETH     HC 4778   2.682   0.224   2.287 -0.8682 -1.0984 -0.0094
  531ETH     HC 4779   2.700   0.073   2.203 -0.8134 -0.7293  2.3356
  532ETH     OH 4780   5.523   0.813   0.253 -0.1689  0.3750 -0.1413
  532ETH     CH 4781   5.620   0.873   0.170 -0.0266  0.1131 -0.1652
  532ETH     CH 4782   5.562   1.008   0.125 -0.3114 -0.0047 -0.1506
  532ETH     HO 4783   5.475   0.875   0.306 -0.8369 -1.1539  1.0559
  532ETH     HC 4784   5.713   0.890   0.224  0.0948  1.5372 -0.8004
  532ETH     HC 4785   5.641   0.809   0.084  1.3407 -1.0566  1.0196
  532ETH     HC 4786   5.625   1.058   0.051 -1.0353  0.6033 -0.3659
  532ETH     HC 4787   5.487   0.984   0.049 -0.9504 -2.0831  1.0858
  532ETH     HC 4788   5.526   1.074   0.204 -0.2950 -0.3931  0.1817
  533ETH     OH 4789   1.672   0.086   5.815 -0.2049  0.2912  0.2138
  533ETH     CH 4790   1.777   0.124   5.729 -0.1724 -0.1031  0.0759
  533ETH     CH 4791   1.867   0.009   5.685 -0.2132  0.0821 -0.4998
  533ETH     HO 4792   1.711   0.053   5.895  1.6520  0.5333 -0.5577
  533ETH     HC 4793   1.714   0.157   5.646 -1.4335 -0.3228  0.9360
  533ETH     HC 4794   1.830   0.213   5.764 -0.3222 -0.0696  0.2189
  533ETH     HC 4795   1.919   0.044   5.596  0.7437 -0.1834 -0.0554
  533ETH     HC 4796   1.939  -0.021   5.762  0.5435  3.0791  0.0295
  533ETH     HC 4797   1.808  -0.072   5.641 -2.5379  1.6311 -0.3053
  534ETH     OH 4798   4.730   6.155   0.362  0.2682  0.2473  0.3044
  534ETH     CH 4799   4.751   6.294   0.376 -0.1358  0.3082  0.3034
  534ETH     CH 4800   4.902   6.310   0.393  0.0361 -0.3558 -0.5455
  534ETH     HO 4801   4.792   6.119   0.300  0.2676  0.2905  0.2781
  534ETH     HC 4802   4.730   6.344   0.281 -2.8684 -1.4463 -0.0887
  534ETH     HC 4803   4.696   6.353   0.448  1.7738  1.3214  0.9573
  534ETH     HC 4804   4.926   6.279   0.494 -1.1173  1.2533  0.2485
  534ETH     HC 4805   4.959   6.259   0.315  1.1715  0.8398 -0.5218
  534ETH     HC 4806   4.940   6.413   0.393 -1.7878  0.3540 -1.8135
  535ETH     OH 4807   2.570   4.410   4.747  0.3508  0.3893  0.4745
  535ETH     CH 4808   2.512   4.366   4.868 -0.0045 -0.0936  0.1300
  535ETH     CH 4809   2.598   4.412   4.986 -0.1461  0.6282 -0.0483
  535ETH     HO 4810   2.510   4.397   4.674  1.7609  1.3652 -0.8936
  535ETH     HC 4811   2.416   4.416   4.870 -0.3042 -0.6900  1.0774
  535ETH     HC 4812   2.498   4.258   4.866 -0.3982 -0.0589  0.9312
  535ETH     HC 4813   2.600   4.520   5.004  0.1147  0.8927 -1.5879
  535ETH     HC 4814   2.568   4.357   5.075  0.7153  1.0300  0.4937
  535ETH     HC 4815   2.703   4.388   4.969  0.1665  2.8805 -1.5863
  536ETH     OH 4816   4.575   1.688   1.746 -0.0145  0.1055 -0.1914
  536ETH     CH 4817   4.578   1.613   1.627  0.4043  0.2325 -0.2619
  536ETH     CH 4818   4.692   1.511   1.629  0.4715  0.3166  0.8201
  536ETH     HO 4819   4.664   1.717   1.753  0.3701 -0.7860 -1.3257
  536ETH     HC 4820   4.486   1.555   1.620  0.0015  0.7582  0.5593
  536ETH     HC 4821   4.573   1.682   1.543 -1.4873 -1.3759 -1.5427
  536ETH     HC 4822   4.701   1.445   1.542  2.9284 -3.4081  3.7579
  536ETH     HC 4823   4.787   1.565   1.634  0.9575 -0.3705 -0.6015
  536ETH     HC 4824   4.687   1.447   1.716 -1.4803  0.1360  0.5887
  537ETH     OH 4825   4.729   5.993   5.823  0.1610 -0.4592  0.3242
  537ETH     CH 4826   4.669   5.928   5.933  0.0585 -0.3036  0.3612
  537ETH     CH 4827   4.520   5.957   5.953  0.0236  0.0658 -0.4030
  537ETH     HO 4828   4.757   6.079   5.852 -1.6078  0.0576  0.5680
  537ETH     HC 4829   4.679   5.823   5.907  2.3829  0.0474 -0.2726
  537ETH     HC 4830   4.718   5.939   6.029  0.3000  0.3489  0.1686
  537ETH     HC 4831   4.451   5.922   5.877  0.6483 -0.6455 -0.6539
  537ETH     HC 4832   4.483   5.908   6.043 -1.4482 -1.3584 -1.7744
  537ETH     HC 4833   4.500   6.061   5.980  0.2598 -0.2887  1.2325
  538ETH     OH 4834   0.110   0.493   0.474  0.1820  0.0004  0.1141
  538ETH     CH 4835   0.107   0.554   0.347  0.7044  0.3838  0.2836
  538ETH     CH 4836   0.070   0.450   0.242  0.2245  0.3442  0.4943
  538ETH     HO 4837   0.152   0.555   0.532 -0.2399 -0.1103  0.5451
  538ETH     HC 4838   0.039   0.638   0.344  0.1355 -0.0604  0.6812
  538ETH     HC 4839   0.211   0.575   0.319  0.8799 -2.5386 -1.5223
  538ETH     HC 4840  -0.033   0.417   0.259 -0.5032  0.4299 -3.2483
  538ETH     HC 4841   0.068   0.497   0.143 -1.4079 -0.4684  0.1100
  538ETH     HC 4842   0.139   0.366   0.237  0.3060  0.4048  0.6303
  539ETH     OH 4843   3.696   2.479   0.981  0.9800  0.1199  0.3301
  539ETH     CH 4844   3.658   2.401   0.870  0.1915 -0.1438  0.7808
  539ETH     CH 4845   3.513   2.354   0.885 -0.0551  0.4083  0.1491
  539ETH     HO 4846   3.650   2.562   0.982 -0.3488 -0.5668 -1.2651
  539ETH     HC 4847   3.682   2.456   0.779  1.0383 -1.6283  0.0964
  539ETH     HC 4848   3.724   2.315   0.860  1.6489  0.9577  0.7702
  539ETH     HC 4849   3.479   2.301   0.796 -0.6938 -1.2632  1.3709
  539ETH     HC 4850   3.488   2.276   0.957 -0.8746  1.0830  0.6104
  539ETH     HC 4851   3.449   2.442   0.894 -2.3818 -1.0277 -1.8757
  540ETH     OH 4852   5.457   3.117   2.350 -0.3129 -0.3176  0.3673
  540ETH     CH 4853   5.443   2.994   2.283 -0.1923 -0.3749  0.4482
  540ETH     CH 4854   5.307   2.978   2.215  0.1724 -0.3712 -0.2933
  540ETH     HO 4855   5.504   3.100   2.430 -2.3612 -0.2963  1.5933
  540ETH     HC 4856   5.525   2.980   2.212 -0.4568  1.5514 -0.2775
  540ETH     HC 4857   5.459   2.916   2.357  2.6482 -0.1237  0.1508
  540ETH     HC 4858   5.309   2.888   2.153  3.4874 -1.5241  1.3228
  540ETH     HC 4859   5.226   2.966   2.287 -0.8235  2.7692 -0.8208
  540ETH     HC 4860   5.269   3.062   2.158 -0.5617 -0.2352  0.3796
  541ETH     OH 4861   3.499   5.376   3.666  0.1583 -0.2180 -0.0882
  541ETH     CH 4862   3.591   5.323   3.758  0.2026  0.5906  0.3346
  541ETH     CH 4863   3.727   5.277   3.705 -0.2104  0.4448 -0.6032
  541ETH     HO 4864   3.412   5.378   3.702  0.4864 -1.3391  0.7863
  541ETH     HC 4865   3.612   5.385   3.845  0.5281  0.3577  0.4225
  541ETH     HC 4866   3.539   5.235   3.798  1.2603 -0.6603 -0.9892
  541ETH     HC 4867   3.796   5.247   3.784 -1.3284  0.9683  0.5904
  541ETH     HC 4868   3.715   5.191   3.640 -3.1354 -0.2416  0.7281
  541ETH     HC 4869   3.774   5.348   3.637  0.4146  0.5025 -0.1135
  542ETH     OH 4870   4.432   4.565   2.381 -0.3581 -0.3423  0.0301
  542ETH     CH 4871   4.556   4.579   2.447 -0.2883  0.3941 -0.2449
  542ETH     CH 4872   4.659   4.631   2.347 -0.2839  0.3262 -0.2752
  542ETH     HO 4873   4.382   4.511   2.440 -0.1819  0.9672  1.4233
  542ETH     HC 4874   4.541   4.656   2.523  0.4930 -0.4096  0.7538
  542ETH     HC 4875   4.598   4.490   2.493  1.0806  1.4056  0.4826
  542ETH     HC 4876   4.703   4.551   2.288  0.0207  0.2422  0.0637
  542ETH     HC 4877   4.610   4.708   2.289 -0.7544  0.5268  0.3804
  542ETH     HC 4878   4.735   4.694   2.393 -2.5178  2.4826  0.5320
  543ETH     OH 4879   2.746   5.802   2.733 -0.6022  0.0087 -0.0354
  543ETH     CH 4880   2.697   5.812   2.601  0.1414  0.0158 -0.3124
  543ETH     CH 4881   2.782   5.726   2.508 -0.1186 -0.3041 -0.2553
  543ETH     HO 4882   2.789   5.883   2.756 -1.3195  0.5407 -0.5386
  543ETH     HC 4883   2.598   5.769   2.584  0.4975 -0.1429 -2.0994
  543ETH     HC 4884   2.698   5.915   2.564  0.1534 -0.0955 -0.6196
  543ETH     HC 4885   2.755   5.748   2.404  0.5701  0.4342 -0.2769
  543ETH     HC 4886   2.884   5.753   2.533  0.5148 -1.6473 -1.2982
  543ETH     HC 4887   2.773   5.621   2.534 -0.0850 -0.1679  0.3118
  544ETH     OH 4888   5.485   4.461   4.749  0.4494 -0.0542  0.1338
  544ETH     CH 4889   5.466   4.381   4.635  0.1195 -0.0657  0.1968
  544ETH     CH 4890   5.550   4.448   4.527  0.0816 -0.3628 -0.0180
  544ETH     HO 4891   5.576   4.474   4.774  0.1464  0.4378  1.0406
  544ETH     HC 4892   5.507   4.282   4.655 -2.3689 -0.9080  1.3914
  544ETH     HC 4893   5.361   4.360   4.614  0.3802 -0.7841 -0.4191
  544ETH     HC 4894   5.554   4.405   4.427 -0.7199  1.3790 -0.8379
  544ETH     HC 4895   5.501   4.544   4.508  0.8682  0.1574  0.5584
  544ETH     HC 4896   5.653   4.479   4.545 -0.0201  0.6108 -0.9829
  545ETH     OH 4897   3.474   5.534   0.932 -0.1195 -0.0797 -0.0291
  545ETH     CH 4898   3.456   5.668   0.973  0.0297  0.0110 -0.2511
  545ETH     CH 4899   3.571   5.758   0.931  0.5320 -0.2276  0.6113
  545ETH     HO 4900   3.503   5.537   0.842 -2.4665 -3.1642 -0.9775
  545ETH     HC 4901   3.361   5.702   0.931  0.1267  0.6314  0.0385
  545ETH     HC 4902   3.438   5.666   1.081  1.1358 -1.8715 -0.0905
  545ETH     HC 4903   3.582   5.765   0.823 -3.7485 -0.9214  0.0701
  545ETH     HC 4904   3.547   5.857   0.972 -0.4002 -1.1483  2.3401
  545ETH     HC 4905   3.668   5.735   0.975  0.2992 -1.4349  0.4960
  546ETH     OH 4906   0.880   0.501   6.138  0.7508  0.0723 -0.0018
  546ETH     CH 4907   1.001   0.487   6.067  0.5574  0.0464 -0.3265
  546ETH     CH 4908   1.098   0.437   6.174  0.3898  0.4294  0.0063
  546ETH     HO 4909   0.883   0.590   6.169 -1.4178 -1.1152  3.9583
  546ETH     HC 4910   0.995   0.415   5.985  0.0483 -0.0936 -0.1723
  546ETH     HC 4911   1.027   0.586   6.029 -0.5110  0.1918 -0.7114
  546ETH     HC 4912   1.068   0.338   6.206  2.0692  0.1021  0.5919
  546ETH     HC 4913   1.196   0.428   6.127 -0.1410  0.1136 -1.0523
  546ETH     HC 4914   1.116   0.500   6.261  2.1800 -1.2005  0.8547
  547ETH     OH 4915   0.741   2.192   3.538 -0.1464  0.1836  0.1424
  547ETH     CH 4916   0.800   2.188   3.410 -0.4234 -0.2451  0.0266
  547ETH     CH 4917   0.687   2.173   3.307 -0.1974 -0.4444 -0.1925
  547ETH     HO 4918   0.807   2.169   3.601 -1.2972 -0.0007  1.3249
  547ETH     HC 4919   0.857   2.278   3.386 -0.6475  0.5552  2.4055
  547ETH     HC 4920   0.856   2.095   3.401 -0.8735 -0.3325 -2.1871
  547ETH     HC 4921   0.714   2.176   3.202 -1.8972 -0.1384 -0.6293
  547ETH     HC 4922   0.621   2.088   3.320  1.2033 -1.1196  3.1872
  547ETH     HC 4923   0.622   2.260   3.318 -0.2795 -0.5182 -0.0954
  548ETH     OH 4924   2.269   1.540   5.356  0.1065 -0.3099  0.3102
  548ETH     CH 4925   2.300   1.650   5.439  0.3442 -0.7373  0.7871
  548ETH     CH 4926   2.200   1.667   5.554 -0.6415 -0.1263 -0.1484
  548ETH     HO 4927   2.315   1.541   5.274 -0.7386  1.0999 -0.1619
  548ETH     HC 4928   2.401   1.629   5.473  0.0702 -1.1855  1.3364
  548ETH     HC 4929   2.310   1.744   5.386  2.7236 -1.4160 -0.0134
  548ETH     HC 4930   2.245   1.710   5.644 -1.8561  2.3282 -0.6894
  548ETH     HC 4931   2.125   1.741   5.528  0.8540  0.5760 -2.6699
  548ETH     HC 4932   2.157   1.572   5.584 -1.4256  0.0044 -0.8557
  549ETH     OH 4933   5.793   2.884   2.547  0.6691 -0.3997  0.1896
  549ETH     CH 4934   5.817   2.856   2.411 -0.9539  0.4489 -0.2731
  549ETH     CH 4935   5.849   2.980   2.326 -0.0298  0.4697  0.1000
  549ETH     HO 4936   5.764   2.973   2.560 -1.7569 -1.4713  2.5906
  549ETH     HC 4937   5.888   2.775   2.396 -2.2091 -0.2133 -2.9866
  549ETH     HC 4938   5.725   2.814   2.370  0.4276 -0.5914 -2.3904
  549ETH     HC 4939   5.862   2.939   2.226  0.6213 -1.3373  0.8916
  549ETH     HC 4940   5.764   3.049   2.325 -0.7716 -0.4228  0.1123
  549ETH     HC 4941   5.938   3.034   2.356  0.8637 -0.6105 -0.5916
  550ETH     OH 4942   5.820   3.633   5.746 -0.1887 -0.3402 -0.6328
  550ETH     CH 4943   5.836   3.712   5.631  0.1339 -0.6763 -0.8179
  550ETH     CH 4944   5.977   3.693   5.575  0.4545 -0.2770 -0.1507
  550ETH     HO 4945   5.843   3.684   5.822  1.5784 -0.9409 -0.7543
  550ETH     HC 4946   5.771   3.677   5.551 -2.7146 -2.5252  2.1838
  550ETH     HC 4947   5.821   3.819   5.643  0.6456 -0.6039 -0.7848
  550ETH     HC 4948   5.976   3.595   5.527 -0.1197 -0.5789  0.4808
  550ETH     HC 4949   6.013   3.763   5.499 -1.3439  1.4289  0.5225
  550ETH     HC 4950   6.059   3.694   5.647  0.9939  0.6784 -0.7639
  551ETH     OH 4951   3.268   5.844   1.748  0.6856 -0.0989  0.4679
  551ETH     CH 4952   3.391   5.779   1.725  0.5404 -0.0941 -0.3268
  551ETH     CH 4953   3.446   5.813   1.586  0.7026  0.1264 -0.2096
  551ETH     HO 4954   3.223   5.796   1.816 -0.7514  1.6573  0.8096
  551ETH     HC 4955   3.457   5.812   1.805  0.7046  0.8616 -0.8451
  551ETH     HC 4956   3.391   5.670   1.734 -1.1361 -0.0194  0.7360
  551ETH     HC 4957   3.381   5.774   1.507  2.3379  2.3005 -2.7058
  551ETH     HC 4958   3.466   5.919   1.575  0.0401  0.3408  0.6085
  551ETH     HC 4959   3.541   5.760   1.578 -0.6206 -2.7864  1.9949
  552ETH     OH 4960   4.949   1.159   2.057  0.4404  0.1473  0.1408
  552ETH     CH 4961   4.879   1.260   1.987  0.3006  0.1168  0.2369
  552ETH     CH 4962   4.972   1.320   1.882  0.3476  0.0073  0.2155
  552ETH     HO 4963   4.964   1.085   2.000 -0.6851 -0.5105  0.6994
  552ETH     HC 4964   4.776   1.242   1.957  0.9192  0.0539 -1.9026
  552ETH     HC 4965   4.874   1.340   2.061  0.5804  1.3679 -1.0829
  552ETH     HC 4966   4.935   1.403   1.822  0.4230  0.6745  1.0763
  552ETH     HC 4967   5.055   1.356   1.943  0.9408 -1.0682  0.0475
  552ETH     HC 4968   4.995   1.241   1.811 -0.5410 -0.7021  0.7147
  553ETH     OH 4969   5.451   3.342   0.866 -0.3568  0.7341 -0.7437
  553ETH     CH 4970   5.536   3.455   0.863  0.4004  0.1907  0.0700
  553ETH     CH 4971   5.508   3.545   0.743 -0.3133 -0.2970 -0.1355
  553ETH     HO 4972   5.372   3.369   0.910  0.0131  0.2915  0.1928
  553ETH     HC 4973   5.525   3.517   0.951 -2.3814 -1.1541  0.7540
  553ETH     HC 4974   5.638   3.417   0.869  0.7587  1.0095 -0.9048
  553ETH     HC 4975   5.574   3.521   0.660  0.1152  0.0660  0.0978
  553ETH     HC 4976   5.401   3.555   0.721 -0.7798 -0.7731  1.7905
  553ETH     HC 4977   5.526   3.651   0.763 -0.5365  0.0279 -1.6334
  554ETH     OH 4978   5.344   4.171   4.433 -0.3879 -0.2738  0.5181
  554ETH     CH 4979   5.324   4.061   4.347 -0.5377  0.1070  0.0672
  554ETH     CH 4980   5.210   3.965   4.380 -0.1292 -0.3178  0.2421
  554ETH     HO 4981   5.262   4.218   4.434 -0.2117  0.0931 -0.8624
  554ETH     HC 4982   5.314   4.106   4.248 -1.1699  0.2984  0.2104
  554ETH     HC 4983   5.417   4.007   4.335 -0.1205 -0.4362  4.8848
  554ETH     HC 4984   5.216   3.918   4.478  0.8581  3.7308  2.1896
  554ETH     HC 4985   5.110   4.007   4.366 -0.6567 -2.2949 -2.4430
  554ETH     HC 4986   5.213   3.877   4.315 -0.3992  0.7427 -1.2296
  555ETH     OH 4987   4.831   1.659   5.441  0.4446  0.0895  0.2143
  555ETH     CH 4988   4.730   1.662   5.343 -0.0356 -0.3729  0.6908
  555ETH     CH 4989   4.606   1.733   5.398 -0.2570 -0.0686 -0.1899
  555ETH     HO 4990   4.894   1.600   5.402 -2.0069 -1.2008 -2.0058
  555ETH     HC 4991   4.773   1.718   5.260  0.2480 -0.8801  0.4961
  555ETH     HC 4992   4.695   1.564   5.309 -0.7097  0.5297 -1.3253
  555ETH     HC 4993   4.533   1.759   5.320  1.4405 -1.8945 -2.4611
  555ETH     HC 4994   4.573   1.695   5.494 -0.7241 -1.5851 -0.9425
  555ETH     HC 4995   4.633   1.834   5.430 -0.0805 -0.3922  0.6675
  556ETH     OH 4996   5.325   4.807   4.516  0.0054  0.0178  0.3776
  556ETH     CH 4997   5.331   4.879   4.637  0.0499  0.2411  0.2422
  556ETH     CH 4998   5.277   4.793   4.751  0.4216  0.1791  0.3761
  556ETH     HO 4999   5.411   4.810   4.477 -0.4813  2.2921 -0.6012
  556ETH     HC 5000   5.438   4.889   4.659 -0.1294  0.1510  1.1693
  556ETH     HC 5001   5.287   4.979   4.640  1.8177  1.0651 -0.5411
  556ETH     HC 5002   5.313   4.837   4.844  0.7805  2.8347 -0.9693
  556ETH     HC 5003   5.168   4.783   4.747  0.1962  2.2127  0.5013
  556ETH     HC 5004   5.325   4.696   4.752  1.2773  0.5703  3.6956
  557ETH     OH 5005   2.790   1.976   4.444  1.3916 -0.4095 -0.0701
  557ETH     CH 5006   2.808   1.972   4.584 -0.5936  0.2731  0.2161
  557ETH     CH 5007   2.786   1.825   4.621 -0.0865  0.0722 -0.2736
  557ETH     HO 5008   2.845   2.049   4.418 -0.4080  0.5575 -1.2347
  557ETH     HC 5009   2.737   2.025   4.648  1.3527  0.8615  1.9543
  557ETH     HC 5010   2.909   2.006   4.605 -0.5047 -0.8705  1.7410
  557ETH     HC 5011   2.692   1.786   4.580 -0.8361  1.0793  0.4552
  557ETH     HC 5012   2.863   1.757   4.585  0.0856  0.1442 -0.0393
  557ETH     HC 5013   2.773   1.815   4.729  0.6870  1.3213 -0.0527
  558ETH     OH 5014   5.565   1.121   2.614  0.1511  0.1139 -0.1646
  558ETH     CH 5015   5.678   1.130   2.531 -0.0456 -0.5043 -0.5085
  558ETH     CH 5016   5.692   1.031   2.415 -0.4054 -0.0814 -0.9158
  558ETH     HO 5017   5.574   1.048   2.673  0.2736 -0.4607 -0.8793
  558ETH     HC 5018   5.662   1.222   2.474 -1.8237 -2.0143 -2.4982
  558ETH     HC 5019   5.772   1.128   2.587 -0.4962 -1.4220  0.2313
  558ETH     HC 5020   5.607   1.025   2.346 -1.0366 -2.3144 -0.0075
  558ETH     HC 5021   5.781   1.050   2.357  1.0911 -0.9988  1.0010
  558ETH     HC 5022   5.709   0.936   2.466 -0.1550  0.0482 -0.7590
  559ETH     OH 5023   5.440   3.185   0.023  0.1927 -0.2401 -0.3497
  559ETH     CH 5024   5.566   3.182   0.088 -0.3583  0.3030  0.7668
  559ETH     CH 5025   5.646   3.310   0.067  0.0403 -0.1365 -0.4535
  559ETH     HO 5026   5.466   3.181  -0.068  0.6952  1.5703 -0.3068
  559ETH     HC 5027   5.546   3.166   0.194  0.6164  2.0555  1.2253
  559ETH     HC 5028   5.623   3.095   0.054  2.3922  2.8472 -1.3705
  559ETH     HC 5029   5.721   3.325   0.145 -1.2455 -0.0636  0.7944
  559ETH     HC 5030   5.684   3.308  -0.035 -2.7295  1.2458 -1.5613
  559ETH     HC 5031   5.590   3.403   0.072  2.0341  1.0806 -0.1969
  560ETH     OH 5032   4.631   0.087   2.617  0.3318 -0.1773  0.6365
  560ETH     CH 5033   4.659  -0.030   2.544 -0.2696  0.0532  0.0181
  560ETH     CH 5034   4.550  -0.133   2.570  0.2711 -0.5800 -0.2040
  560ETH     HO 5035   4.709   0.141   2.617  0.4987 -0.4235  1.8512
  560ETH     HC 5036   4.677  -0.006   2.439 -0.3299 -0.2916 -0.0725
  560ETH     HC 5037   4.747  -0.073   2.592  1.4328  2.4396 -0.8852
  560ETH     HC 5038   4.539  -0.210   2.492 -1.0520 -0.7691  0.1502
  560ETH     HC 5039   4.561  -0.175   2.670  0.3887  2.6495  1.1757
  560ETH     HC 5040   4.456  -0.083   2.546 -0.3030 -1.6678 -0.2995
  561ETH     OH 5041   3.382   2.746   1.981 -0.0149  0.2069  0.8624
  561ETH     CH 5042   3.336   2.845   1.891  0.2087 -0.1057  0.3992
  561ETH     CH 5043   3.401   2.827   1.754 -0.2227 -0.4867  0.2435
  561ETH     HO 5044   3.474   2.768   1.981 -0.2518  1.4676 -2.1928
  561ETH     HC 5045   3.230   2.826   1.875 -0.0175  1.0571  0.4769
  561ETH     HC 5046   3.336   2.951   1.918 -0.1100  0.0313 -0.1348
  561ETH     HC 5047   3.386   2.729   1.710 -1.9482 -0.0812 -0.1249
  561ETH     HC 5048   3.348   2.896   1.689 -0.5528 -0.2344  0.7824
  561ETH     HC 5049   3.508   2.846   1.762 -0.1043 -1.1823  0.3572
  562ETH     OH 5050   4.840   5.718   3.332  0.1740 -0.2508 -0.4249
  562ETH     CH 5051   4.733   5.776   3.262 -0.2643 -0.3680  0.1483
  562ETH     CH 5052   4.651   5.665   3.197 -0.6765  0.1537 -0.2267
  562ETH     HO 5053   4.900   5.676   3.272  1.4177 -0.6184  1.0193
  562ETH     HC 5054   4.662   5.830   3.326  0.2507  2.3091 -1.4863
  562ETH     HC 5055   4.774   5.846   3.189 -0.2171 -0.3277  0.2134
  562ETH     HC 5056   4.708   5.605   3.126 -0.9529  0.9559 -1.1386
  562ETH     HC 5057   4.609   5.588   3.261  2.6015 -0.0256  1.8001
  562ETH     HC 5058   4.580   5.708   3.126  3.3696  0.9172 -4.0118
  563ETH     OH 5059   0.131   0.378   4.538 -0.0200 -0.4068 -0.0662
  563ETH     CH 5060   0.173   0.508   4.574 -0.2491 -0.3323 -0.0674
  563ETH     CH 5061   0.063   0.565   4.663  0.1680  0.0041  0.2336
  563ETH     HO 5062   0.188   0.335   4.476 -0.4604  0.3385 -0.9955
  563ETH     HC 5063   0.260   0.491   4.638  2.0364 -0.8562 -3.1925
  563ETH     HC 5064   0.206   0.573   4.493  2.2543  0.6957  1.7014
  563ETH     HC 5065  -0.034   0.583   4.616  0.8819  2.9481 -0.2378
  563ETH     HC 5066   0.056   0.506   4.754  1.6620  0.2103  0.4980
  563ETH     HC 5067   0.105   0.663   4.686  0.7520 -0.4443  1.1149
  564ETH     OH 5068   4.150   1.275   5.042 -0.4146 -0.0024 -0.2487
  564ETH     CH 5069   4.180   1.393   5.112  0.0969 -0.2023 -0.1314
  564ETH     CH 5070   4.152   1.367   5.260  0.3675  0.2827  0.0050
  564ETH     HO 5071   4.204   1.205   5.076  0.3302  0.6503 -0.0949
  564ETH     HC 5072   4.286   1.419   5.116  0.1277 -0.3312 -0.1017
  564ETH     HC 5073   4.129   1.484   5.081 -1.4582 -0.4479  1.6105
  564ETH     HC 5074   4.046   1.379   5.281 -0.5474 -4.0910 -1.7251
  564ETH     HC 5075   4.188   1.270   5.295 -3.1748 -0.4350  1.8621
  564ETH     HC 5076   4.209   1.441   5.317 -0.5478 -0.7473  2.3219
  565ETH     OH 5077   4.250   4.354   4.128 -0.0013  0.3973 -0.1312
  565ETH     CH 5078   4.242   4.403   3.997  0.3581  0.3430 -0.1757
  565ETH     CH 5079   4.101   4.425   3.941  0.2532 -0.0844 -0.0827
  565ETH     HO 5080   4.185   4.285   4.134  0.7301 -0.1146  3.5137
  565ETH     HC 5081   4.305   4.490   3.983 -0.1658  0.5538 -1.3599
  565ETH     HC 5082   4.290   4.325   3.938  0.1926  0.8724 -1.0314
  565ETH     HC 5083   4.099   4.487   3.851  0.3521  1.2467  0.8150
  565ETH     HC 5084   4.056   4.333   3.904 -0.5045 -0.0506  0.7494
  565ETH     HC 5085   4.038   4.466   4.020  1.9131 -0.6939  1.5965
  566ETH     OH 5086   0.147   1.609   5.395  0.2658  0.3782 -0.0078
  566ETH     CH 5087   0.148   1.718   5.306 -0.1605  0.1214 -0.3310
  566ETH     CH 5088   0.090   1.842   5.373 -0.8597 -0.1579 -0.4169
  566ETH     HO 5089   0.207   1.541   5.366  1.1993  0.7115  1.0966
  566ETH     HC 5090   0.245   1.741   5.261  0.2645 -0.1956  0.4213
  566ETH     HC 5091   0.093   1.676   5.222  0.8354 -2.1706  0.1057
  566ETH     HC 5092   0.135   1.873   5.468  1.0753  1.0752 -1.7147
  566ETH     HC 5093   0.100   1.925   5.303  0.7409  2.0027  2.2891
  566ETH     HC 5094  -0.018   1.833   5.389 -1.0913  3.1395  0.3288
  567ETH     OH 5095   0.655   1.509   4.875  0.8636 -0.0442  0.1613
  567ETH     CH 5096   0.562   1.431   4.803  0.5459  0.5541 -0.0794
  567ETH     CH 5097   0.622   1.393   4.668  0.1157  0.3231 -0.2082
  567ETH     HO 5098   0.616   1.529   4.959  4.0237  1.6366  1.2990
  567ETH     HC 5099   0.536   1.337   4.854  0.6292  0.7119  0.2565
  567ETH     HC 5100   0.473   1.490   4.781 -0.0384 -0.1231  0.4335
  567ETH     HC 5101   0.730   1.383   4.684  0.3635 -1.3120 -2.6380
  567ETH     HC 5102   0.585   1.297   4.630  1.1400 -0.3475  0.4374
  567ETH     HC 5103   0.604   1.474   4.598  0.4016  1.0685  0.5828
  568ETH     OH 5104   3.393   0.436   3.190  0.4696  0.5072  0.4491
  568ETH     CH 5105   3.525   0.418   3.143  0.1944  0.4927 -0.3363
  568ETH     CH 5106   3.515   0.312   3.033  0.2840  0.1264  0.0058
  568ETH     HO 5107   3.337   0.477   3.126 -1.7605 -0.0871  1.9788
  568ETH     HC 5108   3.567   0.504   3.090  0.9780 -0.1256 -0.7250
  568ETH     HC 5109   3.585   0.387   3.229 -2.5331 -1.2863  1.0095
  568ETH     HC 5110   3.607   0.258   3.014  0.5360  0.6653 -0.3323
  568ETH     HC 5111   3.453   0.226   3.057 -1.9565  1.2202 -1.6635
  568ETH     HC 5112   3.461   0.349   2.946  1.4665 -1.5386 -1.4600
  569ETH     OH 5113   6.203   3.439   5.094  0.1080  0.4105  0.1670
  569ETH     CH 5114   6.067   3.454   5.128  0.2525  0.5389  0.6928
  569ETH     CH 5115   6.060   3.396   5.270 -0.3286 -0.6179  0.1981
  569ETH     HO 5116   6.196   3.442   5.000 -0.4499  0.5375  0.2115
  569ETH     HC 5117   6.034   3.558   5.130  2.0877  1.1278  0.6598
  569ETH     HC 5118   6.008   3.394   5.059  1.3284  0.6278 -0.3209
  569ETH     HC 5119   5.958   3.387   5.306 -0.9472  0.0686 -1.3157
  569ETH     HC 5120   6.092   3.292   5.270  0.0407 -0.5609 -2.6457
  569ETH     HC 5121   6.107   3.469   5.335 -1.2763  1.5318 -1.4578
  570ETH     OH 5122   6.213   0.925   1.311  0.0880  0.3312  0.5128
  570ETH     CH 5123   6.322   1.004   1.352  0.2185  0.3440  0.1405
  570ETH     CH 5124   6.255   1.109   1.441  0.2016 -0.4234  1.0402
  570ETH     HO 5125   6.242   0.861   1.247 -3.8864 -0.6674 -0.4330
  570ETH     HC 5126   6.401   0.947   1.400 -1.7668  0.2476  3.4026
  570ETH     HC 5127   6.366   1.053   1.265  0.0832  0.6417  0.2363
  570ETH     HC 5128   6.322   1.177   1.493  0.4464  0.3710 -0.2965
  570ETH     HC 5129   6.193   1.169   1.374  0.7659 -0.1686  0.7464
  570ETH     HC 5130   6.187   1.069   1.516 -2.0620  1.8052  0.2525
  571ETH     OH 5131   5.836   0.434   2.412 -0.3013  0.1269 -0.4938
  571ETH     CH 5132   5.788   0.326   2.336 -0.5440 -0.2288  0.1628
  571ETH     CH 5133   5.899   0.260   2.255 -0.0644  0.1291  0.5253
  571ETH     HO 5134   5.865   0.499   2.349 -0.2924  1.6096  0.9926
  571ETH     HC 5135   5.736   0.249   2.393  0.8395 -0.0984  1.6448
  571ETH     HC 5136   5.718   0.364   2.262 -1.4682 -1.1716  0.5356
  571ETH     HC 5137   5.872   0.171   2.198 -1.0764  0.6090  0.2558
  571ETH     HC 5138   5.922   0.330   2.174  2.1201 -2.8042 -1.5174
  571ETH     HC 5139   5.988   0.243   2.316  0.3621  0.8436  0.1254
  572ETH     OH 5140   2.620   1.675   0.293  0.1156  0.2247  0.5791
  572ETH     CH 5141   2.582   1.784   0.212 -0.0872 -0.0711  0.2735
  572ETH     CH 5142   2.434   1.815   0.237 -0.0080  0.1122  0.5148
  572ETH     HO 5143   2.621   1.706   0.382  0.6367 -0.4106  0.7981
  572ETH     HC 5144   2.633   1.877   0.236  1.4672 -0.5069 -1.2561
  572ETH     HC 5145   2.592   1.749   0.109 -1.3446 -0.8987  0.4185
  572ETH     HC 5146   2.418   1.816   0.345  0.8155  0.2724  0.6370
  572ETH     HC 5147   2.426   1.918   0.204 -2.4595 -0.5705 -1.1424
  572ETH     HC 5148   2.368   1.756   0.174  0.7842  0.5980 -0.7780
  573ETH     OH 5149   3.703   2.604   2.398 -0.2918 -0.4566  0.0291
  573ETH     CH 5150   3.815   2.656   2.465 -0.2318  0.6811 -0.9360
  573ETH     CH 5151   3.948   2.633   2.391  0.0318  0.8419 -0.5108
  573ETH     HO 5152   3.720   2.526   2.347 -0.6992 -1.7518  1.8548
  573ETH     HC 5153   3.801   2.759   2.497  1.6592  0.6722 -0.0201
  573ETH     HC 5154   3.815   2.597   2.556  2.0660  1.4348 -0.3984
  573ETH     HC 5155   3.966   2.529   2.364 -1.8476  0.2566  0.3697
  573ETH     HC 5156   3.935   2.674   2.291 -0.8278 -0.8250 -1.1081
  573ETH     HC 5157   4.042   2.661   2.439  0.2253 -1.4932  0.5427
  574ETH     OH 5158   4.924   2.031   1.223 -0.8494  0.6146 -0.5752
  574ETH     CH 5159   4.963   2.099   1.341  0.1948 -0.1407 -0.4755
  574ETH     CH 5160   4.865   2.060   1.452  0.7605 -0.0854  0.0416
  574ETH     HO 5161   4.842   2.069   1.196 -1.5930 -0.2253  0.4436
  574ETH     HC 5162   5.068   2.078   1.360 -0.1142 -2.0380 -0.7687
  574ETH     HC 5163   4.967   2.208   1.343 -2.3377 -0.0283  2.9613
  574ETH     HC 5164   4.901   2.061   1.555  0.8477  0.6878  0.0139
  574ETH     HC 5165   4.769   2.111   1.452  0.4849 -0.5890 -1.3910
  574ETH     HC 5166   4.832   1.957   1.444  3.2103 -1.0435  1.6378
  575ETH     OH 5167   2.904   5.515   1.637 -0.2546 -0.4172  0.5423
  575ETH     CH 5168   3.033   5.569   1.623 -0.3501 -0.2498  0.3018
  575ETH     CH 5169   3.136   5.502   1.715 -0.2900 -0.7307 -0.1082
  575ETH     HO 5170   2.889   5.454   1.566 -1.1177  0.0715  0.2966
  575ETH     HC 5171   3.065   5.540   1.523  0.1057 -1.8508  0.8980
  575ETH     HC 5172   3.047   5.677   1.627  0.0132 -0.3023  0.5692
  575ETH     HC 5173   3.126   5.394   1.711  0.5152 -0.7899 -0.4256
  575ETH     HC 5174   3.234   5.533   1.680 -0.7137  2.3282  1.2015
  575ETH     HC 5175   3.125   5.520   1.822  1.3631  0.5331 -0.1281
  576ETH     OH 5176   0.288   1.973   5.754  0.0908 -0.2193  0.4966
  576ETH     CH 5177   0.162   2.037   5.745  0.0630 -0.3527 -0.0698
  576ETH     CH 5178   0.170   2.114   5.877 -0.2527  0.6683 -0.6378
  576ETH     HO 5179   0.354   2.040   5.751 -0.3509  0.1568 -2.2155
  576ETH     HC 5180   0.152   2.102   5.658 -0.2139 -1.0679 -0.5763
  576ETH     HC 5181   0.083   1.963   5.749  1.1820 -1.5402  0.5961
  576ETH     HC 5182   0.247   2.192   5.879 -1.5616  1.9654  0.9405
  576ETH     HC 5183   0.071   2.150   5.903 -0.1279  0.3047  0.3678
  576ETH     HC 5184   0.189   2.045   5.960  0.6546  1.4054 -0.2271
  577ETH     OH 5185   0.655   5.043   4.829  0.2005  0.2656 -0.1890
  577ETH     CH 5186   0.724   5.048   4.706 -0.0982  0.0671 -0.3650
  577ETH     CH 5187   0.704   5.179   4.630  0.7248  0.1297 -0.4786
  577ETH     HO 5188   0.696   5.091   4.899  1.9413 -0.4222 -0.7011
  577ETH     HC 5189   0.831   5.038   4.726 -0.2513 -1.3768 -0.2066
  577ETH     HC 5190   0.687   4.966   4.644  1.5394 -0.0414 -1.2407
  577ETH     HC 5191   0.713   5.261   4.702 -2.8322 -0.4697  0.7315
  577ETH     HC 5192   0.778   5.193   4.551 -0.0799  2.3937 -0.8704
  577ETH     HC 5193   0.609   5.183   4.578  0.8499 -0.0974 -0.7266
  578ETH     OH 5194   3.657   1.968   4.323  0.3095 -0.4320  0.1056
  578ETH     CH 5195   3.615   1.880   4.222 -0.4601 -0.6305  0.5956
  578ETH     CH 5196   3.477   1.919   4.168  0.0745 -0.2450 -0.5056
  578ETH     HO 5197   3.749   1.953   4.336  0.6278 -0.0554 -1.6186
  578ETH     HC 5198   3.692   1.882   4.145 -0.1852 -2.5496  0.7832
  578ETH     HC 5199   3.618   1.783   4.272  1.5256  0.3370  2.4216
  578ETH     HC 5200   3.483   2.026   4.148  0.3963 -0.1402  0.1389
  578ETH     HC 5201   3.449   1.862   4.080 -0.1392 -0.9596  0.0203
  578ETH     HC 5202   3.396   1.902   4.239  0.0285 -3.0506 -1.1759
  579ETH     OH 5203   0.619   1.087   4.893  0.9310  0.0617  0.2140
  579ETH     CH 5204   0.504   1.064   4.972  0.6381  0.3032 -0.1384
  579ETH     CH 5205   0.547   1.006   5.107  0.3372  0.1841 -0.0915
  579ETH     HO 5206   0.688   1.117   4.950  1.1749 -2.6898  1.4397
  579ETH     HC 5207   0.437   1.150   4.977  0.0968 -0.1615  0.7394
  579ETH     HC 5208   0.446   0.989   4.918  1.1601  0.1233 -0.4604
  579ETH     HC 5209   0.570   0.900   5.101 -1.5561 -0.2722  0.4050
  579ETH     HC 5210   0.633   1.060   5.148  0.1291  1.0464 -0.7834
  579ETH     HC 5211   0.471   1.024   5.183  1.1928  1.5810  0.4559
  580ETH     OH 5212   5.801   5.133   5.553 -0.7151  0.8309  0.3119
  580ETH     CH 5213   5.689   5.074   5.616 -0.0970 -0.3445  0.3180
  580ETH     CH 5214   5.643   4.962   5.523 -0.4788  0.3511 -0.3343
  580ETH     HO 5215   5.827   5.208   5.604  0.9240  0.5040 -0.0404
  580ETH     HC 5216   5.710   5.042   5.718  1.5696 -2.4397 -0.6413
  580ETH     HC 5217   5.618   5.156   5.623 -0.0032 -0.1636 -0.8342
  580ETH     HC 5218   5.713   4.880   5.541  1.3959  1.2664 -3.1910
  580ETH     HC 5219   5.547   4.920   5.552 -0.7410  0.7017 -0.7036
  580ETH     HC 5220   5.647   4.986   5.417  0.5934  0.5168 -0.2591
  581ETH     OH 5221   3.355   0.337   3.449 -0.2130  0.4432  0.3465
  581ETH     CH 5222   3.347   0.440   3.545  0.0736  0.5656  0.2397
  581ETH     CH 5223   3.308   0.368   3.674  0.3883  0.0987  0.0711
  581ETH     HO 5224   3.383   0.377   3.368 -0.3490  0.2138  0.1849
  581ETH     HC 5225   3.444   0.487   3.560  1.1762 -1.2266 -1.0807
  581ETH     HC 5226   3.274   0.515   3.512 -0.0685 -0.5392 -2.0216
  581ETH     HC 5227   3.291   0.437   3.756 -1.4758  1.8749 -1.7558
  581ETH     HC 5228   3.217   0.309   3.666  0.7576 -0.4183 -0.3703
  581ETH     HC 5229   3.393   0.305   3.701  1.5676  1.9539  0.8090
  582ETH     OH 5230   2.988   4.130   1.704  0.0613  0.3892 -0.3773
  582ETH     CH 5231   3.018   4.085   1.834  0.0786  0.1500 -0.4634
  582ETH     CH 5232   2.887   4.045   1.902  0.3879  0.3011  0.2295
  582ETH     HO 5233   2.972   4.058   1.646  1.2100 -0.9379  0.8881
  582ETH     HC 5234   3.088   4.002   1.840 -1.8023 -1.4896 -0.8072
  582ETH     HC 5235   3.063   4.170   1.885 -0.7319  1.3340 -1.6991
  582ETH     HC 5236   2.812   4.123   1.900 -1.2171 -1.2253 -0.2499
  582ETH     HC 5237   2.836   3.958   1.860 -0.2983  0.5630  0.5123
  582ETH     HC 5238   2.886   4.021   2.009  0.6261  0.6933  0.3201
  583ETH     OH 5239   0.400   1.425   4.099  0.7073  0.5444  0.1169
  583ETH     CH 5240   0.364   1.332   4.199  0.9210  0.1856 -0.1383
  583ETH     CH 5241   0.420   1.369   4.336  1.0222  0.3246 -0.2167
  583ETH     HO 5242   0.365   1.512   4.113  2.6763  1.0387  2.3389
  583ETH     HC 5243   0.255   1.332   4.198  0.8614 -3.3345 -3.6509
  583ETH     HC 5244   0.396   1.233   4.168  2.5639  1.0944 -1.4287
  583ETH     HC 5245   0.389   1.468   4.369 -0.6819 -0.6028  1.0658
  583ETH     HC 5246   0.392   1.293   4.409 -1.7938  1.2850 -0.2334
  583ETH     HC 5247   0.529   1.376   4.333  1.1647 -0.4650  1.7755
  584ETH     OH 5248   0.476   2.361   0.978  0.4546 -0.8206  0.0307
  584ETH     CH 5249   0.377   2.324   0.885 -0.1071 -0.2095  0.3770
  584ETH     CH 5250   0.251   2.390   0.941  0.0030 -0.2514  0.6724
  584ETH     HO 5251   0.482   2.453   0.955  3.1393 -1.7850 -3.4462
  584ETH     HC 5252   0.384   2.363   0.783 -0.7422 -0.5847  0.1891
  584ETH     HC 5253   0.366   2.216   0.886 -1.1026 -0.1122  1.5018
  584ETH     HC 5254   0.173   2.360   0.871  1.4694 -0.3325 -0.9613
  584ETH     HC 5255   0.229   2.358   1.043 -0.8488  1.5498  1.0649
  584ETH     HC 5256   0.244   2.496   0.919  0.1751 -0.4295 -0.2477
  585ETH     OH 5257   0.349   2.650   4.074 -0.1004 -0.0214 -0.0569
  585ETH     CH 5258   0.456   2.591   4.003  0.0575  0.6105 -0.3443
  585ETH     CH 5259   0.395   2.523   3.880  0.1957  0.3259 -0.2554
  585ETH     HO 5260   0.383   2.702   4.144  0.8176  2.0538 -1.9930
  585ETH     HC 5261   0.521   2.669   3.963  0.5613  0.1923 -0.3437
  585ETH     HC 5262   0.506   2.522   4.070 -0.6014  1.3580  0.9451
  585ETH     HC 5263   0.350   2.608   3.829  2.2737  1.4253 -0.2750
  585ETH     HC 5264   0.471   2.476   3.819  1.0037  0.2344  0.8126
  585ETH     HC 5265   0.312   2.454   3.895  0.7789 -1.0148 -2.8681
  586ETH     OH 5266   0.689   5.417   4.134  0.4267  0.4094  0.1445
  586ETH     CH 5267   0.798   5.346   4.189  1.0070  1.2353  0.0712
  586ETH     CH 5268   0.907   5.328   4.083  0.8210  0.5583 -0.0054
  586ETH     HO 5269   0.636   5.441   4.209 -0.6457 -0.2802 -0.3786
  586ETH     HC 5270   0.837   5.392   4.279  0.5579  1.6843  0.0428
  586ETH     HC 5271   0.768   5.246   4.219 -1.8926  2.3551  1.0938
  586ETH     HC 5272   0.991   5.292   4.141  0.9296  0.8497  0.0164
  586ETH     HC 5273   0.868   5.259   4.008  1.3134  1.0426 -0.7180
  586ETH     HC 5274   0.950   5.417   4.037 -0.5792  0.8376 -0.8183
  587ETH     OH 5275   2.698   0.722   0.666  0.1764  0.2946  0.4793
  587ETH     CH 5276   2.563   0.742   0.630  0.3916  0.0179 -0.4985
  587ETH     CH 5277   2.470   0.691   0.740  0.1958  0.4896 -0.4452
  587ETH     HO 5278   2.704   0.735   0.759 -4.0543 -0.4195  0.9539
  587ETH     HC 5279   2.534   0.845   0.611  0.7659  0.0414 -0.9380
  587ETH     HC 5280   2.537   0.688   0.538  0.8515 -0.8818 -0.1113
  587ETH     HC 5281   2.490   0.587   0.768  2.3492  0.4116 -2.2061
  587ETH     HC 5282   2.477   0.751   0.831  0.4626 -0.3642  0.1090
  587ETH     HC 5283   2.366   0.694   0.707  0.1921  1.6205 -0.3568
  588ETH     OH 5284   5.428   6.001   2.820  0.3879 -0.2063 -0.3861
  588ETH     CH 5285   5.531   5.905   2.816  0.3033 -0.3342  0.3474
  588ETH     CH 5286   5.480   5.793   2.906  0.0429 -0.1996  0.3685
  588ETH     HO 5287   5.433   6.067   2.753 -1.7032  2.8652  2.3056
  588ETH     HC 5288   5.544   5.870   2.713  1.3796 -0.6982  0.5990
  588ETH     HC 5289   5.629   5.936   2.852  0.6250 -0.9164 -0.0022
  588ETH     HC 5290   5.476   5.816   3.013  0.6042  0.0428  0.3390
  588ETH     HC 5291   5.375   5.770   2.884 -0.1484  1.7370 -0.8550
  588ETH     HC 5292   5.545   5.708   2.888 -0.3052 -0.6694  1.2853
  589ETH     OH 5293   1.817   4.972   2.978 -0.7776  0.3760 -0.2694
  589ETH     CH 5294   1.722   4.880   2.930  0.0718 -0.2662 -0.7298
  589ETH     CH 5295   1.612   4.863   3.034  0.1287  0.3272 -0.5673
  589ETH     HO 5296   1.883   4.981   2.911 -1.1743 -0.4145 -0.7600
  589ETH     HC 5297   1.771   4.786   2.908 -0.2843 -0.8663  1.0127
  589ETH     HC 5298   1.688   4.923   2.835 -0.3456  3.3437  0.9613
  589ETH     HC 5299   1.523   4.805   3.007  0.4805  0.5510 -2.2659
  589ETH     HC 5300   1.646   4.822   3.129 -1.3172  0.8264  0.1837
  589ETH     HC 5301   1.575   4.963   3.054 -0.4244  0.5204 -2.5165
  590ETH     OH 5302   5.149   2.144   5.042 -0.0447  0.1824  0.2792
  590ETH     CH 5303   5.252   2.058   5.086  0.2397 -0.0518 -0.8304
  590ETH     CH 5304   5.380   2.112   5.023  0.3831 -0.1262 -0.6046
  590ETH     HO 5305   5.070   2.093   5.051  1.0243 -1.5070  0.3018
  590ETH     HC 5306   5.260   2.066   5.195 -1.2623 -0.5473 -0.6781
  590ETH     HC 5307   5.229   1.956   5.054  0.4904  0.0999 -1.5021
  590ETH     HC 5308   5.460   2.037   5.020  2.7142  2.1518  1.8731
  590ETH     HC 5309   5.364   2.131   4.916 -0.8406 -1.2414 -0.6293
  590ETH     HC 5310   5.427   2.197   5.071  0.6185 -0.5012 -0.1716
  591ETH     OH 5311   5.744   0.886   4.701 -0.3840  1.1619 -0.2283
  591ETH     CH 5312   5.854   0.962   4.744  0.2007 -0.0775  0.5086
  591ETH     CH 5313   5.870   0.958   4.896  0.3205  0.4709  0.5130
  591ETH     HO 5314   5.771   0.795   4.694  0.6881  1.5826 -1.7646
  591ETH     HC 5315   5.946   0.922   4.700 -0.0871 -0.6804  0.4504
  591ETH     HC 5316   5.836   1.064   4.709 -0.3209 -0.6068 -0.7868
  591ETH     HC 5317   5.880   0.856   4.934  2.7991 -0.0259 -1.3345
  591ETH     HC 5318   5.956   1.017   4.926  0.9308 -0.0935 -0.1048
  591ETH     HC 5319   5.781   1.006   4.936 -0.3797 -0.6125  0.3001
  592ETH     OH 5320   3.157   4.881   5.138 -0.1972  0.0104 -0.3660
  592ETH     CH 5321   3.251   4.817   5.055 -0.3096 -0.0009 -0.4859
  592ETH     CH 5322   3.272   4.677   5.115 -0.1739  0.1393 -0.2022
  592ETH     HO 5323   3.136   4.966   5.101 -0.9038  1.7518  3.7649
  592ETH     HC 5324   3.206   4.793   4.959 -0.9411 -0.5891 -0.0460
  592ETH     HC 5325   3.350   4.862   5.044 -0.8964  0.5347 -4.0830
  592ETH     HC 5326   3.344   4.610   5.068 -2.1453 -0.7635 -2.0213
  592ETH     HC 5327   3.299   4.691   5.220 -1.6066 -0.4580  0.2500
  592ETH     HC 5328   3.175   4.630   5.127 -0.8808  1.7846  0.6942
  593ETH     OH 5329   0.737   5.305   6.059  0.1168  0.4763 -0.2931
  593ETH     CH 5330   0.627   5.217   6.057  0.4834  0.0190 -0.9488
  593ETH     CH 5331   0.629   5.130   5.932  0.6150 -0.8874 -0.3235
  593ETH     HO 5332   0.749   5.331   6.149 -1.6772 -3.0679  1.0665
  593ETH     HC 5333   0.629   5.157   6.148  0.2177 -1.7014 -2.0436
  593ETH     HC 5334   0.539   5.281   6.065 -0.3842 -1.2570  0.0528
  593ETH     HC 5335   0.728   5.086   5.919  0.6089 -1.1238  0.4186
  593ETH     HC 5336   0.554   5.051   5.934 -1.8945  1.4449  0.1922
  593ETH     HC 5337   0.624   5.196   5.845  0.5462  0.3854  0.6352
  594ETH     OH 5338   1.156   3.164   0.598  0.2844  0.3276  0.1835
  594ETH     CH 5339   1.056   3.261   0.619 -0.3504 -0.3010  0.0860
  594ETH     CH 5340   1.101   3.387   0.545 -0.5040 -0.2045  0.1564
  594ETH     HO 5341   1.190   3.170   0.510 -1.1070 -2.5373 -0.6080
  594ETH     HC 5342   0.963   3.221   0.578 -1.1545  1.5039  0.0953
  594ETH     HC 5343   1.054   3.272   0.727  1.1882 -0.1101  0.1154
  594ETH     HC 5344   1.041   3.469   0.583  0.2909 -0.7194  2.6201
  594ETH     HC 5345   1.203   3.413   0.572  0.0641 -1.8085 -0.3318
  594ETH     HC 5346   1.102   3.375   0.436 -1.4512  0.9279  0.0222
  595ETH     OH 5347   3.554   0.722   1.889  0.0712 -0.3761 -0.4207
  595ETH     CH 5348   3.420   0.747   1.852 -0.0214 -0.1160  0.0939
  595ETH     CH 5349   3.351   0.866   1.919  0.4149  0.3317 -0.2459
  595ETH     HO 5350   3.584   0.642   1.847 -1.0097 -1.2576  0.4492
  595ETH     HC 5351   3.426   0.780   1.748 -0.8958  0.5988  0.2592
  595ETH     HC 5352   3.351   0.664   1.867  0.5006 -0.3095  1.4868
  595ETH     HC 5353   3.422   0.946   1.940  0.5025  0.0167  0.7030
  595ETH     HC 5354   3.273   0.892   1.847 -0.0254 -1.7459 -0.5532
  595ETH     HC 5355   3.315   0.854   2.022  0.1690  1.6515 -0.1720
  596ETH     OH 5356   2.575   0.650   1.851 -0.4139 -0.2382  0.1019
  596ETH     CH 5357   2.664   0.575   1.772  0.3441  0.1544  0.5812
  596ETH     CH 5358   2.617   0.430   1.754  0.6171  0.1169  0.1712
  596ETH     HO 5359   2.592   0.742   1.843  1.0739 -0.7133 -3.1472
  596ETH     HC 5360   2.687   0.618   1.675  3.9188  0.5599  1.5134
  596ETH     HC 5361   2.765   0.570   1.814  0.4482 -1.4476  0.1905
  596ETH     HC 5362   2.673   0.377   1.677 -2.9733 -0.3889 -2.2064
  596ETH     HC 5363   2.640   0.380   1.848  0.0472  1.3948  1.0023
  596ETH     HC 5364   2.511   0.416   1.734  0.4219 -0.6814  1.7066
  597ETH     OH 5365   0.991   4.526   6.103  0.3449  0.0532  0.3977
  597ETH     CH 5366   1.093   4.439   6.146 -0.0603 -0.4838  0.2783
  597ETH     CH 5367   1.061   4.291   6.126 -0.2021 -0.4276  0.0913
  597ETH     HO 5368   1.015   4.615   6.122  0.9793 -0.2641  1.0934
  597ETH     HC 5369   1.186   4.472   6.099 -0.3834 -1.1650 -0.8537
  597ETH     HC 5370   1.104   4.437   6.254  1.3934  1.1334  0.1807
  597ETH     HC 5371   1.066   4.260   6.021 -0.9866  1.3014 -0.4691
  597ETH     HC 5372   1.139   4.232   6.173  0.2611  0.5698  0.5786
  597ETH     HC 5373   0.967   4.263   6.175  0.6586 -0.6414  1.6498
  598ETH     OH 5374   3.910   5.593   2.853 -0.0620  0.1155 -0.0624
  598ETH     CH 5375   3.910   5.457   2.893  0.4771  0.0650 -0.2241
  598ETH     CH 5376   3.835   5.451   3.027  0.3581  0.2075 -0.2836
  598ETH     HO 5377   3.921   5.598   2.759 -3.8672  0.2096 -0.5872
  598ETH     HC 5378   3.860   5.394   2.820 -0.9307  2.3798 -1.3426
  598ETH     HC 5379   4.013   5.424   2.903  0.9685  1.9094  1.0997
  598ETH     HC 5380   3.861   5.530   3.098  0.5894 -0.4966  0.4211
  598ETH     HC 5381   3.731   5.457   2.997 -0.0473 -3.7821  0.0814
  598ETH     HC 5382   3.842   5.355   3.078  0.6833  0.1880 -0.3650
  599ETH     OH 5383   0.784   1.013   2.789 -0.2580 -0.3789 -0.2326
  599ETH     CH 5384   0.688   0.972   2.694 -0.1757  0.0962 -0.5248
  599ETH     CH 5385   0.612   0.850   2.748  0.5073 -0.3050 -0.4694
  599ETH     HO 5386   0.767   0.977   2.875  2.2478  0.8081  0.8089
  599ETH     HC 5387   0.620   1.054   2.670 -0.5998 -0.0097  0.2677
  599ETH     HC 5388   0.736   0.942   2.601 -0.3394  0.9545 -0.8895
  599ETH     HC 5389   0.683   0.768   2.760  1.4236  0.5853  0.2746
  599ETH     HC 5390   0.565   0.858   2.846  0.5272 -1.7212 -0.3287
  599ETH     HC 5391   0.539   0.812   2.677  1.1078  1.9023 -2.3215
  600ETH     OH 5392   2.108   0.322   2.937 -0.5574 -0.4448 -0.1081
  600ETH     CH 5393   2.034   0.285   3.051 -0.0063 -0.0602  0.3783
  600ETH     CH 5394   1.925   0.390   3.075 -0.0112  0.1226 -0.4289
  600ETH     HO 5395   2.202   0.320   2.948 -0.7794  0.7847  2.3462
  600ETH     HC 5396   1.981   0.193   3.028  0.6009  0.6375 -4.1058
  600ETH     HC 5397   2.102   0.266   3.135  0.3450  0.0060  0.1073
  600ETH     HC 5398   1.874   0.424   2.986 -0.0918 -1.1426 -0.8753
  600ETH     HC 5399   1.849   0.360   3.147  0.9637 -3.3334 -0.7386
  600ETH     HC 5400   1.973   0.487   3.093 -0.9719  0.6456 -0.6544
  601ETH     OH 5401   3.747   5.333   6.135  0.3203 -0.1058  0.5320
  601ETH     CH 5402   3.699   5.201   6.142 -0.5849  0.1979  0.1374
  601ETH     CH 5403   3.547   5.186   6.133 -0.5549 -0.4046  0.5705
  601ETH     HO 5404   3.700   5.393   6.191 -0.6009  1.0623 -1.4553
  601ETH     HC 5405   3.737   5.168   6.045  1.6008 -0.0645  1.0382
  601ETH     HC 5406   3.753   5.142   6.217  0.0977 -1.1668 -1.3941
  601ETH     HC 5407   3.529   5.079   6.130 -0.5469 -0.3733 -1.3897
  601ETH     HC 5408   3.494   5.240   6.212  2.2993  2.1351  0.8588
  601ETH     HC 5409   3.515   5.218   6.034  0.5990  1.7035  0.8464
  602ETH     OH 5410   3.434   6.077   3.060 -0.1822 -0.1418  0.7664
  602ETH     CH 5411   3.358   6.154   3.151 -0.4315 -0.0219  0.4572
  602ETH     CH 5412   3.212   6.107   3.161 -0.8238  1.1433  0.2956
  602ETH     HO 5413   3.429   5.990   3.097  0.8428 -0.6733 -0.3420
  602ETH     HC 5414   3.404   6.140   3.249 -0.4202  0.0449  0.4613
  602ETH     HC 5415   3.370   6.255   3.114  0.2358 -0.2958 -0.0657
  602ETH     HC 5416   3.172   6.067   3.068  1.0150 -1.3068  0.4951
  602ETH     HC 5417   3.191   6.027   3.232 -0.3195  0.5495 -0.2241
  602ETH     HC 5418   3.139   6.184   3.187  0.2234  2.7316 -1.2954
  603ETH     OH 5419   5.610   0.640   2.666 -0.5348 -0.4755 -0.5064
  603ETH     CH 5420   5.665   0.524   2.723  0.0333  0.2878  0.5197
  603ETH     CH 5421   5.767   0.558   2.832  0.4513  0.5941  0.0334
  603ETH     HO 5422   5.558   0.627   2.588  0.5902  2.3353 -1.8082
  603ETH     HC 5423   5.587   0.464   2.772 -0.4936 -0.0762 -0.7463
  603ETH     HC 5424   5.710   0.462   2.646  0.9502 -2.0978  2.8750
  603ETH     HC 5425   5.741   0.640   2.899 -1.5163  0.3913 -0.4370
  603ETH     HC 5426   5.789   0.476   2.901  2.9243 -0.2209 -1.6798
  603ETH     HC 5427   5.861   0.598   2.796  1.4855 -0.8427  1.0866
  604ETH     OH 5428   1.529   4.275   4.962  0.2381  0.3129 -0.1373
  604ETH     CH 5429   1.568   4.304   4.829 -0.3700 -0.0968 -0.4012
  604ETH     CH 5430   1.717   4.278   4.808 -0.2883 -0.2343  0.3319
  604ETH     HO 5431   1.481   4.350   4.994  0.2361 -0.4944  1.8059
  604ETH     HC 5432   1.510   4.255   4.750 -0.4764 -0.5026 -0.0774
  604ETH     HC 5433   1.564   4.412   4.821  1.2909  0.0587  0.7145
  604ETH     HC 5434   1.733   4.172   4.823 -0.3079 -0.1681  0.8245
  604ETH     HC 5435   1.744   4.306   4.706  0.1292  0.5729  0.6603
  604ETH     HC 5436   1.779   4.333   4.879 -0.0187 -0.2497  0.1072
  605ETH     OH 5437   1.542   1.909   3.413  0.1690  0.1846 -0.1322
  605ETH     CH 5438   1.638   1.915   3.310  0.1574  0.1778 -0.1428
  605ETH     CH 5439   1.609   1.793   3.222  1.0719 -0.1064 -0.0567
  605ETH     HO 5440   1.458   1.938   3.381 -0.5970  0.2814  1.8905
  605ETH     HC 5441   1.611   2.002   3.250 -1.4630 -0.0415  0.2193
  605ETH     HC 5442   1.738   1.907   3.351 -0.0717 -1.2817  0.1327
  605ETH     HC 5443   1.611   1.709   3.291 -1.1004  0.4855  0.7902
  605ETH     HC 5444   1.506   1.801   3.185  1.0946  1.1567  0.0991
  605ETH     HC 5445   1.675   1.779   3.137 -0.8334  1.1388 -1.8242
  606ETH     OH 5446   5.988   5.745   2.725  0.4551 -0.0062  0.3438
  606ETH     CH 5447   6.111   5.679   2.740  0.2622 -0.5673 -0.5014
  606ETH     CH 5448   6.226   5.777   2.719  0.0891 -0.0872  0.7551
  606ETH     HO 5449   5.918   5.682   2.722 -1.3559  1.9669 -0.1293
  606ETH     HC 5450   6.114   5.615   2.828 -2.7415 -0.0313  0.0490
  606ETH     HC 5451   6.124   5.606   2.660 -2.6511  1.1842 -2.6506
  606ETH     HC 5452   6.198   5.842   2.636  0.3193  1.4843  1.8685
  606ETH     HC 5453   6.228   5.849   2.801 -1.3310 -0.9611  1.5589
  606ETH     HC 5454   6.322   5.725   2.726  0.0083 -0.0661  2.2360
  607ETH     OH 5455   3.214   0.750   3.700 -0.1812  0.5258 -0.0286
  607ETH     CH 5456   3.192   0.849   3.602 -0.0994  0.6249  0.0538
  607ETH     CH 5457   3.128   0.784   3.479  1.0362 -0.4319  0.0161
  607ETH     HO 5458   3.296   0.712   3.674  1.0891  1.0746  2.9535
  607ETH     HC 5459   3.133   0.929   3.647 -1.7648 -0.3170 -0.4072
  607ETH     HC 5460   3.290   0.883   3.569  0.4259 -1.1732 -0.3127
  607ETH     HC 5461   3.203   0.722   3.429  0.6857 -1.9618  1.3382
  607ETH     HC 5462   3.037   0.730   3.505 -0.3800  1.2176 -1.4374
  607ETH     HC 5463   3.091   0.860   3.411  0.8419  1.3575  2.0584
  608ETH     OH 5464   1.281   2.084   5.340 -0.9308 -0.2227  0.1917
  608ETH     CH 5465   1.205   2.001   5.426  0.0319 -0.9015  0.4034
  608ETH     CH 5466   1.306   1.912   5.498  0.0312 -0.5331  0.8611
  608ETH     HO 5467   1.318   2.031   5.271 -1.8386 -0.1336 -0.3611
  608ETH     HC 5468   1.153   2.062   5.500  1.0034  0.3264  0.0915
  608ETH     HC 5469   1.131   1.952   5.363 -1.4773  1.3336  0.3455
  608ETH     HC 5470   1.379   1.969   5.556  1.2292 -1.6490  0.4850
  608ETH     HC 5471   1.273   1.835   5.568  0.6944  1.2923  3.2559
  608ETH     HC 5472   1.359   1.843   5.433 -0.6091 -1.0937  0.9235
  609ETH     OH 5473   0.445   0.316   2.625  0.4907 -0.4722  0.0789
  609ETH     CH 5474   0.570   0.331   2.562  0.3479  0.2415 -0.0324
  609ETH     CH 5475   0.535   0.367   2.417 -0.3616  0.1367  0.1111
  609ETH     HO 5476   0.457   0.316   2.719  0.2226 -1.9142  0.1291
  609ETH     HC 5477   0.610   0.424   2.601 -1.9812  1.2945 -0.0639
  609ETH     HC 5478   0.639   0.249   2.579 -0.3719 -1.0785 -2.9867
  609ETH     HC 5479   0.530   0.279   2.353  1.3121 -0.3320  0.5961
  609ETH     HC 5480   0.445   0.427   2.405 -1.3099 -1.5277 -1.2492
  609ETH     HC 5481   0.619   0.427   2.381  1.5934 -2.2431  0.6197
  610ETH     OH 5482   2.999   1.488   2.919  0.6247 -0.0277 -0.5335
  610ETH     CH 5483   2.907   1.552   2.834  0.2265  0.4724  0.2757
  610ETH     CH 5484   2.972   1.681   2.784  0.2414  0.4617  0.2666
  610ETH     HO 5485   2.950   1.441   2.984 -1.1861  0.3965 -1.5737
  610ETH     HC 5486   2.879   1.478   2.760  0.2131 -0.2879  1.0307
  610ETH     HC 5487   2.818   1.584   2.889 -0.1581 -1.5981  0.8777
  610ETH     HC 5488   3.006   1.748   2.864 -0.3747  2.0263 -0.7561
  610ETH     HC 5489   3.053   1.655   2.716  1.8261  3.0781  1.0720
  610ETH     HC 5490   2.895   1.735   2.729 -0.9583  0.6934  2.1162
  611ETH     OH 5491   4.124   4.963   3.896  0.1868  0.0702 -0.6358
  611ETH     CH 5492   4.177   5.074   3.965  0.3047 -0.1464 -0.3754
  611ETH     CH 5493   4.146   5.070   4.115 -0.3921  0.5236 -0.4971
  611ETH     HO 5494   4.188   4.896   3.916  0.3958  0.2941 -0.5575
  611ETH     HC 5495   4.283   5.088   3.945  0.6843 -0.3496  1.4327
  611ETH     HC 5496   4.131   5.164   3.926 -0.7860 -1.0605 -1.2401
  611ETH     HC 5497   4.187   5.157   4.166 -1.6836  0.3915  0.7811
  611ETH     HC 5498   4.040   5.089   4.124 -0.8775 -1.0551 -2.4352
  611ETH     HC 5499   4.185   4.981   4.165 -0.9523  1.0586  0.9139
  612ETH     OH 5500   2.253   2.276   5.427  0.2377  0.2971  0.4272
  612ETH     CH 5501   2.200   2.268   5.297  0.1759  0.4440  0.4428
  612ETH     CH 5502   2.317   2.252   5.199 -0.2630 -0.6804  0.0999
  612ETH     HO 5503   2.187   2.305   5.489 -0.4127 -1.6525  0.6556
  612ETH     HC 5504   2.130   2.185   5.294  0.7874 -0.0661  0.1478
  612ETH     HC 5505   2.152   2.364   5.281 -0.4990  0.3919  2.0690
  612ETH     HC 5506   2.353   2.149   5.194 -1.1580 -0.9471 -0.9730
  612ETH     HC 5507   2.292   2.278   5.096 -0.4410  1.9223  0.7687
  612ETH     HC 5508   2.402   2.316   5.221 -2.3817  2.7857 -1.4420
  613ETH     OH 5509   5.064   1.949   4.088 -0.3945 -0.2653 -0.4992
  613ETH     CH 5510   5.068   1.826   4.158  0.5527  0.1765  0.2337
  613ETH     CH 5511   4.974   1.846   4.277 -0.2575 -0.6481 -0.2620
  613ETH     HO 5512   5.031   1.925   4.004 -2.7283 -0.3973  0.4299
  613ETH     HC 5513   5.169   1.809   4.197  0.7455 -0.4692 -0.5387
  613ETH     HC 5514   5.030   1.745   4.096 -0.7196 -0.8628  2.3265
  613ETH     HC 5515   4.872   1.880   4.266 -0.1893  0.1003  1.2462
  613ETH     HC 5516   4.964   1.755   4.336  2.6180  0.3149  1.8252
  613ETH     HC 5517   5.021   1.917   4.346 -0.7053 -0.1976 -0.4235
  614ETH     OH 5518   4.867   0.150   4.638  0.1605  0.4947 -0.3315
  614ETH     CH 5519   4.947   0.045   4.588  0.1175  0.2657  0.0793
  614ETH     CH 5520   4.902  -0.090   4.643  0.5004  0.1380  0.0847
  614ETH     HO 5521   4.884   0.231   4.592  0.2090  0.4237 -0.4386
  614ETH     HC 5522   4.950   0.040   4.480  1.1342 -1.8327  0.1835
  614ETH     HC 5523   5.048   0.068   4.622  0.3596 -3.4360  2.1427
  614ETH     HC 5524   4.963  -0.169   4.599  1.4571  0.6515  0.4786
  614ETH     HC 5525   4.904  -0.101   4.751 -1.4548  0.6103  0.1874
  614ETH     HC 5526   4.797  -0.114   4.625  0.9115 -1.4976 -0.1935
  615ETH     OH 5527   5.069   0.071   5.892  0.4587 -0.1667 -0.6137
  615ETH     CH 5528   5.133   0.194   5.919 -0.3046  0.0878  0.0388
  615ETH     CH 5529   5.104   0.266   6.051  0.1470 -0.0442  0.2107
  615ETH     HO 5530   5.108   0.006   5.949  1.5289  0.6616 -0.3804
  615ETH     HC 5531   5.238   0.166   5.921 -0.1306  0.7699  0.3886
  615ETH     HC 5532   5.130   0.267   5.839  2.1243  1.4430  1.1396
  615ETH     HC 5533   4.999   0.286   6.071 -0.7945 -1.9078 -2.5348
  615ETH     HC 5534   5.124   0.198   6.133  0.8430  0.2636  0.2983
  615ETH     HC 5535   5.165   0.355   6.066  1.3827 -1.0695  1.3176
  616ETH     OH 5536   4.028   2.081   2.653 -0.1983  0.1155 -0.6212
  616ETH     CH 5537   4.051   2.214   2.694  0.3887 -0.2232  0.1648
  616ETH     CH 5538   4.012   2.292   2.569  0.5712 -0.2306  0.1022
  616ETH     HO 5539   4.062   2.026   2.722 -1.5869 -1.0317 -0.8293
  616ETH     HC 5540   3.982   2.235   2.776 -0.6802 -3.0989  0.0757
  616ETH     HC 5541   4.155   2.240   2.712  0.8634 -0.2752 -2.4054
  616ETH     HC 5542   4.016   2.398   2.595 -0.6127 -0.0901 -0.2630
  616ETH     HC 5543   4.088   2.275   2.493 -0.4365 -0.0988 -0.9594
  616ETH     HC 5544   3.913   2.258   2.537  1.3220 -0.5531 -1.9130
  617ETH     OH 5545   4.014   3.688   5.581  0.1850  0.1482  0.5109
  617ETH     CH 5546   3.973   3.559   5.542 -0.6734  0.4684  0.3496
  617ETH     CH 5547   4.020   3.552   5.397  0.1913 -0.8297  0.6861
  617ETH     HO 5548   3.969   3.753   5.529 -0.6305 -2.6412 -2.4789
  617ETH     HC 5549   4.024   3.490   5.609 -1.2246 -1.1150 -0.8406
  617ETH     HC 5550   3.865   3.547   5.553 -0.8098 -1.4568 -2.5764
  617ETH     HC 5551   4.126   3.577   5.393 -0.3225  1.5423  1.2181
  617ETH     HC 5552   4.011   3.448   5.366 -0.3500 -1.3987  2.6524
  617ETH     HC 5553   3.951   3.612   5.338  1.5747 -1.2818 -1.4444
  618ETH     OH 5554   2.706   4.422   3.380  0.1800 -0.4187 -0.0231
  618ETH     CH 5555   2.732   4.480   3.254  0.0676 -0.1697  0.0666
  618ETH     CH 5556   2.861   4.429   3.189  0.1219  0.3145 -0.2043
  618ETH     HO 5557   2.629   4.459   3.421  0.0585 -0.7438  0.0398
  618ETH     HC 5558   2.652   4.447   3.187 -0.4975 -0.7197  1.0092
  618ETH     HC 5559   2.733   4.589   3.257 -2.4300 -0.0647 -1.5803
  618ETH     HC 5560   2.858   4.473   3.089 -2.1522  3.7746  1.2738
  618ETH     HC 5561   2.956   4.450   3.238 -0.2655 -1.3162  1.2875
  618ETH     HC 5562   2.855   4.320   3.186 -1.4352  0.2300  3.4794
  619ETH     OH 5563   0.270   1.308   5.663  0.6320 -0.3728  0.1097
  619ETH     CH 5564   0.191   1.248   5.562  0.4543 -0.4454  0.2897
  619ETH     CH 5565   0.056   1.210   5.622  0.4313 -0.5433  0.1778
  619ETH     HO 5566   0.223   1.369   5.718 -0.0967 -0.8613  0.0339
  619ETH     HC 5567   0.175   1.317   5.479  0.1357  0.0544  0.7619
  619ETH     HC 5568   0.261   1.171   5.528  1.1786  0.7404 -0.9548
  619ETH     HC 5569   0.070   1.157   5.716 -1.6331  0.6161  1.1660
  619ETH     HC 5570  -0.008   1.295   5.647  1.7566  0.7099 -0.5936
  619ETH     HC 5571  -0.004   1.139   5.566 -1.0805 -0.4490  1.6269
  620ETH     OH 5572   0.036   0.932   0.699 -0.0890  0.0613  0.1358
  620ETH     CH 5573   0.068   1.063   0.739  0.1604  0.0308  0.0340
  620ETH     CH 5574   0.213   1.067   0.787  0.1569 -0.0591  0.0506
  620ETH     HO 5575  -0.056   0.944   0.679 -0.0854 -0.0416  0.0579
  620ETH     HC 5576  -0.001   1.098   0.815  0.2781  4.4250 -1.6759
  620ETH     HC 5577   0.045   1.129   0.655  0.2091  0.8882  0.6816
  620ETH     HC 5578   0.288   1.056   0.709  1.1852  0.7611  0.9032
  620ETH     HC 5579   0.239   1.167   0.822  0.2353 -0.1228  0.1766
  620ETH     HC 5580   0.234   0.993   0.865 -1.0626 -0.8094 -0.3195
  621ETH     OH 5581   6.270   3.881   3.465 -0.8060  0.4152  0.5425
  621ETH     CH 5582   6.381   3.943   3.526 -0.0382 -0.0963 -0.3075
  621ETH     CH 5583   6.511   3.883   3.473 -0.0437 -0.2034 -0.2006
  621ETH     HO 5584   6.284   3.788   3.456 -1.8770  0.4622 -2.3785
  621ETH     HC 5585   6.377   4.052   3.525 -0.0771 -0.0912  0.2628
  621ETH     HC 5586   6.376   3.908   3.629 -0.5219 -2.4256 -1.1117
  621ETH     HC 5587   6.521   3.776   3.493 -1.3783  0.0336  1.9176
  621ETH     HC 5588   6.520   3.902   3.366  0.4584 -0.7846 -0.2622
  621ETH     HC 5589   6.598   3.924   3.525 -0.2370 -0.0305 -0.0118
  622ETH     OH 5590   0.171   3.363   4.445  0.1771  0.0900 -0.9039
  622ETH     CH 5591   0.211   3.458   4.348  0.2469  1.1046  0.1135
  622ETH     CH 5592   0.296   3.399   4.236 -0.3000  0.1639  0.1835
  622ETH     HO 5593   0.083   3.341   4.420  0.3012 -0.1841 -1.1079
  622ETH     HC 5594   0.123   3.508   4.308  1.1598  1.6108 -1.2741
  622ETH     HC 5595   0.264   3.537   4.401  3.3124  0.1121 -1.3370
  622ETH     HC 5596   0.244   3.319   4.183  0.8522  1.1984 -2.6515
  622ETH     HC 5597   0.314   3.466   4.151 -0.6502 -0.7825 -0.6472
  622ETH     HC 5598   0.393   3.361   4.269 -0.4614  0.6821  1.2871
  623ETH     OH 5599   0.321   1.727   4.144  0.6385 -0.3009 -0.2308
  623ETH     CH 5600   0.425   1.767   4.229  0.3557 -0.3069  0.1195
  623ETH     CH 5601   0.562   1.738   4.167  0.2579  0.6155 -0.5297
  623ETH     HO 5602   0.236   1.751   4.179 -0.3775 -1.5220 -1.7494
  623ETH     HC 5603   0.407   1.867   4.269 -2.3964 -1.2426  1.3342
  623ETH     HC 5604   0.431   1.707   4.320 -0.1445 -1.0287 -0.3179
  623ETH     HC 5605   0.563   1.804   4.080 -1.7273  1.3054 -0.0667
  623ETH     HC 5606   0.645   1.764   4.232  0.5648  1.2893 -1.1714
  623ETH     HC 5607   0.571   1.632   4.145 -0.5301  0.4829 -0.2481
  624ETH     OH 5608   3.421   1.662   4.532  0.1119 -0.3196 -0.4317
  624ETH     CH 5609   3.545   1.639   4.596 -0.3870  0.2948  0.7662
  624ETH     CH 5610   3.540   1.500   4.660 -0.3589 -0.2418 -0.3785
  624ETH     HO 5611   3.432   1.744   4.486  1.6389 -1.7549 -2.7528
  624ETH     HC 5612   3.621   1.649   4.519 -0.6649  0.2854  0.4908
  624ETH     HC 5613   3.558   1.719   4.668 -1.7975  1.7282 -0.5244
  624ETH     HC 5614   3.533   1.422   4.585 -0.5115  0.9857 -1.6530
  624ETH     HC 5615   3.630   1.489   4.720  0.0087  0.3900 -0.8105
  624ETH     HC 5616   3.459   1.485   4.732  0.7614  0.9387  1.1592
  625ETH     OH 5617   4.594   2.775   4.679  0.4349 -0.2566 -0.1890
  625ETH     CH 5618   4.656   2.673   4.753 -0.1196  0.2302  0.9597
  625ETH     CH 5619   4.794   2.726   4.789  0.3277 -0.2786 -0.0085
  625ETH     HO 5620   4.506   2.746   4.659  0.1809  1.3245 -1.4943
  625ETH     HC 5621   4.612   2.643   4.849  0.9623 -1.3363  0.9861
  625ETH     HC 5622   4.654   2.585   4.688  2.5754  0.0714  1.0507
  625ETH     HC 5623   4.790   2.826   4.831 -3.4905 -1.1103  1.7674
  625ETH     HC 5624   4.856   2.671   4.860  1.1010 -0.0300 -0.4879
  625ETH     HC 5625   4.856   2.735   4.699 -0.1179  0.6263 -0.2275
  626ETH     OH 5626   3.057   2.064   5.049  0.3499 -0.0956  0.0033
  626ETH     CH 5627   3.069   2.019   4.916  0.7947  0.2080 -0.0585
  626ETH     CH 5628   3.064   1.868   4.896 -0.4132  0.3626 -0.9781
  626ETH     HO 5629   3.080   2.155   5.044 -0.4189  0.1223  0.4438
  626ETH     HC 5630   2.996   2.070   4.854  0.6208 -0.1907 -0.1833
  626ETH     HC 5631   3.162   2.061   4.876  1.1282 -1.1475 -0.7379
  626ETH     HC 5632   3.103   1.844   4.796 -0.0018 -0.7490 -0.5629
  626ETH     HC 5633   3.130   1.821   4.969 -3.2883  0.1412  1.5265
  626ETH     HC 5634   2.962   1.830   4.907 -1.0296  1.6825 -2.0782
  627ETH     OH 5635   2.092   2.770   1.469 -0.2553  0.1650  0.0237
  627ETH     CH 5636   2.053   2.667   1.381 -0.5142  0.1421  0.1636
  627ETH     CH 5637   2.092   2.533   1.443  0.1807  0.3159  0.1139
  627ETH     HO 5638   2.139   2.832   1.415  1.3389 -0.7426  0.3311
  627ETH     HC 5639   1.945   2.663   1.368 -0.3220 -2.0439 -1.0863
  627ETH     HC 5640   2.109   2.671   1.287 -0.4505 -1.1043  0.1366
  627ETH     HC 5641   2.041   2.506   1.536  0.5950  0.6768  0.4454
  627ETH     HC 5642   2.066   2.449   1.378  0.5227  0.7129 -0.5378
  627ETH     HC 5643   2.198   2.515   1.459  0.1767 -0.6793 -0.9014
  628ETH     OH 5644   3.063   1.526   4.973 -0.4833 -0.1836 -0.7214
  628ETH     CH 5645   3.161   1.531   4.871  0.2441  0.0916 -0.0139
  628ETH     CH 5646   3.117   1.459   4.744 -0.0394  0.4110 -0.0980
  628ETH     HO 5647   3.105   1.568   5.046  0.7637 -1.0822 -0.8946
  628ETH     HC 5648   3.170   1.636   4.844 -0.3236  0.3032  0.5831
  628ETH     HC 5649   3.242   1.477   4.920 -0.9810 -0.7257  1.1586
  628ETH     HC 5650   3.139   1.352   4.744  1.6356  0.7481 -0.8515
  628ETH     HC 5651   3.016   1.478   4.706  0.4647 -0.0438 -1.7164
  628ETH     HC 5652   3.179   1.495   4.662 -0.9765 -0.9400 -1.4537
  629ETH     OH 5653   5.838   4.200   0.164 -0.0083  0.6744  0.1498
  629ETH     CH 5654   5.702   4.193   0.130  0.0318  0.2801  0.0769
  629ETH     CH 5655   5.639   4.299   0.219 -0.0228  0.3043  0.0103
  629ETH     HO 5656   5.859   4.163   0.248  0.0100  1.5376  0.5294
  629ETH     HC 5657   5.696   4.213   0.023  1.7854  0.5261  0.0167
  629ETH     HC 5658   5.655   4.096   0.149 -0.8952  0.7625  0.2961
  629ETH     HC 5659   5.703   4.387   0.227  1.3008 -0.7029  0.5674
  629ETH     HC 5660   5.541   4.333   0.184 -0.2918 -0.4327  0.0450
  629ETH     HC 5661   5.627   4.255   0.318  0.9885  0.5654  0.2546
  630ETH     OH 5662   5.322   3.850   3.322 -0.4142  0.5902 -0.3423
  630ETH     CH 5663   5.205   3.810   3.390 -0.2534  0.3451 -0.2066
  630ETH     CH 5664   5.150   3.927   3.472  0.2543  0.2166  0.3174
  630ETH     HO 5665   5.356   3.775   3.277 -2.2784 -0.3984 -0.1678
  630ETH     HC 5666   5.125   3.786   3.320  0.0876 -2.3567  0.2948
  630ETH     HC 5667   5.230   3.718   3.443  1.2688  0.6767 -0.3437
  630ETH     HC 5668   5.204   3.965   3.559  0.9864 -1.8393  0.7968
  630ETH     HC 5669   5.131   4.006   3.401 -2.3712  0.9640  1.7819
  630ETH     HC 5670   5.054   3.898   3.515 -1.5869  3.0450 -1.7180
  631ETH     OH 5671   3.047   2.172   2.865  0.3985  0.0547 -0.2355
  631ETH     CH 5672   2.946   2.227   2.946  0.5324 -0.0569  0.0075
  631ETH     CH 5673   2.951   2.163   3.085 -0.1339  0.4638  0.2758
  631ETH     HO 5674   3.053   2.213   2.780 -0.7812  0.6298 -0.0559
  631ETH     HC 5675   2.954   2.334   2.962  1.3362 -0.1502  0.2225
  631ETH     HC 5676   2.851   2.210   2.894  1.7183 -0.1129 -2.1906
  631ETH     HC 5677   2.854   2.160   3.136 -1.0703 -1.3386 -1.5389
  631ETH     HC 5678   2.971   2.056   3.096 -0.1943  0.3849 -0.3348
  631ETH     HC 5679   3.018   2.219   3.150 -1.5873  1.1932  1.1856
  632ETH     OH 5680   3.328   2.605   3.601  0.1148  0.1089  0.5613
  632ETH     CH 5681   3.296   2.704   3.506  0.7107  0.0861  0.3343
  632ETH     CH 5682   3.164   2.777   3.530  0.3731 -0.4991  0.2640
  632ETH     HO 5683   3.405   2.562   3.566 -0.2291  0.7186 -1.0050
  632ETH     HC 5684   3.377   2.777   3.509  1.1982 -0.4549  0.3242
  632ETH     HC 5685   3.303   2.666   3.404  0.9699  3.0756 -0.8104
  632ETH     HC 5686   3.157   2.789   3.638 -0.1428  1.1399  0.0643
  632ETH     HC 5687   3.160   2.872   3.477 -0.8705 -2.1584 -2.7896
  632ETH     HC 5688   3.078   2.723   3.491 -0.1722  0.7829 -0.3566
  633ETH     OH 5689   1.992   3.141   3.885  0.1261 -0.3098  0.5189
  633ETH     CH 5690   2.088   3.230   3.937  0.5253 -0.2119 -0.3849
  633ETH     CH 5691   2.027   3.369   3.952 -0.5820 -0.7845  0.4980
  633ETH     HO 5692   2.029   3.055   3.869  0.3679 -0.3043  1.0492
  633ETH     HC 5693   2.124   3.189   4.031  0.9432 -0.4931 -0.6621
  633ETH     HC 5694   2.177   3.242   3.874  1.5785  0.0452  1.1168
  633ETH     HC 5695   1.940   3.367   4.017 -1.5846 -0.8373 -0.8095
  633ETH     HC 5696   2.099   3.444   3.986 -3.0275  0.7991  2.3057
  633ETH     HC 5697   1.992   3.397   3.852 -0.4755 -2.2978  0.0224
  634ETH     OH 5698   0.454   4.078   4.586 -0.5471 -0.3168  0.6012
  634ETH     CH 5699   0.349   4.023   4.510 -0.3882  0.4568 -0.1980
  634ETH     CH 5700   0.289   3.905   4.587 -0.3651  0.7424  0.2617
  634ETH     HO 5701   0.453   4.168   4.559 -0.1042 -1.2231 -2.7426
  634ETH     HC 5702   0.266   4.091   4.491  0.0139  1.3172  1.0408
  634ETH     HC 5703   0.401   3.988   4.421 -2.4604 -0.3263 -1.1330
  634ETH     HC 5704   0.244   3.937   4.681 -1.3389 -0.4302  0.2034
  634ETH     HC 5705   0.221   3.845   4.526  0.5768  1.4929 -1.5626
  634ETH     HC 5706   0.369   3.839   4.622 -0.0287  0.5932 -0.7868
  635ETH     OH 5707   1.283   2.408   1.855 -0.0733  0.3332 -0.2322
  635ETH     CH 5708   1.360   2.360   1.962 -0.2855 -0.0232 -0.2384
  635ETH     CH 5709   1.460   2.256   1.912 -0.0636 -0.2819  0.7343
  635ETH     HO 5710   1.308   2.353   1.783 -2.3718 -2.3387  0.9278
  635ETH     HC 5711   1.407   2.446   2.011 -2.3744  0.8058  0.3850
  635ETH     HC 5712   1.297   2.314   2.039  2.5670  0.9826  2.8402
  635ETH     HC 5713   1.527   2.298   1.837 -0.5925  0.6342  0.7636
  635ETH     HC 5714   1.516   2.228   2.001 -1.7293 -3.9176  0.7171
  635ETH     HC 5715   1.401   2.179   1.863  0.6737  0.5504 -1.5078
  636ETH     OH 5716   4.954   5.560   2.242 -0.0448 -0.0680 -0.0193
  636ETH     CH 5717   4.848   5.473   2.276 -0.0658 -0.0595 -0.0628
  636ETH     CH 5718   4.795   5.521   2.411  0.0856 -0.7072  0.2258
  636ETH     HO 5719   5.019   5.566   2.311  1.3329  3.8110 -1.5279
  636ETH     HC 5720   4.777   5.484   2.194  0.6514  0.9160 -0.5564
  636ETH     HC 5721   4.870   5.367   2.269  0.1752 -0.0632  0.6878
  636ETH     HC 5722   4.873   5.518   2.487 -0.0169 -4.5959  0.3115
  636ETH     HC 5723   4.766   5.625   2.405 -1.7244 -1.2516 -0.9521
  636ETH     HC 5724   4.712   5.463   2.453  0.4500 -1.5370 -0.1725
  637ETH     OH 5725   4.657   1.341   4.658  0.4544 -0.1128 -0.2218
  637ETH     CH 5726   4.586   1.219   4.660 -0.1331  0.2279  0.0742
  637ETH     CH 5727   4.684   1.102   4.659  0.3332  0.6159 -0.4306
  637ETH     HO 5728   4.588   1.404   4.643  0.7878 -0.0014 -1.3194
  637ETH     HC 5729   4.513   1.209   4.740 -0.6943 -1.7660 -0.6436
  637ETH     HC 5730   4.524   1.227   4.570 -0.1807  1.8728  0.2262
  637ETH     HC 5731   4.643   1.002   4.678 -0.7653  1.0193 -0.6287
  637ETH     HC 5732   4.722   1.091   4.557 -0.9442  0.8511 -0.9474
  637ETH     HC 5733   4.779   1.123   4.707 -0.6958  1.6970  1.1804
  638ETH     OH 5734   3.684   0.691   6.239 -0.2486  0.2825 -0.1989
  638ETH     CH 5735   3.546   0.670   6.260 -0.1934 -0.1224 -0.2327
  638ETH     CH 5736   3.468   0.734   6.145  0.0069  0.5627  0.0093
  638ETH     HO 5737   3.698   0.783   6.253  1.6269 -0.0284  0.1919
  638ETH     HC 5738   3.523   0.564   6.262  0.4373 -0.2479  0.4996
  638ETH     HC 5739   3.526   0.713   6.358  0.8400  0.6510 -0.3510
  638ETH     HC 5740   3.364   0.702   6.137  0.6993 -1.1036 -2.9173
  638ETH     HC 5741   3.497   0.838   6.130  0.1047  0.6218  0.6016
  638ETH     HC 5742   3.508   0.696   6.051 -0.6700  0.7951 -0.3757
  639ETH     OH 5743   4.258   1.345   3.405 -0.1407 -0.1210  0.3663
  639ETH     CH 5744   4.218   1.459   3.332  0.0824 -0.2319  0.0701
  639ETH     CH 5745   4.328   1.496   3.232  0.3882  0.1253  0.5354
  639ETH     HO 5746   4.273   1.273   3.346 -0.5043 -1.3741  1.7933
  639ETH     HC 5747   4.122   1.434   3.288 -0.0879 -1.2125  0.9848
  639ETH     HC 5748   4.203   1.535   3.409  4.0871  0.9766 -0.2360
  639ETH     HC 5749   4.346   1.420   3.157  0.8876  0.8249 -0.0605
  639ETH     HC 5750   4.298   1.589   3.183 -3.6616 -1.0334  0.5790
  639ETH     HC 5751   4.427   1.513   3.274 -0.1643  1.0260  1.4916
  640ETH     OH 5752   2.195   4.373   3.425 -0.1173 -0.2173 -0.0111
  640ETH     CH 5753   2.212   4.343   3.289 -0.1032 -0.1317 -0.0285
  640ETH     CH 5754   2.310   4.225   3.282 -0.0430 -0.0767 -0.1114
  640ETH     HO 5755   2.104   4.394   3.440 -0.5361 -1.5900 -0.5168
  640ETH     HC 5756   2.122   4.302   3.243  0.1111 -0.4933 -0.1281
  640ETH     HC 5757   2.245   4.429   3.231 -2.3642  0.3937 -0.5757
  640ETH     HC 5758   2.332   4.181   3.185 -0.6238  0.5307 -0.5244
  640ETH     HC 5759   2.413   4.253   3.306  0.4698  0.2518 -2.5486
  640ETH     HC 5760   2.278   4.139   3.340  1.7854  1.4961  3.3978
  641ETH     OH 5761   3.232   4.161   0.407 -0.0737 -0.4955  0.4040
  641ETH     CH 5762   3.363   4.119   0.439  0.0453 -0.2682  0.2169
  641ETH     CH 5763   3.446   4.226   0.510  0.0852 -0.1393 -0.0238
  641ETH     HO 5764   3.240   4.252   0.383  0.2424 -0.5455  0.3217
  641ETH     HC 5765   3.356   4.029   0.499  0.9428 -0.2439  0.3643
  641ETH     HC 5766   3.405   4.086   0.343  0.4849 -0.0422  0.3310
  641ETH     HC 5767   3.407   4.273   0.600 -0.2265 -1.3192  0.4632
  641ETH     HC 5768   3.526   4.170   0.557  0.1570 -0.0622 -0.0546
  641ETH     HC 5769   3.497   4.303   0.451  0.6932  0.8461  1.7634
  642ETH     OH 5770   2.513   3.728   0.958  0.7713 -0.8389 -0.5764
  642ETH     CH 5771   2.544   3.810   0.848  0.2114 -0.0046 -0.1162
  642ETH     CH 5772   2.508   3.730   0.723 -0.0060  0.0454 -0.0850
  642ETH     HO 5773   2.550   3.762   1.039 -1.4606 -1.6314  0.8087
  642ETH     HC 5774   2.484   3.899   0.867  1.4048  0.7166  0.3916
  642ETH     HC 5775   2.651   3.835   0.849  0.3421 -0.4980  2.7597
  642ETH     HC 5776   2.555   3.762   0.630 -0.4460 -0.1127 -0.3642
  642ETH     HC 5777   2.536   3.627   0.742  3.0325  1.1326  1.7290
  642ETH     HC 5778   2.401   3.742   0.706  0.0995 -1.2796 -1.7612
  643ETH     OH 5779   0.920   1.717   2.270  0.6442 -0.0101  0.5570
  643ETH     CH 5780   1.025   1.753   2.358  0.8629  0.3186  0.1624
  643ETH     CH 5781   0.990   1.756   2.506  0.6303  0.1487  0.1108
  643ETH     HO 5782   0.900   1.626   2.286  0.6021  0.1027  1.1604
  643ETH     HC 5783   1.103   1.679   2.338 -1.9172 -2.0933 -2.2390
  643ETH     HC 5784   1.063   1.853   2.337  2.9639 -1.0161 -2.8250
  643ETH     HC 5785   1.077   1.760   2.572  1.5909 -0.5480 -1.0909
  643ETH     HC 5786   0.913   1.825   2.540 -0.8300 -2.1456  1.6435
  643ETH     HC 5787   0.956   1.654   2.529  0.9287 -0.3185 -1.4864
  644ETH     OH 5788   1.319   6.196   0.126 -0.2966 -0.3774  0.2141
  644ETH     CH 5789   1.430   6.249   0.195 -0.2082  0.1436 -0.3302
  644ETH     CH 5790   1.500   6.135   0.270 -0.2777  0.1940 -0.1924
  644ETH     HO 5791   1.259   6.269   0.115 -0.8443 -0.9158 -0.4216
  644ETH     HC 5792   1.499   6.285   0.119  0.9325 -0.7796  0.2489
  644ETH     HC 5793   1.401   6.329   0.262  0.8447  0.8096 -0.6605
  644ETH     HC 5794   1.443   6.102   0.357 -1.8339  1.3657 -0.7302
  644ETH     HC 5795   1.522   6.057   0.197 -1.3023  0.4558 -0.7900
  644ETH     HC 5796   1.595   6.177   0.304 -0.7202  1.1391 -0.1016
  645ETH     OH 5797   0.264   1.669   1.511 -0.3910  0.2523 -0.8424
  645ETH     CH 5798   0.347   1.766   1.571 -0.2834 -0.3831  0.0410
  645ETH     CH 5799   0.329   1.779   1.722 -0.1839 -0.4998  0.0629
  645ETH     HO 5800   0.181   1.685   1.553 -0.5692 -1.9098 -0.2961
  645ETH     HC 5801   0.455   1.753   1.562 -0.1597  0.3827  0.3901
  645ETH     HC 5802   0.316   1.857   1.520 -0.5914 -0.3295  0.3226
  645ETH     HC 5803   0.226   1.766   1.754 -0.2496  0.4438  0.2747
  645ETH     HC 5804   0.385   1.699   1.771  0.1723 -1.5142 -1.9704
  645ETH     HC 5805   0.372   1.875   1.751  0.5892 -1.6292  2.8718
  646ETH     OH 5806   0.785   2.691   5.258 -0.3733 -0.4149  0.3405
  646ETH     CH 5807   0.921   2.681   5.293 -0.2662 -0.0114  0.0347
  646ETH     CH 5808   0.974   2.814   5.346  0.3374 -0.0308 -0.5154
  646ETH     HO 5809   0.736   2.687   5.339  0.4700  2.4378  1.0453
  646ETH     HC 5810   0.932   2.605   5.370  2.0645 -0.9240 -1.1356
  646ETH     HC 5811   0.987   2.653   5.210  1.8971 -0.0513  1.7352
  646ETH     HC 5812   1.077   2.801   5.381  0.3546  0.7916 -0.2591
  646ETH     HC 5813   0.969   2.894   5.271  0.9474 -1.0152 -1.6350
  646ETH     HC 5814   0.914   2.841   5.432  0.8056 -0.9381  0.0993
  647ETH     OH 5815   3.298   3.267   3.666 -0.5876 -0.3152 -0.2528
  647ETH     CH 5816   3.188   3.211   3.734 -0.3110  0.3351  0.7345
  647ETH     CH 5817   3.228   3.076   3.795  0.2844 -0.1141 -0.6288
  647ETH     HO 5818   3.284   3.361   3.672 -0.8426 -0.1932 -2.2774
  647ETH     HC 5819   3.160   3.278   3.815  1.3993 -0.9054  2.4104
  647ETH     HC 5820   3.104   3.201   3.666 -1.5921  0.2429  2.3035
  647ETH     HC 5821   3.143   3.026   3.843 -1.6514  1.6249 -2.1435
  647ETH     HC 5822   3.265   3.011   3.716  0.1849 -0.3081 -0.5171
  647ETH     HC 5823   3.308   3.084   3.868 -1.6273  1.0800  1.4118
  648ETH     OH 5824   5.726   5.113   0.511 -0.3906 -0.2962 -0.2484
  648ETH     CH 5825   5.818   5.023   0.567  0.0347  0.5236  0.3985
  648ETH     CH 5826   5.742   4.891   0.583 -0.3688  0.6435 -0.5019
  648ETH     HO 5827   5.695   5.093   0.424  1.5261 -0.2146 -0.9745
  648ETH     HC 5828   5.901   5.017   0.496 -1.1578  1.8757 -1.1385
  648ETH     HC 5829   5.866   5.058   0.658 -1.4509  0.5905  1.1555
  648ETH     HC 5830   5.744   4.828   0.494 -0.4688 -0.7817  0.4911
  648ETH     HC 5831   5.786   4.823   0.655  0.3198 -0.4695 -1.9641
  648ETH     HC 5832   5.634   4.898   0.598 -0.4275 -1.2604  0.0514
  649ETH     OH 5833   3.004   1.081   0.051 -0.1595 -0.2122  0.7189
  649ETH     CH 5834   3.140   1.112   0.030 -0.2387 -0.5851 -0.4001
  649ETH     CH 5835   3.165   1.071  -0.115  0.1441 -0.1681 -0.4524
  649ETH     HO 5836   2.968   1.115   0.131 -1.2357  0.0455  0.1360
  649ETH     HC 5837   3.151   1.219   0.046 -1.2946 -0.2832 -1.5483
  649ETH     HC 5838   3.192   1.048   0.100 -0.4885 -0.0137  0.3151
  649ETH     HC 5839   3.261   1.095  -0.160  0.9054 -1.5666  0.3957
  649ETH     HC 5840   3.141   0.966  -0.132 -1.4738 -0.1974  1.8126
  649ETH     HC 5841   3.093   1.125  -0.178 -0.7961 -0.3478  0.4488
  650ETH     OH 5842   3.606   4.161   1.526 -0.6082  0.7930 -0.7380
  650ETH     CH 5843   3.581   4.086   1.410 -0.2375 -0.1390 -0.2171
  650ETH     CH 5844   3.492   4.172   1.321 -0.4654 -0.3537 -0.1978
  650ETH     HO 5845   3.692   4.143   1.560 -0.0762  3.7557 -0.3214
  650ETH     HC 5846   3.678   4.062   1.365  0.3058 -1.8530  1.7567
  650ETH     HC 5847   3.529   3.992   1.431 -2.0645  0.1046 -3.3700
  650ETH     HC 5848   3.516   4.275   1.348 -1.7193  0.4508 -2.0017
  650ETH     HC 5849   3.508   4.150   1.215 -2.5376  1.1388 -0.8509
  650ETH     HC 5850   3.390   4.150   1.352 -1.3902  2.9190 -0.7379
  651ETH     OH 5851   3.181   2.999   6.091  0.2045 -0.2289  0.3869
  651ETH     CH 5852   3.080   3.097   6.098  0.2689 -0.1415  0.0893
  651ETH     CH 5853   2.936   3.048   6.110  0.2389 -0.1801 -0.3899
  651ETH     HO 5854   3.262   3.044   6.109  1.3777 -0.1152 -4.3681
  651ETH     HC 5855   3.093   3.160   6.185  2.4655  0.0482 -0.3430
  651ETH     HC 5856   3.083   3.167   6.014 -0.1281 -0.0416  0.1573
  651ETH     HC 5857   2.892   3.007   6.019  2.2422 -1.9386 -0.6068
  651ETH     HC 5858   2.922   2.979   6.194 -0.4065 -1.3869 -1.4717
  651ETH     HC 5859   2.861   3.115   6.151  0.0290 -0.4722 -0.2909
  652ETH     OH 5860   0.444   0.789   2.448 -0.3618 -0.1843 -0.3316
  652ETH     CH 5861   0.313   0.820   2.405 -0.3938 -0.5332 -0.4912
  652ETH     CH 5862   0.334   0.940   2.312  0.1882 -0.0965  0.1975
  652ETH     HO 5863   0.502   0.788   2.374 -0.6652  1.5728 -0.6234
  652ETH     HC 5864   0.281   0.728   2.357 -1.2407  0.2214 -1.3812
  652ETH     HC 5865   0.227   0.826   2.473  0.0306 -1.5219  0.1438
  652ETH     HC 5866   0.416   0.924   2.242 -0.4247  0.5010 -0.6682
  652ETH     HC 5867   0.241   0.963   2.260 -0.2891  1.2216  1.5869
  652ETH     HC 5868   0.363   1.039   2.348  0.3830  0.2432 -0.8824
  653ETH     OH 5869   1.727   2.879   4.283 -0.1808  0.9266 -0.0033
  653ETH     CH 5870   1.655   2.946   4.183 -1.0579 -0.0113 -0.0095
  653ETH     CH 5871   1.685   2.907   4.038 -0.1713  0.3248  0.0780
  653ETH     HO 5872   1.720   2.787   4.264 -2.4109  0.8610  0.9743
  653ETH     HC 5873   1.547   2.949   4.200 -0.8933  0.7871  0.9377
  653ETH     HC 5874   1.689   3.049   4.191 -1.5287  0.3134 -1.8764
  653ETH     HC 5875   1.637   2.811   4.014 -2.1483  0.9554  1.3956
  653ETH     HC 5876   1.654   2.980   3.964 -0.3869 -0.7630 -0.9147
  653ETH     HC 5877   1.794   2.908   4.034 -0.1150 -0.9567  0.8125
  654ETH     OH 5878   1.379   5.125   5.723 -0.2465 -0.4195 -0.0777
  654ETH     CH 5879   1.432   5.150   5.595  0.0020 -0.4523  0.0191
  654ETH     CH 5880   1.520   5.029   5.560  0.4461  0.0105 -0.4816
  654ETH     HO 5881   1.337   5.201   5.759 -0.6427 -0.5006 -0.3670
  654ETH     HC 5882   1.352   5.173   5.525  0.3747 -0.3318 -0.3695
  654ETH     HC 5883   1.499   5.235   5.608  2.6944 -2.3030 -1.1986
  654ETH     HC 5884   1.476   4.930   5.553  0.1484  0.1054 -0.0350
  654ETH     HC 5885   1.555   5.049   5.459 -0.5443 -1.8839 -1.2280
  654ETH     HC 5886   1.604   5.016   5.629 -1.1763 -2.2016  1.1476
  655ETH     OH 5887   5.576   3.067   1.662  0.6572 -0.0455  0.0658
  655ETH     CH 5888   5.459   3.130   1.709  0.5424 -0.3315  0.1669
  655ETH     CH 5889   5.337   3.089   1.627  0.0342 -0.1583  0.8268
  655ETH     HO 5890   5.651   3.090   1.713 -0.2817 -0.1219  1.4968
  655ETH     HC 5891   5.446   3.120   1.817  0.6644  0.2242  0.2357
  655ETH     HC 5892   5.469   3.236   1.686  0.3279 -0.4096 -0.2837
  655ETH     HC 5893   5.244   3.140   1.652 -0.6245 -1.5177  1.2223
  655ETH     HC 5894   5.354   3.117   1.523  0.2217  0.5190  1.0413
  655ETH     HC 5895   5.311   2.984   1.640 -0.9036 -0.1635 -0.8262
  656ETH     OH 5896   1.949   1.329   0.902  0.0383  0.2808 -0.0108
  656ETH     CH 5897   1.851   1.258   0.830 -0.2579  0.4930  0.1835
  656ETH     CH 5898   1.863   1.318   0.690  0.2375 -0.1236 -0.0396
  656ETH     HO 5899   1.957   1.296   0.990  2.0916  0.8563  0.0525
  656ETH     HC 5900   1.857   1.149   0.826  2.7159  0.6388 -0.3102
  656ETH     HC 5901   1.751   1.290   0.861 -1.0788 -2.7908  1.2093
  656ETH     HC 5902   1.791   1.281   0.617 -1.7478 -0.7898  2.1989
  656ETH     HC 5903   1.828   1.421   0.688  0.8547  0.0655 -1.6923
  656ETH     HC 5904   1.961   1.304   0.646 -0.6033 -1.5371 -1.5220
  657ETH     OH 5905   1.136   3.817   4.924  0.1688 -0.1602 -0.6693
  657ETH     CH 5906   1.269   3.861   4.923  0.1750 -0.1699  0.0475
  657ETH     CH 5907   1.266   4.014   4.916 -0.0188 -0.1912 -0.3304
  657ETH     HO 5908   1.090   3.858   4.995 -2.2660 -0.1366 -2.1815
  657ETH     HC 5909   1.320   3.831   5.016 -2.5327  0.7819  1.8950
  657ETH     HC 5910   1.321   3.821   4.836 -1.7234 -1.1637 -0.6456
  657ETH     HC 5911   1.211   4.054   5.001  0.0254 -1.0563  0.1216
  657ETH     HC 5912   1.355   4.072   4.894 -0.4761  0.7614  0.2859
  657ETH     HC 5913   1.199   4.038   4.834  0.3542 -0.2082 -0.6425
  658ETH     OH 5914   1.247   3.148   0.320 -0.2823  0.2696  0.2077
  658ETH     CH 5915   1.165   3.071   0.234  0.0674 -0.0717  0.1769
  658ETH     CH 5916   1.259   3.034   0.119 -0.1467  0.1802 -0.0826
  658ETH     HO 5917   1.272   3.223   0.268 -2.5905  0.3996 -0.7823
  658ETH     HC 5918   1.136   2.989   0.299 -1.4607  1.2616  1.2171
  658ETH     HC 5919   1.069   3.115   0.206  0.7252  1.3805  0.1657
  658ETH     HC 5920   1.363   3.010   0.142  0.3673  1.4251 -1.0695
  658ETH     HC 5921   1.218   2.952   0.061  1.1823 -0.9902  0.5834
  658ETH     HC 5922   1.271   3.120   0.053  3.5586 -0.1002  0.0843
  659ETH     OH 5923   4.461   0.445   1.245  0.2739  0.2444  0.0437
  659ETH     CH 5924   4.542   0.557   1.216  0.3246  0.0721 -0.4891
  659ETH     CH 5925   4.690   0.524   1.238  0.1733 -0.2561  0.0614
  659ETH     HO 5926   4.484   0.378   1.183  4.3074 -0.5793  2.2247
  659ETH     HC 5927   4.516   0.586   1.115  0.6746 -0.2596 -0.6741
  659ETH     HC 5928   4.519   0.643   1.279 -0.5644 -0.7338  0.3112
  659ETH     HC 5929   4.711   0.427   1.194 -1.1566 -1.4597  2.0232
  659ETH     HC 5930   4.739   0.598   1.174 -1.5307  3.0639  2.4222
  659ETH     HC 5931   4.721   0.525   1.342 -1.7094  1.3679  0.6551
  660ETH     OH 5932   4.139   2.027   4.443 -0.0367 -0.1250 -0.6014
  660ETH     CH 5933   4.095   2.143   4.377 -0.1860  0.3763  0.3683
  660ETH     CH 5934   4.207   2.247   4.365  0.2267 -0.1377 -0.2711
  660ETH     HO 5935   4.216   1.995   4.398  1.2846  0.1522  1.3840
  660ETH     HC 5936   4.053   2.120   4.279 -2.2900 -1.4923  1.6908
  660ETH     HC 5937   4.005   2.187   4.419 -0.2929  0.9707 -0.4568
  660ETH     HC 5938   4.165   2.342   4.332 -0.6655 -0.2961  0.4175
  660ETH     HC 5939   4.234   2.265   4.469 -2.1419 -2.3052  0.7628
  660ETH     HC 5940   4.289   2.219   4.298  1.2489 -0.5078  1.1122
  661ETH     OH 5941   5.352   0.615   4.973  0.6084  0.1005  0.0247
  661ETH     CH 5942   5.381   0.711   5.073  0.5310 -0.2105  0.3466
  661ETH     CH 5943   5.462   0.819   5.001 -0.2688 -0.2938 -0.6962
  661ETH     HO 5944   5.425   0.556   4.968  0.3547 -0.2688  0.5988
  661ETH     HC 5945   5.285   0.752   5.102  0.0105 -0.3335 -1.1635
  661ETH     HC 5946   5.421   0.668   5.165  0.7995  2.4049  1.4709
  661ETH     HC 5947   5.483   0.904   5.066  4.1982 -1.1742 -0.8459
  661ETH     HC 5948   5.557   0.780   4.964 -1.6139 -1.6328 -2.8634
  661ETH     HC 5949   5.407   0.845   4.911  0.6251 -2.1570 -1.8327
  662ETH     OH 5950   3.938   6.042   2.553 -0.0414  0.0191 -0.1180
  662ETH     CH 5951   4.013   5.943   2.485  0.0621 -0.1870  0.2977
  662ETH     CH 5952   4.097   5.858   2.580 -0.0211 -0.5362  0.0571
  662ETH     HO 5953   3.990   6.118   2.572 -0.4437  0.5034 -0.9019
  662ETH     HC 5954   3.934   5.883   2.441  1.4116 -1.3379 -0.5711
  662ETH     HC 5955   4.072   5.981   2.402  1.6313 -1.3186  0.8799
  662ETH     HC 5956   4.192   5.904   2.604 -0.8913  1.5519 -0.3788
  662ETH     HC 5957   4.048   5.843   2.677 -1.6999 -1.4122 -0.8959
  662ETH     HC 5958   4.138   5.764   2.542 -0.6270 -2.2400  3.3532
  663ETH     OH 5959   2.155   0.364   2.039  0.5616 -0.2315 -0.1662
  663ETH     CH 5960   2.180   0.237   2.095 -0.3466 -0.4818 -0.3214
  663ETH     CH 5961   2.049   0.160   2.108 -0.5908  0.0323  0.3191
  663ETH     HO 5962   2.237   0.411   2.046  0.3559  0.3567 -1.5696
  663ETH     HC 5963   2.252   0.183   2.035  0.0060 -0.6809  0.2720
  663ETH     HC 5964   2.227   0.240   2.194  2.8264 -1.9111 -1.7292
  663ETH     HC 5965   2.021   0.094   2.025  0.0097  0.8035 -0.4960
  663ETH     HC 5966   2.053   0.102   2.201  1.3505  0.2179  0.3569
  663ETH     HC 5967   1.954   0.214   2.110 -0.9448 -0.5316 -1.0013
  664ETH     OH 5968   2.801   0.658   3.291 -0.0243  0.4479 -0.1145
  664ETH     CH 5969   2.799   0.541   3.371  0.5257  0.5955  0.1199
  664ETH     CH 5970   2.724   0.566   3.501  0.0579  0.0213 -0.0401
  664ETH     HO 5971   2.850   0.637   3.213  1.7448 -0.8081  1.2855
  664ETH     HC 5972   2.752   0.462   3.313  1.2479 -0.1229  0.5003
  664ETH     HC 5973   2.899   0.505   3.395 -0.7564 -1.3889  2.6786
  664ETH     HC 5974   2.754   0.666   3.531 -2.7440  0.5458  1.1846
  664ETH     HC 5975   2.615   0.571   3.493 -0.0731 -1.4143  0.6168
  664ETH     HC 5976   2.737   0.498   3.586  1.3257  0.2123 -0.0671
  665ETH     OH 5977   1.033   1.082   4.436  0.5102 -0.2952 -0.1102
  665ETH     CH 5978   0.903   1.081   4.384  0.7236 -0.0026 -0.6542
  665ETH     CH 5979   0.844   1.222   4.383  0.6370 -0.0300  0.4814
  665ETH     HO 5980   1.090   1.100   4.363  1.6560  0.6853  0.9758
  665ETH     HC 5981   0.903   1.041   4.282 -1.5519 -0.0263 -0.6689
  665ETH     HC 5982   0.834   1.022   4.445  1.2100  0.6394  0.5339
  665ETH     HC 5983   0.736   1.224   4.380  0.5985  0.4664  1.6729
  665ETH     HC 5984   0.869   1.267   4.480  0.8223 -0.1441  0.4866
  665ETH     HC 5985   0.887   1.290   4.309  2.1361 -0.1323  1.2376
  666ETH     OH 5986   2.948   0.754   0.489 -0.0338 -0.4997  0.3338
  666ETH     CH 5987   2.881   0.787   0.370 -0.6328 -0.5072  0.6650
  666ETH     CH 5988   2.793   0.668   0.330 -0.3055 -0.3998 -0.3897
  666ETH     HO 5989   2.881   0.754   0.556  1.0694 -0.4949  1.4606
  666ETH     HC 5990   2.820   0.876   0.381 -0.5776 -0.5219  1.1089
  666ETH     HC 5991   2.952   0.807   0.290 -1.6509  2.6903  0.4987
  666ETH     HC 5992   2.759   0.696   0.230  1.0437 -1.7524 -1.2357
  666ETH     HC 5993   2.836   0.568   0.325 -0.6636 -0.5268 -0.9508
  666ETH     HC 5994   2.705   0.653   0.392 -0.5734  1.4144 -0.2849
  667ETH     OH 5995   3.323   4.078   3.846 -0.1199  0.3214  0.1059
  667ETH     CH 5996   3.384   4.052   3.970  0.1331 -0.7186 -0.2344
  667ETH     CH 5997   3.401   3.900   3.977  1.1363 -0.6452 -0.9499
  667ETH     HO 5998   3.286   4.165   3.850  2.4753  1.4021  1.7012
  667ETH     HC 5999   3.481   4.101   3.982  0.0172 -0.7360  0.8651
  667ETH     HC 6000   3.324   4.090   4.053  1.1042 -2.0744  1.1253
  667ETH     HC 6001   3.305   3.847   3.979  1.2715 -0.8562  0.5622
  667ETH     HC 6002   3.458   3.858   3.895  2.4682 -1.5700  0.4355
  667ETH     HC 6003   3.427   3.871   4.079  1.7678 -0.0263 -0.9359
  668ETH     OH 6004   6.181   2.169   1.914 -0.2184 -0.4989  0.0091
  668ETH     CH 6005   6.246   2.167   1.789 -0.2910  0.6589 -0.0495
  668ETH     CH 6006   6.214   2.039   1.713 -0.5341  0.3526  0.5657
  668ETH     HO 6007   6.211   2.091   1.959  1.0712  0.3838  0.7063
  668ETH     HC 6008   6.211   2.258   1.739 -0.1099  1.5408  1.3838
  668ETH     HC 6009   6.353   2.175   1.806 -0.6910  0.9361  2.6060
  668ETH     HC 6010   6.255   2.044   1.612 -1.6266 -0.0741  0.0876
  668ETH     HC 6011   6.256   1.948   1.755 -3.2329 -0.4439  1.6805
  668ETH     HC 6012   6.106   2.019   1.706 -1.0107  2.6230  1.0994
  669ETH     OH 6013   2.284   6.245   1.658  0.1141 -0.3570 -0.0625
  669ETH     CH 6014   2.361   6.163   1.742 -0.1424 -0.8781 -0.3357
  669ETH     CH 6015   2.396   6.040   1.657 -0.0933 -0.7073 -0.5614
  669ETH     HO 6016   2.203   6.201   1.636 -0.3469  1.3865 -1.9828
  669ETH     HC 6017   2.307   6.125   1.828 -2.4144 -1.1721 -1.8539
  669ETH     HC 6018   2.446   6.222   1.776 -0.3440 -0.4592 -0.5637
  669ETH     HC 6019   2.475   6.057   1.584 -0.3374  1.1135 -0.4233
  669ETH     HC 6020   2.420   5.961   1.728  2.5137  1.5481  1.1904
  669ETH     HC 6021   2.305   5.997   1.614 -0.1959 -0.8531 -0.2007
  670ETH     OH 6022   3.594   5.333   5.652  0.3646 -0.6105  0.1546
  670ETH     CH 6023   3.544   5.375   5.527  0.6029  0.4853  0.4243
  670ETH     CH 6024   3.635   5.318   5.418 -0.0205 -0.1378  0.2261
  670ETH     HO 6025   3.627   5.412   5.691 -3.2171  1.5251 -0.8878
  670ETH     HC 6026   3.439   5.346   5.526  1.3304 -2.2769 -0.6108
  670ETH     HC 6027   3.536   5.484   5.528  0.4856  0.4790  0.1097
  670ETH     HC 6028   3.590   5.349   5.324  1.5742 -1.9390 -1.1543
  670ETH     HC 6029   3.738   5.353   5.419 -0.3071  0.7259  0.2396
  670ETH     HC 6030   3.641   5.209   5.424 -0.8947 -0.2865 -1.3951
  671ETH     OH 6031   2.912   1.214   0.283 -0.1370 -0.3976 -0.1528
  671ETH     CH 6032   2.941   1.350   0.308  0.4093 -0.6093  0.4067
  671ETH     CH 6033   3.018   1.406   0.189 -0.6400  0.6292  0.3049
  671ETH     HO 6034   2.851   1.187   0.350 -1.3920  0.6486 -0.8644
  671ETH     HC 6035   2.845   1.398   0.329 -0.5623 -1.2611 -2.2817
  671ETH     HC 6036   3.011   1.351   0.391  1.4179  1.0134 -0.4421
  671ETH     HC 6037   2.989   1.378   0.087  0.6890  2.3254 -0.5722
  671ETH     HC 6038   3.027   1.515   0.194  0.5018  0.4207  2.9707
  671ETH     HC 6039   3.121   1.375   0.199 -0.5129  0.9596  0.0636
  672ETH     OH 6040   3.597   5.084   5.785  0.7421 -0.2980  0.4327
  672ETH     CH 6041   3.688   4.984   5.746  0.9438 -0.0144  0.1771
  672ETH     CH 6042   3.797   4.976   5.853  0.5938  0.4419  0.5685
  672ETH     HO 6043   3.614   5.166   5.742 -2.2446  0.0780 -0.1375
  672ETH     HC 6044   3.632   4.892   5.730  0.0191  0.3490  1.2875
  672ETH     HC 6045   3.732   5.016   5.652  0.5452  0.5884  0.1960
  672ETH     HC 6046   3.842   5.067   5.894  3.4741 -0.4423 -0.4878
  672ETH     HC 6047   3.764   4.912   5.934 -1.7729 -0.0303 -0.7388
  672ETH     HC 6048   3.880   4.919   5.810 -0.7224 -0.4967 -0.7774
  673ETH     OH 6049   5.157   4.897   5.802  0.1347 -0.3318  0.0470
  673ETH     CH 6050   5.184   4.994   5.703 -0.3629  0.3936  0.6181
  673ETH     CH 6051   5.291   5.093   5.749 -0.4919  0.9844 -0.3367
  673ETH     HO 6052   5.089   4.842   5.765 -1.7478  1.8643  0.1001
  673ETH     HC 6053   5.214   4.949   5.609 -1.2169  1.6999 -0.3044
  673ETH     HC 6054   5.089   5.045   5.682 -1.6735 -1.7716  1.1798
  673ETH     HC 6055   5.291   5.178   5.681 -1.3953  1.7600  0.6206
  673ETH     HC 6056   5.278   5.140   5.847  2.2277 -1.1810  1.1386
  673ETH     HC 6057   5.390   5.047   5.751 -1.6922 -1.7370 -1.1455
  674ETH     OH 6058   2.967   0.550   1.351 -0.5837  0.2113  0.1617
  674ETH     CH 6059   2.983   0.506   1.484 -0.1882 -0.0611  0.0258
  674ETH     CH 6060   2.948   0.634   1.560  0.4041  0.2651 -0.2511
  674ETH     HO 6061   3.054   0.574   1.321 -0.0057  0.7829  2.2396
  674ETH     HC 6062   2.917   0.421   1.504  0.5359  0.0795  3.2255
  674ETH     HC 6063   3.083   0.467   1.500 -0.2031  0.1906  0.7354
  674ETH     HC 6064   2.953   0.618   1.668  0.6589  1.7145 -0.0461
  674ETH     HC 6065   3.028   0.706   1.542  0.1674  0.5524 -0.1370
  674ETH     HC 6066   2.858   0.682   1.522 -0.3429 -1.6224 -0.9485
  675ETH     OH 6067   1.099   0.022   0.423  0.6976 -0.1898 -0.3021
  675ETH     CH 6068   1.159  -0.091   0.483 -0.6471 -0.5659  0.3551
  675ETH     CH 6069   1.063  -0.210   0.485 -0.1387 -0.9865 -0.2099
  675ETH     HO 6070   1.036   0.056   0.485  1.4077 -1.0626  0.9299
  675ETH     HC 6071   1.244  -0.131   0.428  0.5947  0.5161  1.4774
  675ETH     HC 6072   1.194  -0.062   0.582  2.6720 -0.6207 -0.7562
  675ETH     HC 6073   0.980  -0.194   0.553 -0.2990  1.2889 -0.9100
  675ETH     HC 6074   1.018  -0.232   0.388  0.6683  1.2097 -1.0939
  675ETH     HC 6075   1.108  -0.305   0.516 -0.4717 -0.8599  0.6738
  676ETH     OH 6076   2.235   2.677   2.978 -0.1774  0.0124 -0.1232
  676ETH     CH 6077   2.262   2.775   3.075 -0.5867  0.1653 -0.1638
  676ETH     CH 6078   2.329   2.891   3.002 -0.0207 -0.2254 -0.2697
  676ETH     HO 6079   2.148   2.691   2.946  0.0728  1.8075 -0.0734
  676ETH     HC 6080   2.170   2.801   3.128  1.4868 -0.6204  4.0129
  676ETH     HC 6081   2.331   2.731   3.147  1.4331  0.8611 -1.6358
  676ETH     HC 6082   2.402   2.871   2.923  1.0394 -0.3685  0.7438
  676ETH     HC 6083   2.252   2.956   2.959 -0.3297 -0.8928 -0.7359
  676ETH     HC 6084   2.374   2.955   3.078  1.0958  0.2532 -1.3237
  677ETH     OH 6085   4.044   4.616   0.594 -0.0848  0.5780  0.1493
  677ETH     CH 6086   4.168   4.599   0.660 -0.0297  0.1563 -0.0560
  677ETH     CH 6087   4.225   4.736   0.699  0.2862  0.1150 -0.3772
  677ETH     HO 6088   4.016   4.536   0.552 -1.1045  1.3160 -0.5753
  677ETH     HC 6089   4.138   4.546   0.751 -1.1819  0.2953 -0.3374
  677ETH     HC 6090   4.246   4.542   0.611  1.6556  1.8937  0.5603
  677ETH     HC 6091   4.305   4.728   0.773  0.7838  0.8924 -0.8341
  677ETH     HC 6092   4.265   4.790   0.613  0.0569  1.0183  0.0795
  677ETH     HC 6093   4.158   4.810   0.742 -0.7688 -0.8003 -0.4353
  678ETH     OH 6094   5.550   0.454   3.293 -0.0054  0.7034  0.0263
  678ETH     CH 6095   5.537   0.593   3.314 -0.4150  0.6076  0.4049
  678ETH     CH 6096   5.394   0.616   3.365 -0.4622  0.4265  0.3559
  678ETH     HO 6097   5.629   0.439   3.244  0.2538 -1.4272  1.0019
  678ETH     HC 6098   5.611   0.621   3.389 -0.1838  0.9311  0.0577
  678ETH     HC 6099   5.571   0.633   3.219  3.0916 -0.9671  0.9134
  678ETH     HC 6100   5.325   0.555   3.307  1.4381 -0.7930 -0.6747
  678ETH     HC 6101   5.392   0.574   3.466 -2.7596 -1.5766 -0.4866
  678ETH     HC 6102   5.361   0.720   3.361 -1.8071 -0.0226 -0.3352
  679ETH     OH 6103   4.527   0.911   3.945 -0.0554 -0.4177 -0.5950
  679ETH     CH 6104   4.409   0.835   3.961 -0.3136  0.1413  0.1752
  679ETH     CH 6105   4.432   0.706   3.883  0.2228  0.4097 -0.1104
  679ETH     HO 6106   4.524   0.973   4.016  0.1798  0.7098 -1.5569
  679ETH     HC 6107   4.392   0.828   4.068 -1.6784  0.1371 -0.0374
  679ETH     HC 6108   4.316   0.879   3.926 -1.0365  1.0478  3.0574
  679ETH     HC 6109   4.346   0.640   3.886  0.9245 -0.4754  1.6653
  679ETH     HC 6110   4.451   0.720   3.776  0.2065 -1.8665 -0.4462
  679ETH     HC 6111   4.511   0.636   3.913  1.3353  2.0110  0.7842
  680ETH     OH 6112   3.738   1.174   1.285 -0.0019  0.3144  0.8833
  680ETH     CH 6113   3.865   1.234   1.287 -0.0935  0.5477 -0.0256
  680ETH     CH 6114   3.971   1.135   1.337  0.0646  0.6335 -0.1896
  680ETH     HO 6115   3.730   1.094   1.233 -0.2561 -0.4381  2.0655
  680ETH     HC 6116   3.883   1.281   1.190  2.0106  0.7525  0.4395
  680ETH     HC 6117   3.868   1.315   1.360 -2.9790  0.5022  0.1768
  680ETH     HC 6118   4.062   1.192   1.320  0.5924 -1.0113 -3.3564
  680ETH     HC 6119   3.966   1.110   1.442  0.6096  1.2819 -0.0069
  680ETH     HC 6120   3.967   1.040   1.285 -2.2249  0.3394  0.4413
  681ETH     OH 6121   3.156   0.848   3.938  0.0736  0.2160 -0.4123
  681ETH     CH 6122   3.270   0.837   4.020 -0.4183 -0.3316  0.2073
  681ETH     CH 6123   3.290   0.698   4.080  0.3168 -0.2332  0.1871
  681ETH     HO 6124   3.186   0.804   3.860  0.2318  0.4616 -0.4909
  681ETH     HC 6125   3.363   0.855   3.966  0.4030 -1.2218  1.2987
  681ETH     HC 6126   3.261   0.913   4.098  0.5292  1.3340 -1.2568
  681ETH     HC 6127   3.201   0.659   4.129 -0.7275  1.6996 -0.1188
  681ETH     HC 6128   3.336   0.631   4.007  0.0267 -2.2407  1.7994
  681ETH     HC 6129   3.354   0.706   4.168 -1.5337  0.8403  1.4573
  682ETH     OH 6130   1.636   4.094   3.554 -0.2239 -0.5750 -0.2277
  682ETH     CH 6131   1.727   3.995   3.511  0.3397  0.0906 -0.5670
  682ETH     CH 6132   1.692   3.964   3.366 -0.8582 -0.1792 -0.2245
  682ETH     HO 6133   1.556   4.046   3.574  0.1171 -0.1512  2.3938
  682ETH     HC 6134   1.827   4.036   3.527  1.2190 -3.1909  3.2369
  682ETH     HC 6135   1.738   3.905   3.571 -2.3829 -1.1427 -1.8674
  682ETH     HC 6136   1.586   3.941   3.352 -0.9468  0.5931 -0.8899
  682ETH     HC 6137   1.707   4.059   3.314 -1.4206  0.0552  0.0366
  682ETH     HC 6138   1.748   3.889   3.311  0.3103  0.6692 -0.2176
  683ETH     OH 6139   5.030   4.549   1.108 -0.0723 -0.2547  0.1811
  683ETH     CH 6140   4.903   4.492   1.127 -0.3494  0.5710  0.7777
  683ETH     CH 6141   4.817   4.522   1.004 -0.2136 -0.2265  0.4834
  683ETH     HO 6142   5.052   4.539   1.016 -2.0489  0.2300 -0.3523
  683ETH     HC 6143   4.915   4.384   1.137 -1.9702  0.1888 -1.0264
  683ETH     HC 6144   4.864   4.542   1.216 -2.6141  0.1118  0.0862
  683ETH     HC 6145   4.826   4.628   0.980  0.0394 -0.2095  0.6399
  683ETH     HC 6146   4.853   4.470   0.915 -1.3694  0.8784 -0.6415
  683ETH     HC 6147   4.711   4.499   1.015 -0.0328 -0.7967  1.1153
  684ETH     OH 6148   0.663   0.258   3.645  0.1143  0.3367  0.4431
  684ETH     CH 6149   0.608   0.386   3.660 -0.2293  0.2551 -0.1235
  684ETH     CH 6150   0.544   0.390   3.799 -0.0412  0.6037 -0.0473
  684ETH     HO 6151   0.595   0.196   3.624  0.7277  0.9392 -3.6695
  684ETH     HC 6152   0.686   0.461   3.655  1.4531 -1.5897 -2.9440
  684ETH     HC 6153   0.535   0.407   3.581 -1.9237 -0.1342  1.2923
  684ETH     HC 6154   0.477   0.305   3.805 -1.9468  2.1299  1.0101
  684ETH     HC 6155   0.632   0.395   3.864  0.3689 -0.0019 -0.5508
  684ETH     HC 6156   0.484   0.480   3.814  1.0819  1.3828 -0.1333
  685ETH     OH 6157   3.900   5.095   0.373 -0.8116  0.3637  0.1950
  685ETH     CH 6158   4.009   5.129   0.290 -0.5475  0.1720  0.4603
  685ETH     CH 6159   4.102   5.201   0.387  0.0765 -0.5787  0.4212
  685ETH     HO 6160   3.932   5.015   0.412 -1.2237 -0.5721 -1.3180
  685ETH     HC 6161   4.062   5.049   0.238  0.7238  0.3154  1.4956
  685ETH     HC 6162   3.976   5.193   0.207  1.2388  1.8327  0.9874
  685ETH     HC 6163   4.058   5.278   0.450  0.3930  1.0459 -1.3282
  685ETH     HC 6164   4.147   5.115   0.437 -0.4636 -2.2727 -1.9361
  685ETH     HC 6165   4.188   5.253   0.346  0.8661 -0.5599  2.0426
  686ETH     OH 6166   4.147   6.226   1.780  0.0191 -0.3404  0.3845
  686ETH     CH 6167   4.111   6.332   1.866  0.0481 -0.1585  0.1733
  686ETH     CH 6168   4.205   6.450   1.845  0.3877 -0.3987  0.3310
  686ETH     HO 6169   4.222   6.179   1.812 -1.3106 -1.4276  1.9647
  686ETH     HC 6170   4.010   6.363   1.841  0.7461  1.3497 -0.7914
  686ETH     HC 6171   4.099   6.282   1.962 -2.1256  1.2758  0.6852
  686ETH     HC 6172   4.175   6.534   1.908  0.2699  0.3376 -0.6902
  686ETH     HC 6173   4.306   6.435   1.884  0.4208 -1.9276 -0.2993
  686ETH     HC 6174   4.219   6.484   1.742  0.8140 -0.4957  0.3541
  687ETH     OH 6175   4.116   1.957   0.041  0.3935  0.4312 -0.3786
  687ETH     CH 6176   4.094   2.090   0.082 -0.6416  0.2186 -0.2368
  687ETH     CH 6177   3.962   2.116   0.155 -0.6126 -0.1701 -0.0466
  687ETH     HO 6178   4.094   1.899   0.112 -0.0833  0.1155 -0.7796
  687ETH     HC 6179   4.163   2.110   0.164 -1.1799  0.0311  0.2638
  687ETH     HC 6180   4.106   2.163   0.002 -0.9241  0.3194 -0.1900
  687ETH     HC 6181   3.920   2.030   0.207  0.0863 -1.5192 -1.6707
  687ETH     HC 6182   3.972   2.182   0.241 -2.4901 -0.4758  0.4276
  687ETH     HC 6183   3.888   2.152   0.085 -0.4964  1.7849  0.8016
  688ETH     OH 6184   1.484   0.338   2.021 -0.0266  0.0003  0.2682
  688ETH     CH 6185   1.509   0.322   1.884  0.0278  0.1314  0.2630
  688ETH     CH 6186   1.389   0.247   1.825  0.0329  0.3414 -0.0161
  688ETH     HO 6187   1.419   0.407   2.032 -0.0790 -0.0874  0.5303
  688ETH     HC 6188   1.520   0.412   1.823 -1.3484  1.4428  1.9156
  688ETH     HC 6189   1.595   0.256   1.871  0.9519  1.4064 -0.2486
  688ETH     HC 6190   1.297   0.305   1.827 -0.4047 -0.3944  2.2540
  688ETH     HC 6191   1.413   0.220   1.722 -0.4703  1.2666 -0.3810
  688ETH     HC 6192   1.377   0.152   1.876 -0.6111  0.2108 -0.4010
  689ETH     OH 6193   2.767   1.391   3.095 -0.3073 -0.1140  0.2387
  689ETH     CH 6194   2.668   1.335   3.012 -0.1105  0.3688 -0.3241
  689ETH     CH 6195   2.693   1.194   2.960  0.5049  0.3662 -0.0252
  689ETH     HO 6196   2.733   1.466   3.141  1.5702  0.5015  0.6771
  689ETH     HC 6197   2.571   1.339   3.063 -0.5734  3.5384 -1.3185
  689ETH     HC 6198   2.654   1.399   2.924  1.1474  3.0146  1.3205
  689ETH     HC 6199   2.693   1.116   3.036  2.0522 -0.7797 -1.1511
  689ETH     HC 6200   2.624   1.164   2.880  0.7428 -0.2042 -0.0156
  689ETH     HC 6201   2.794   1.183   2.922 -0.0941 -0.4206 -1.4364
  690ETH     OH 6202   4.427   4.260   5.915  0.5081 -0.5828  0.1882
  690ETH     CH 6203   4.367   4.208   6.031  0.1932 -0.0936  0.2458
  690ETH     CH 6204   4.464   4.184   6.146 -0.1303 -0.0710  0.5236
  690ETH     HO 6205   4.360   4.306   5.866 -0.1155 -0.4682  1.1507
  690ETH     HC 6206   4.290   4.277   6.066 -1.1965 -0.3668 -2.1450
  690ETH     HC 6207   4.316   4.118   5.997 -1.6626  1.4348 -1.1587
  690ETH     HC 6208   4.541   4.114   6.114  1.1726  0.8085  1.6725
  690ETH     HC 6209   4.517   4.277   6.169  2.5290 -1.5985  0.8146
  690ETH     HC 6210   4.427   4.152   6.244  0.6984  0.3637  0.9938
  691ETH     OH 6211   0.639   3.846   4.650  0.1586  0.1497  0.0609
  691ETH     CH 6212   0.729   3.855   4.758  0.1380  0.0594  0.0862
  691ETH     CH 6213   0.786   3.997   4.747 -0.0426  0.1267  0.0150
  691ETH     HO 6214   0.572   3.910   4.667 -1.2615 -1.7856  2.0924
  691ETH     HC 6215   0.810   3.785   4.741 -2.3801 -2.5373 -1.5397
  691ETH     HC 6216   0.689   3.835   4.857  1.6822  0.4354  0.8094
  691ETH     HC 6217   0.868   3.993   4.676 -0.3025 -0.5851 -0.2532
  691ETH     HC 6218   0.714   4.070   4.710 -0.6292 -0.8887 -0.8977
  691ETH     HC 6219   0.816   4.028   4.847 -0.8722  2.1234 -0.3347
  692ETH     OH 6220   0.756   2.257   5.841 -0.4338  0.0408  0.4088
  692ETH     CH 6221   0.723   2.343   5.948 -0.5683  0.5939 -0.0757
  692ETH     CH 6222   0.723   2.264   6.078  0.0073 -0.4891 -0.7249
  692ETH     HO 6223   0.849   2.241   5.851 -0.2163 -1.2351 -3.0440
  692ETH     HC 6224   0.806   2.413   5.950  1.7499 -2.0428 -0.7619
  692ETH     HC 6225   0.632   2.396   5.918 -0.9257 -1.5239 -3.0547
  692ETH     HC 6226   0.635   2.200   6.081  1.9726 -3.2375  0.2691
  692ETH     HC 6227   0.817   2.211   6.096 -1.9654 -3.6664  0.6682
  692ETH     HC 6228   0.701   2.334   6.159  0.9229  0.8252 -1.5869
  693ETH     OH 6229   4.788   3.177   2.290 -0.6770  0.1383  0.1102
  693ETH     CH 6230   4.857   3.063   2.245 -0.3451  0.2402  0.3593
  693ETH     CH 6231   4.782   2.932   2.266  0.4918 -0.3475 -0.2500
  693ETH     HO 6232   4.855   3.237   2.320  0.6469 -1.5641  0.5954
  693ETH     HC 6233   4.886   3.074   2.140  1.8165 -1.5563  0.7292
  693ETH     HC 6234   4.956   3.048   2.290 -1.5379 -0.8601  2.7325
  693ETH     HC 6235   4.709   2.911   2.187 -0.0100  1.4974 -0.3044
  693ETH     HC 6236   4.849   2.847   2.256 -0.4950 -1.3481  1.3201
  693ETH     HC 6237   4.745   2.942   2.369  1.9947 -0.6188  0.3208
  694ETH     OH 6238   1.881   0.813   3.080  0.5150 -0.0347  0.0470
  694ETH     CH 6239   1.821   0.856   2.959 -0.3437 -0.0472  0.4623
  694ETH     CH 6240   1.728   0.972   2.993  0.9153  0.8659  0.8202
  694ETH     HO 6241   1.952   0.756   3.059  2.0372  1.8567 -0.1208
  694ETH     HC 6242   1.905   0.902   2.907  0.5515 -0.8716  1.1576
  694ETH     HC 6243   1.778   0.776   2.898  1.0187 -0.9142  0.6032
  694ETH     HC 6244   1.783   1.064   3.014  0.0794  0.9401  2.7867
  694ETH     HC 6245   1.679   0.995   2.898 -0.2398 -1.8689  0.7119
  694ETH     HC 6246   1.654   0.945   3.068 -0.9129  3.3208 -0.0159
  695ETH     OH 6247   6.100   1.744   1.863 -0.2563  0.0244 -0.3768
  695ETH     CH 6248   5.976   1.785   1.916 -0.0582 -0.3811  0.4109
  695ETH     CH 6249   5.922   1.693   2.025  0.6037 -0.3957  0.7325
  695ETH     HO 6250   6.162   1.778   1.925 -1.4812 -1.7716  1.8862
  695ETH     HC 6251   5.979   1.892   1.940 -2.7169  0.1751 -1.5261
  695ETH     HC 6252   5.910   1.779   1.830  1.2242 -2.4109 -0.4683
  695ETH     HC 6253   6.003   1.682   2.096  1.6590 -0.6907 -0.5017
  695ETH     HC 6254   5.835   1.719   2.086 -1.1297 -2.3032 -0.8431
  695ETH     HC 6255   5.896   1.600   1.975  1.5211  0.0188 -0.5405
  696ETH     OH 6256   4.489   3.989   5.235 -0.4558 -0.6572  0.0572
  696ETH     CH 6257   4.600   3.957   5.154 -0.3055  0.2472 -0.0929
  696ETH     CH 6258   4.648   3.823   5.209 -0.5516  0.1912 -0.0142
  696ETH     HO 6259   4.499   4.082   5.244  0.6777 -0.6695 -0.8279
  696ETH     HC 6260   4.564   3.955   5.051  1.4401 -0.9712 -0.7021
  696ETH     HC 6261   4.675   4.035   5.168 -0.0712  0.3265 -1.6327
  696ETH     HC 6262   4.677   3.821   5.314 -2.1608 -0.4806  0.4282
  696ETH     HC 6263   4.578   3.741   5.196  1.4218 -1.5255 -0.1906
  696ETH     HC 6264   4.735   3.786   5.153  0.4562  2.9937 -0.3713
  697ETH     OH 6265   1.277   0.618   2.891  0.1386  0.0787 -0.0019
  697ETH     CH 6266   1.334   0.743   2.918  0.0289  0.2497 -0.5703
  697ETH     CH 6267   1.471   0.765   2.852  0.2855  0.5605  0.0620
  697ETH     HO 6268   1.305   0.564   2.964  0.8690  1.5423  0.8149
  697ETH     HC 6269   1.265   0.821   2.885  1.2603  1.0065 -1.4031
  697ETH     HC 6270   1.346   0.762   3.024 -0.4274 -0.4302 -0.3946
  697ETH     HC 6271   1.538   0.685   2.884  0.5663 -0.3362 -2.6427
  697ETH     HC 6272   1.455   0.758   2.745  0.0318  0.0238  0.1310
  697ETH     HC 6273   1.504   0.865   2.881 -1.4513  0.6268  1.9680
  698ETH     OH 6274   3.914   1.799   3.665 -0.3065 -0.2199  0.1040
  698ETH     CH 6275   3.960   1.697   3.578 -0.0390  0.1971 -0.2444
  698ETH     CH 6276   3.909   1.712   3.434  0.6600  0.1860 -0.4931
  698ETH     HO 6277   3.832   1.766   3.697 -1.2392  2.5996  0.6592
  698ETH     HC 6278   4.068   1.690   3.583 -0.0245  1.4115  1.4485
  698ETH     HC 6279   3.924   1.600   3.613 -1.6178 -0.0747 -2.4751
  698ETH     HC 6280   3.962   1.669   3.349 -1.1218 -0.6146 -1.2106
  698ETH     HC 6281   3.806   1.682   3.417  0.5516  1.0023 -1.3780
  698ETH     HC 6282   3.910   1.821   3.425  1.9652  0.0748 -1.9097
  699ETH     OH 6283   4.997   3.131   0.248  0.2799  0.0683  0.1105
  699ETH     CH 6284   5.016   3.069   0.373  0.3278  0.0040  0.0717
  699ETH     CH 6285   4.934   3.144   0.479 -0.1939 -0.0700 -0.2776
  699ETH     HO 6286   5.058   3.091   0.188 -1.1217 -1.9833 -0.0411
  699ETH     HC 6287   5.015   2.960   0.371  0.5799 -0.0691  2.2882
  699ETH     HC 6288   5.118   3.094   0.400  0.1087  0.1583  0.7681
  699ETH     HC 6289   4.974   3.246   0.485 -1.5580  0.6404 -2.7486
  699ETH     HC 6290   4.828   3.147   0.454 -0.1292  0.5641 -0.4909
  699ETH     HC 6291   4.945   3.101   0.578 -0.2838  1.5070  0.4349
  700ETH     OH 6292   3.924   6.198   4.537  0.0334 -0.1191  0.2318
  700ETH     CH 6293   3.933   6.115   4.423  0.4192  0.3877 -0.1045
  700ETH     CH 6294   3.986   5.978   4.465 -0.1040  0.3239  0.3521
  700ETH     HO 6295   3.850   6.167   4.587  0.5209 -2.5697 -0.4798
  700ETH     HC 6296   3.827   6.117   4.397 -0.0251 -1.6511  1.4505
  700ETH     HC 6297   4.001   6.158   4.349  1.9815 -0.3575  0.8872
  700ETH     HC 6298   3.957   5.954   4.567 -2.0340  2.1949  0.2866
  700ETH     HC 6299   3.946   5.901   4.398 -1.7925  1.1916  0.3433
  700ETH     HC 6300   4.094   5.967   4.457  0.0143 -0.7296  3.0018
  701ETH     OH 6301   2.393   0.753   5.476  0.3083 -0.0823 -0.1681
  701ETH     CH 6302   2.292   0.699   5.559  0.3227  0.4179  0.1725
  701ETH     CH 6303   2.276   0.788   5.683 -0.4807  0.4077  0.0761
  701ETH     HO 6304   2.428   0.691   5.414  0.9490 -1.1698  1.2366
  701ETH     HC 6305   2.202   0.676   5.503  0.4873 -0.3007  0.1972
  701ETH     HC 6306   2.323   0.597   5.580  0.9183  0.0467 -2.4196
  701ETH     HC 6307   2.249   0.886   5.644  0.2265  0.2597 -0.7927
  701ETH     HC 6308   2.197   0.746   5.746 -0.2343 -0.8365 -0.4175
  701ETH     HC 6309   2.369   0.793   5.739 -1.0262 -0.5407  1.0868
  702ETH     OH 6310   5.951   4.625   5.732  0.3236 -0.5783 -0.2833
  702ETH     CH 6311   5.897   4.522   5.652 -0.0466 -0.5832 -0.0286
  702ETH     CH 6312   5.747   4.549   5.644 -0.0366 -0.6291 -0.3460
  702ETH     HO 6313   6.008   4.681   5.681 -0.5183 -0.3326 -0.9687
  702ETH     HC 6314   5.940   4.524   5.552 -0.5992  0.4203 -0.2525
  702ETH     HC 6315   5.926   4.427   5.697 -0.7429 -0.5817  0.4249
  702ETH     HC 6316   5.712   4.568   5.745  1.4317 -1.2848  0.2961
  702ETH     HC 6317   5.726   4.633   5.578  1.2366 -0.0030  0.0212
  702ETH     HC 6318   5.702   4.454   5.615  2.3320 -2.2444  1.0695
  703ETH     OH 6319   2.094   5.525   3.362  0.6294  0.1147 -0.0579
  703ETH     CH 6320   2.169   5.407   3.342  0.4189 -0.0382  0.0529
  703ETH     CH 6321   2.231   5.402   3.202 -0.4378  0.3861 -0.3453
  703ETH     HO 6322   2.149   5.601   3.373 -1.0412  0.9888  2.5702
  703ETH     HC 6323   2.229   5.379   3.428 -1.8043 -2.7298  0.8038
  703ETH     HC 6324   2.110   5.315   3.340  1.0500 -0.4438 -2.1939
  703ETH     HC 6325   2.297   5.316   3.194  1.7194  1.8848  0.7187
  703ETH     HC 6326   2.160   5.417   3.120 -0.5894  1.2391 -0.0669
  703ETH     HC 6327   2.308   5.478   3.193  1.5334 -1.3456  1.3870
  704ETH     OH 6328   0.667   1.325   2.128  0.0939 -0.2358 -0.2454
  704ETH     CH 6329   0.543   1.266   2.097 -0.0860 -0.1273  0.2716
  704ETH     CH 6330   0.453   1.346   2.003 -0.5099 -0.6594  0.2240
  704ETH     HO 6331   0.738   1.267   2.106 -0.3680 -1.3722  1.1532
  704ETH     HC 6332   0.559   1.174   2.041 -0.3502  0.2484 -0.4292
  704ETH     HC 6333   0.488   1.239   2.188 -1.2314  0.0853 -0.3429
  704ETH     HC 6334   0.496   1.359   1.904 -1.7607  2.0241 -0.0272
  704ETH     HC 6335   0.361   1.293   1.977  0.2238 -0.9701 -1.8169
  704ETH     HC 6336   0.422   1.437   2.054  0.7285 -0.2755  0.2847
  705ETH     OH 6337   3.702   2.034   1.188  0.0458  0.0041 -0.3256
  705ETH     CH 6338   3.608   2.026   1.084  0.0345 -0.4461 -0.2808
  705ETH     CH 6339   3.483   1.957   1.139 -0.0795 -0.0486 -0.0393
  705ETH     HO 6340   3.695   2.120   1.228 -0.3833 -0.6687  1.0818
  705ETH     HC 6341   3.601   2.125   1.040 -0.8866 -0.4558 -0.1688
  705ETH     HC 6342   3.645   1.956   1.008 -0.5706  0.2009 -1.1847
  705ETH     HC 6343   3.500   1.873   1.207  4.2988  1.0708  0.3905
  705ETH     HC 6344   3.431   2.043   1.181  0.3993  0.0823  0.2969
  705ETH     HC 6345   3.418   1.920   1.060 -1.3074  2.1133 -0.0628
  706ETH     OH 6346   2.494   3.405   4.951 -0.1293 -0.1463  0.1341
  706ETH     CH 6347   2.405   3.401   4.842  0.2200 -0.1124 -0.1519
  706ETH     CH 6348   2.312   3.522   4.833  0.9643  0.4537 -0.3144
  706ETH     HO 6349   2.549   3.330   4.939  1.0990  0.9547 -1.3699
  706ETH     HC 6350   2.464   3.395   4.751  1.6887  1.0771  0.6979
  706ETH     HC 6351   2.344   3.311   4.854  0.6402 -0.4056 -0.2001
  706ETH     HC 6352   2.262   3.543   4.738  0.5388 -0.8552 -0.3932
  706ETH     HC 6353   2.240   3.517   4.915  0.3329  0.0820 -0.8811
  706ETH     HC 6354   2.365   3.616   4.849  1.1806  0.2694  0.0556
  707ETH     OH 6355   5.502   3.188   6.039  0.1709 -0.4699  0.1521
  707ETH     CH 6356   5.540   3.302   5.967  0.0736 -0.0775  0.7217
  707ETH     CH 6357   5.688   3.293   5.929  0.1161  0.5801  0.7110
  707ETH     HO 6358   5.502   3.117   5.976  3.8145  0.7287 -1.2724
  707ETH     HC 6359   5.472   3.298   5.882 -0.2709  0.3835  0.9741
  707ETH     HC 6360   5.523   3.395   6.022  4.0921  2.1879 -1.6084
  707ETH     HC 6361   5.688   3.198   5.875  1.0558 -0.7050  2.8797
  707ETH     HC 6362   5.717   3.375   5.865  1.7720 -1.8472 -1.7644
  707ETH     HC 6363   5.757   3.302   6.013 -2.7417 -1.0108  3.3748
  708ETH     OH 6364   5.335   0.304   0.113  0.1368 -0.0217 -0.1700
  708ETH     CH 6365   5.200   0.345   0.108  0.2042  0.2381  0.0873
  708ETH     CH 6366   5.122   0.296   0.230  0.2696 -0.0688  0.0047
  708ETH     HO 6367   5.392   0.372   0.144 -0.4273 -0.0270  0.9408
  708ETH     HC 6368   5.199   0.452   0.132 -2.3504  0.2275  0.1364
  708ETH     HC 6369   5.150   0.327   0.013 -2.4711  1.6899  1.1710
  708ETH     HC 6370   5.026   0.345   0.240  0.1609 -0.7499  2.4984
  708ETH     HC 6371   5.090   0.193   0.220 -1.3910  0.3893  0.5549
  708ETH     HC 6372   5.168   0.313   0.327 -0.2076 -1.3465  0.4574
  709ETH     OH 6373   2.813   4.938   0.197 -0.1978  0.0444 -0.6119
  709ETH     CH 6374   2.694   5.011   0.221  0.0786  0.3641 -0.2095
  709ETH     CH 6375   2.578   4.914   0.245  0.6654 -0.3027 -0.0373
  709ETH     HO 6376   2.834   4.962   0.108 -0.7593  3.0569 -0.0108
  709ETH     HC 6377   2.702   5.071   0.312  0.6395  1.1775 -0.7927
  709ETH     HC 6378   2.657   5.073   0.140  0.0526  1.0142  0.2996
  709ETH     HC 6379   2.489   4.975   0.260  0.6843  0.0971 -1.4880
  709ETH     HC 6380   2.558   4.845   0.162 -1.5048  0.5602 -0.2680
  709ETH     HC 6381   2.601   4.856   0.334  1.6330 -0.3472 -0.3102
  710ETH     OH 6382   2.425   5.441   4.021 -0.0544 -0.1108 -0.5135
  710ETH     CH 6383   2.512   5.536   4.078 -0.1930 -0.3364  0.0820
  710ETH     CH 6384   2.617   5.550   3.967  0.1432  0.2445  0.4657
  710ETH     HO 6385   2.338   5.477   4.015  0.3738  0.8215 -1.3505
  710ETH     HC 6386   2.448   5.622   4.097 -1.1279 -0.4895 -2.1547
  710ETH     HC 6387   2.548   5.505   4.176  1.2752  0.8777 -0.0438
  710ETH     HC 6388   2.663   5.452   3.954  1.4736  0.9852 -0.5460
  710ETH     HC 6389   2.571   5.589   3.876 -1.9032 -0.8163  0.9993
  710ETH     HC 6390   2.695   5.615   4.005  1.0055  0.3365 -1.3966
  711ETH     OH 6391   2.120   6.042   4.048 -0.0448  0.4204 -0.6145
  711ETH     CH 6392   2.202   6.000   3.941 -0.0128  0.4199 -0.5901
  711ETH     CH 6393   2.276   5.870   3.973 -0.0792  0.4889 -0.1425
  711ETH     HO 6394   2.061   6.105   4.010  0.1228  0.9513 -0.0026
  711ETH     HC 6395   2.142   5.987   3.851 -0.2899  0.3073 -0.3919
  711ETH     HC 6396   2.271   6.080   3.918  1.2292 -0.3735  0.3287
  711ETH     HC 6397   2.324   5.836   3.880 -1.6889 -0.9356 -0.4804
  711ETH     HC 6398   2.346   5.895   4.052  0.6624 -1.1447 -0.2516
  711ETH     HC 6399   2.202   5.794   3.997 -2.3895  2.7651  0.1519
  712ETH     OH 6400   3.968   0.300   3.336  0.1548 -0.1451  0.3706
  712ETH     CH 6401   3.877   0.276   3.441 -0.3471 -0.6372 -0.1716
  712ETH     CH 6402   3.788   0.397   3.469  0.6640 -0.0584  0.5810
  712ETH     HO 6403   3.946   0.264   3.252 -1.5387  1.5801  0.0578
  712ETH     HC 6404   3.818   0.191   3.408  0.3341 -1.3882  0.5119
  712ETH     HC 6405   3.930   0.249   3.533  0.0423 -0.1778 -0.2578
  712ETH     HC 6406   3.841   0.487   3.504  0.9462  0.5537 -1.3563
  712ETH     HC 6407   3.732   0.437   3.385 -2.1154 -1.4129  1.7470
  712ETH     HC 6408   3.709   0.369   3.538 -0.0128  0.0716 -0.1411
  713ETH     OH 6409   4.063   3.834   6.020 -0.0374  0.5972 -0.5382
  713ETH     CH 6410   3.985   3.948   5.993 -0.2477  0.5831  0.0053
  713ETH     CH 6411   3.888   3.993   6.102 -0.2904  0.1827  0.1354
  713ETH     HO 6412   4.112   3.812   5.942  0.4345  3.3561 -1.0760
  713ETH     HC 6413   4.049   4.032   5.966 -1.4935  1.6850  0.4594
  713ETH     HC 6414   3.931   3.919   5.902  1.7191  0.2865 -1.0968
  713ETH     HC 6415   3.923   3.995   6.205 -0.5084 -1.3867  0.2415
  713ETH     HC 6416   3.850   4.095   6.092 -1.8153 -0.3406  0.5744
  713ETH     HC 6417   3.801   3.928   6.105 -0.1688  0.0310  0.3827
  714ETH     OH 6418   3.024   5.517   3.793 -0.2695 -0.0143  0.2620
  714ETH     CH 6419   3.023   5.582   3.668  0.0459  0.1248  0.3296
  714ETH     CH 6420   2.947   5.714   3.681  0.5410  0.4514 -0.0218
  714ETH     HO 6421   3.087   5.447   3.794 -1.2123 -0.8716 -0.3797
  714ETH     HC 6422   3.125   5.596   3.632  0.6823 -1.5306  1.4155
  714ETH     HC 6423   2.984   5.511   3.595 -3.6813  3.2535 -0.8740
  714ETH     HC 6424   3.014   5.790   3.720 -1.3986  2.0037  0.4128
  714ETH     HC 6425   2.890   5.741   3.592 -1.2122  3.5234  1.9614
  714ETH     HC 6426   2.869   5.699   3.756 -0.4281  1.2299 -0.8565
  715ETH     OH 6427   6.240   4.662   3.023  0.1959  0.4874  0.6758
  715ETH     CH 6428   6.342   4.628   2.932 -0.0657  0.1953  0.4897
  715ETH     CH 6429   6.433   4.517   2.985 -0.1668 -0.5587 -0.8921
  715ETH     HO 6430   6.178   4.591   3.019  0.2410  0.4785 -0.1215
  715ETH     HC 6431   6.297   4.601   2.836 -0.0623  1.4345  0.1322
  715ETH     HC 6432   6.413   4.705   2.900  2.1987 -3.0020 -2.5865
  715ETH     HC 6433   6.492   4.560   3.065  0.1294 -2.7159  0.0845
  715ETH     HC 6434   6.374   4.435   3.025 -0.6643 -2.2207 -4.7444
  715ETH     HC 6435   6.496   4.482   2.903 -1.9959 -0.1235 -2.5486
  716ETH     OH 6436   2.579   2.534   1.888  0.4002 -0.0137  0.0592
  716ETH     CH 6437   2.632   2.454   1.992  0.2052  0.0949  0.2420
  716ETH     CH 6438   2.668   2.312   1.946  0.1792  0.0577  0.3384
  716ETH     HO 6439   2.535   2.605   1.932 -0.1585 -1.7003  2.3255
  716ETH     HC 6440   2.715   2.506   2.039  0.8668  2.0992 -2.9436
  716ETH     HC 6441   2.562   2.449   2.075 -0.1105  1.9424  0.1001
  716ETH     HC 6442   2.585   2.258   1.901 -0.7654  0.8453  1.0967
  716ETH     HC 6443   2.768   2.307   1.905  0.4249 -1.3099  1.0848
  716ETH     HC 6444   2.665   2.261   2.042  1.1195 -3.2407 -1.3357
  717ETH     OH 6445   6.287   0.836   4.087  0.0720 -0.1956  0.2399
  717ETH     CH 6446   6.216   0.955   4.112  0.4522  0.0034  0.3833
  717ETH     CH 6447   6.229   1.055   3.997  0.1148  0.6452  0.8995
  717ETH     HO 6448   6.379   0.851   4.071  0.3008  0.8254  2.2950
  717ETH     HC 6449   6.109   0.939   4.127  0.7446 -2.4810  0.0448
  717ETH     HC 6450   6.255   0.997   4.205 -1.7808 -0.6642  1.6705
  717ETH     HC 6451   6.168   1.143   4.019 -0.0747  0.2914  1.8144
  717ETH     HC 6452   6.332   1.084   3.976 -0.4808  2.1637 -0.0243
  717ETH     HC 6453   6.184   1.017   3.905  2.2745 -1.1045  0.5117
  718ETH     OH 6454   6.087   0.165   3.880  0.0973 -0.5285  0.1807
  718ETH     CH 6455   6.136   0.265   3.966  0.2608  0.1433 -0.7017
  718ETH     CH 6456   6.145   0.389   3.876 -0.6747  1.4133  0.9279
  718ETH     HO 6457   5.993   0.173   3.891  0.0412  1.1255 -1.3675
  718ETH     HC 6458   6.072   0.277   4.053 -0.1501 -0.0820 -0.9704
  718ETH     HC 6459   6.239   0.250   3.999 -0.3115  0.1216  1.0857
  718ETH     HC 6460   6.174   0.475   3.936 -0.2117  2.4907 -0.8022
  718ETH     HC 6461   6.225   0.374   3.804 -0.5913 -1.3329  1.5195
  718ETH     HC 6462   6.050   0.406   3.824 -0.1449  0.7542 -0.2780
  719ETH     OH 6463   4.665   1.580   2.461 -0.6629 -0.4316 -0.1007
  719ETH     CH 6464   4.585   1.539   2.352 -0.4547 -0.4403 -0.2517
  719ETH     CH 6465   4.682   1.487   2.247  0.4814 -0.2099  0.4920
  719ETH     HO 6466   4.605   1.589   2.533  1.1711  0.6814  1.3359
  719ETH     HC 6467   4.521   1.460   2.394  0.0457 -1.6955 -1.8292
  719ETH     HC 6468   4.543   1.630   2.309  2.2241  0.1425 -1.6917
  719ETH     HC 6469   4.626   1.460   2.157  0.0975  0.3202  0.5712
  719ETH     HC 6470   4.755   1.559   2.210  1.3312 -2.2705 -1.9397
  719ETH     HC 6471   4.727   1.394   2.283 -0.9387 -1.0253  0.1869
  720ETH     OH 6472   2.118   0.899   3.972 -0.3859 -0.7466  0.5903
  720ETH     CH 6473   2.179   1.004   4.045  0.3311 -0.1040 -0.9193
  720ETH     CH 6474   2.205   1.124   3.954  0.0237 -0.0081 -0.8827
  720ETH     HO 6475   2.158   0.883   3.889  1.8010 -0.9993  1.6655
  720ETH     HC 6476   2.105   1.032   4.120 -0.6417 -0.1047 -1.8522
  720ETH     HC 6477   2.266   0.968   4.098  0.3481 -1.5154 -1.8746
  720ETH     HC 6478   2.262   1.206   3.997  0.3745  0.0158 -1.3873
  720ETH     HC 6479   2.276   1.093   3.877 -1.0751  1.9331 -2.7110
  720ETH     HC 6480   2.115   1.166   3.910 -0.5171  0.7839  0.9427
  721ETH     OH 6481   4.402   0.280   2.300  0.1600  0.2836  0.0024
  721ETH     CH 6482   4.506   0.275   2.206 -0.0731 -0.1056 -0.2387
  721ETH     CH 6483   4.593   0.156   2.248 -0.3151 -0.3040 -0.3020
  721ETH     HO 6484   4.434   0.339   2.366  0.5866  0.1678 -0.1000
  721ETH     HC 6485   4.467   0.260   2.106  1.5012 -0.6084 -0.7965
  721ETH     HC 6486   4.555   0.372   2.200  1.0372 -0.6726 -0.5602
  721ETH     HC 6487   4.532   0.072   2.283  1.0293 -0.5641  1.4735
  721ETH     HC 6488   4.649   0.122   2.161 -0.3676 -1.2131  0.0129
  721ETH     HC 6489   4.666   0.185   2.324  1.1021 -1.0628 -1.3505
  722ETH     OH 6490   1.005   2.435   1.812 -0.1442 -0.3046  0.0092
  722ETH     CH 6491   0.939   2.492   1.923  0.0575 -0.0178 -0.0152
  722ETH     CH 6492   0.834   2.401   1.988 -0.0650 -0.1949 -0.4570
  722ETH     HO 6493   1.095   2.464   1.817 -0.2198  0.2388 -1.5387
  722ETH     HC 6494   1.012   2.513   2.000 -0.7122 -0.9184  0.9837
  722ETH     HC 6495   0.900   2.589   1.891 -0.0668  0.3976  1.3686
  722ETH     HC 6496   0.865   2.297   2.003 -1.7130 -0.8894 -1.6553
  722ETH     HC 6497   0.809   2.437   2.088  3.7516  1.9290 -0.1690
  722ETH     HC 6498   0.749   2.383   1.922 -1.7234 -0.3602  1.6712
  723ETH     OH 6499   0.309   1.779   3.378  0.1707  0.2081 -0.1168
  723ETH     CH 6500   0.288   1.790   3.517 -0.7667  0.6036 -0.2856
  723ETH     CH 6501   0.153   1.740   3.568 -0.0638 -0.3452  0.6571
  723ETH     HO 6502   0.328   1.689   3.361  1.5127  0.4174  0.2622
  723ETH     HC 6503   0.363   1.738   3.576 -0.0223 -0.1111 -1.8540
  723ETH     HC 6504   0.302   1.897   3.535 -0.0505  0.2944  1.0409
  723ETH     HC 6505   0.127   1.635   3.553  1.4563 -0.8286  1.3288
  723ETH     HC 6506   0.152   1.744   3.677 -1.1008 -0.3901  0.6561
  723ETH     HC 6507   0.080   1.808   3.524 -1.7860 -3.0223 -0.7348
  724ETH     OH 6508   1.708   3.403   4.737 -0.2431 -0.0864  0.1479
  724ETH     CH 6509   1.840   3.451   4.753 -0.2464 -0.1140  0.2544
  724ETH     CH 6510   1.933   3.332   4.779 -0.2512 -0.1679  0.0166
  724ETH     HO 6511   1.701   3.359   4.654  1.6092 -1.8377  0.8590
  724ETH     HC 6512   1.871   3.510   4.667 -0.0851  1.2206  1.2051
  724ETH     HC 6513   1.831   3.513   4.843 -0.0521 -0.0766  0.2472
  724ETH     HC 6514   1.940   3.260   4.697 -0.9767 -1.5800  1.1766
  724ETH     HC 6515   2.034   3.369   4.796  0.9687 -2.5963 -1.6634
  724ETH     HC 6516   1.901   3.277   4.867 -1.6111  1.8370  0.8186
  725ETH     OH 6517   2.275   2.654   0.004  0.2183  0.1775 -0.0097
  725ETH     CH 6518   2.364   2.568   0.072 -0.5263 -0.3743  0.2653
  725ETH     CH 6519   2.462   2.644   0.162 -0.4703 -0.5736  0.3723
  725ETH     HO 6520   2.324   2.678  -0.074  0.4255 -0.3397 -0.0414
  725ETH     HC 6521   2.301   2.514   0.143 -2.0550  1.0382  0.0032
  725ETH     HC 6522   2.398   2.493   0.001 -1.4002  0.9501 -1.5975
  725ETH     HC 6523   2.515   2.567   0.219  0.6411 -0.4198 -0.4431
  725ETH     HC 6524   2.538   2.691   0.100  0.0752 -1.0584  0.6745
  725ETH     HC 6525   2.416   2.718   0.227 -2.6562  0.1937 -1.9885
  726ETH     OH 6526   0.891   2.072   3.728  0.1533  0.1652  0.0298
  726ETH     CH 6527   0.907   2.112   3.862 -0.3771 -0.2270  0.2109
  726ETH     CH 6528   0.912   2.264   3.848  0.2725 -0.2399  0.2853
  726ETH     HO 6529   0.858   1.984   3.725  1.0138 -0.2061  1.3118
  726ETH     HC 6530   0.828   2.074   3.927 -1.1408  1.2512  0.1774
  726ETH     HC 6531   1.004   2.078   3.897 -2.1306 -3.1131  2.5534
  726ETH     HC 6532   0.813   2.310   3.849  0.0635 -0.6313 -1.4842
  726ETH     HC 6533   0.960   2.298   3.940  2.4944  0.0957 -0.9646
  726ETH     HC 6534   0.976   2.313   3.774 -0.0191  1.3879  1.0751
  727ETH     OH 6535   2.678   3.250   4.592 -0.6652 -0.1994  0.0481
  727ETH     CH 6536   2.617   3.252   4.465  0.0510 -0.0180 -0.2932
  727ETH     CH 6537   2.555   3.118   4.429  0.0345 -0.0395 -0.1837
  727ETH     HO 6538   2.718   3.333   4.613  0.4741 -0.3175 -1.5810
  727ETH     HC 6539   2.535   3.324   4.464 -1.2016 -1.4225  0.3441
  727ETH     HC 6540   2.680   3.300   4.389  1.8692  0.6925  1.5989
  727ETH     HC 6541   2.499   3.087   4.517  0.9996 -2.6531 -0.4548
  727ETH     HC 6542   2.486   3.113   4.344 -0.0746 -1.0824 -0.0421
  727ETH     HC 6543   2.623   3.035   4.414 -1.1926 -1.3628  1.3568
  728ETH     OH 6544   1.439   4.032   3.865  0.0964  0.2696  0.3498
  728ETH     CH 6545   1.579   4.042   3.864  0.0885  0.3738  0.1192
  728ETH     CH 6546   1.636   4.022   4.005 -0.7213 -0.7700  0.2894
  728ETH     HO 6547   1.413   4.003   3.779 -0.7192  0.2243  0.6028
  728ETH     HC 6548   1.614   3.956   3.807 -2.4510 -1.0814  0.6733
  728ETH     HC 6549   1.609   4.139   3.823  0.6355  0.0627 -0.2235
  728ETH     HC 6550   1.744   4.005   4.008 -0.6255 -0.5073 -1.3009
  728ETH     HC 6551   1.622   4.113   4.062  0.4538  0.7479 -1.7615
  728ETH     HC 6552   1.590   3.938   4.056  1.1534 -0.0648  3.2526
  729ETH     OH 6553   5.803   1.455   5.918  0.3725 -0.2347 -0.4546
  729ETH     CH 6554   5.673   1.490   5.959  0.2926  0.1034 -0.9918
  729ETH     CH 6555   5.669   1.532   6.106  0.0865 -0.6170 -0.7890
  729ETH     HO 6556   5.842   1.405   5.988 -1.8464 -0.3175  0.7428
  729ETH     HC 6557   5.639   1.572   5.896 -1.2002  0.5344  0.3352
  729ETH     HC 6558   5.601   1.408   5.953 -1.1813  1.1094  2.1409
  729ETH     HC 6559   5.564   1.541   6.134 -0.0054 -1.2476 -0.9210
  729ETH     HC 6560   5.712   1.458   6.173  1.6777 -1.8804 -3.1235
  729ETH     HC 6561   5.709   1.633   6.107 -0.1390 -0.5324  0.7090
  730ETH     OH 6562   1.622   2.260   6.237 -0.0715 -0.1858  0.5745
  730ETH     CH 6563   1.739   2.335   6.215  0.3098 -0.8744  0.2276
  730ETH     CH 6564   1.806   2.310   6.079  0.5304  1.0640 -0.0376
  730ETH     HO 6565   1.558   2.276   6.168 -0.3948 -0.6190  0.7706
  730ETH     HC 6566   1.719   2.442   6.221  2.2792 -0.4550 -0.2656
  730ETH     HC 6567   1.803   2.305   6.297 -1.3659 -0.0241  1.9016
  730ETH     HC 6568   1.811   2.203   6.063  0.0289  0.8339  1.2285
  730ETH     HC 6569   1.735   2.340   6.002  0.2325  0.2661 -0.0760
  730ETH     HC 6570   1.903   2.359   6.073  0.9749  0.3298  1.0760
  731ETH     OH 6571   4.081   2.942   4.846 -0.1723 -0.2458  0.2758
  731ETH     CH 6572   4.001   2.825   4.840 -0.2213 -0.2012  0.0346
  731ETH     CH 6573   3.952   2.816   4.985 -0.2812  0.5090  0.0588
  731ETH     HO 6574   4.095   2.974   4.758 -0.1012 -1.0056  0.0069
  731ETH     HC 6575   3.918   2.848   4.775 -1.7081 -0.2741  1.8660
  731ETH     HC 6576   4.062   2.741   4.806 -0.2258  1.4599 -4.4010
  731ETH     HC 6577   3.909   2.718   5.006  2.1697 -0.6979 -0.3242
  731ETH     HC 6578   4.037   2.817   5.053 -0.2922 -1.3355  0.1122
  731ETH     HC 6579   3.872   2.886   5.010 -0.4417 -0.2095  1.6034
  732ETH     OH 6580   5.176   5.381   4.367  0.2107 -0.2614  0.2658
  732ETH     CH 6581   5.048   5.372   4.425  0.2485  0.2589  0.4355
  732ETH     CH 6582   4.980   5.507   4.402 -0.0268  0.0470 -0.0063
  732ETH     HO 6583   5.171   5.375   4.273  4.0908 -1.8284  0.1044
  732ETH     HC 6584   4.994   5.283   4.391 -2.3071  2.3819 -1.1892
  732ETH     HC 6585   5.048   5.341   4.530 -0.2327  0.4538  0.4968
  732ETH     HC 6586   5.018   5.568   4.484  0.5900 -0.0527 -0.2136
  732ETH     HC 6587   4.999   5.558   4.307  0.0075 -0.1246 -0.0918
  732ETH     HC 6588   4.872   5.502   4.411  0.2192 -1.1707  2.6236
  733ETH     OH 6589   5.088   0.727   0.022  0.3176  0.3884  0.2160
  733ETH     CH 6590   5.128   0.691  -0.109  0.0104 -0.0976  0.2528
  733ETH     CH 6591   5.280   0.697  -0.129  0.0159 -0.9422  0.0573
  733ETH     HO 6592   4.994   0.732   0.030 -0.0622 -4.2115  0.1717
  733ETH     HC 6593   5.087   0.594  -0.136 -0.8711  0.5917 -0.9087
  733ETH     HC 6594   5.082   0.769  -0.170 -1.5747 -0.7722  0.5653
  733ETH     HC 6595   5.316   0.659  -0.225  0.0562 -0.0559 -0.2840
  733ETH     HC 6596   5.314   0.800  -0.128 -1.4276 -0.4039 -2.4612
  733ETH     HC 6597   5.331   0.633  -0.057  0.9723 -1.2649 -0.8923
  734ETH     OH 6598   1.192   0.731   3.453 -0.0880  0.4926  0.0413
  734ETH     CH 6599   1.321   0.687   3.416 -0.4172 -0.1508 -0.3654
  734ETH     CH 6600   1.408   0.661   3.539 -0.3564 -0.2482 -0.4289
  734ETH     HO 6601   1.151   0.653   3.488  0.1007 -0.0483 -0.9313
  734ETH     HC 6602   1.326   0.592   3.363 -1.3476 -1.2490  1.4580
  734ETH     HC 6603   1.372   0.769   3.364 -0.8032  0.6999  0.5661
  734ETH     HC 6604   1.405   0.755   3.594 -0.7218 -0.4304 -0.1315
  734ETH     HC 6605   1.355   0.578   3.586 -0.8135  0.3739  0.1773
  734ETH     HC 6606   1.506   0.631   3.504 -0.2319  1.0714 -1.2419
  735ETH     OH 6607   1.034   2.214   0.250  0.1299 -0.0161 -0.0122
  735ETH     CH 6608   1.019   2.278   0.375  0.0778  0.4958 -0.2809
  735ETH     CH 6609   1.136   2.373   0.399 -0.0959  0.5898  0.1888
  735ETH     HO 6610   1.094   2.142   0.264  0.1585  0.1750  0.8710
  735ETH     HC 6611   0.924   2.332   0.380 -1.1984 -1.7842  0.5398
  735ETH     HC 6612   1.010   2.206   0.456  0.4275  1.5637  0.7140
  735ETH     HC 6613   1.229   2.317   0.414 -0.5929 -0.9824 -2.2932
  735ETH     HC 6614   1.142   2.441   0.315  0.8948  0.8189  0.4360
  735ETH     HC 6615   1.121   2.432   0.489  1.0533  1.6352 -0.2922
  736ETH     OH 6616   3.017   6.218   0.884  0.5837 -0.5632 -0.2138
  736ETH     CH 6617   2.891   6.226   0.948  0.6973 -0.3438 -0.0163
  736ETH     CH 6618   2.782   6.217   0.842  0.5012 -0.2537  0.1785
  736ETH     HO 6619   3.021   6.260   0.799  0.4268  0.1965  0.1517
  736ETH     HC 6620   2.882   6.159   1.033 -1.0276  0.2793  0.3012
  736ETH     HC 6621   2.890   6.324   0.994  2.9810 -1.1585  1.8482
  736ETH     HC 6622   2.771   6.115   0.804  1.2583 -0.0589 -0.5852
  736ETH     HC 6623   2.685   6.245   0.883 -0.4563 -1.5397 -1.1532
  736ETH     HC 6624   2.792   6.281   0.754 -0.2437  1.6950  1.4962
  737ETH     OH 6625   5.661   0.691   3.832 -0.4281 -0.2585  0.4652
  737ETH     CH 6626   5.622   0.627   3.712 -0.0641  0.1440  0.1309
  737ETH     CH 6627   5.617   0.477   3.739 -0.3443  0.1445  0.0804
  737ETH     HO 6628   5.672   0.782   3.812 -0.2254 -0.4973 -0.5230
  737ETH     HC 6629   5.523   0.664   3.687  0.1061  0.1895 -0.4779
  737ETH     HC 6630   5.700   0.656   3.642 -1.3857  0.8482 -1.0489
  737ETH     HC 6631   5.595   0.422   3.647 -0.8180 -0.3325  0.4769
  737ETH     HC 6632   5.718   0.442   3.763  0.2890  0.7066 -1.6600
  737ETH     HC 6633   5.544   0.449   3.815 -2.2653  1.5877 -1.1897
  738ETH     OH 6634   1.543   5.613   5.436 -0.2107 -0.4792  0.3523
  738ETH     CH 6635   1.452   5.719   5.415  0.1580 -0.2333 -0.0158
  738ETH     CH 6636   1.344   5.704   5.522  0.4214 -0.1088  0.2685
  738ETH     HO 6637   1.599   5.606   5.360 -0.9249 -0.1122 -0.2245
  738ETH     HC 6638   1.503   5.814   5.430  0.8168 -0.6667  0.5123
  738ETH     HC 6639   1.392   5.700   5.326  0.8302  1.7073 -0.9163
  738ETH     HC 6640   1.372   5.749   5.617 -0.7175 -0.4784  0.7884
  738ETH     HC 6641   1.256   5.760   5.489  0.2635 -0.5828 -0.1145
  738ETH     HC 6642   1.317   5.606   5.561  1.9723 -0.4297  0.5369
  739ETH     OH 6643   5.847   5.753   5.523 -0.3937 -0.2927 -0.3911
  739ETH     CH 6644   5.787   5.864   5.459  0.0280  0.4763  0.5359
  739ETH     CH 6645   5.780   5.858   5.306  0.1601  0.0794  0.5431
  739ETH     HO 6646   5.941   5.753   5.509 -0.2429  0.3916  0.5951
  739ETH     HC 6647   5.683   5.863   5.492  0.1747 -0.3745  0.9844
  739ETH     HC 6648   5.828   5.958   5.495  0.8657  0.3146  0.0357
  739ETH     HC 6649   5.743   5.946   5.254 -1.8502 -2.2673 -2.1568
  739ETH     HC 6650   5.879   5.835   5.268 -0.0566  1.0964 -0.6318
  739ETH     HC 6651   5.716   5.776   5.273 -0.0320 -0.3721  1.9769
  740ETH     OH 6652   6.168   6.027   4.699  0.1959 -0.0240 -0.0640
  740ETH     CH 6653   6.133   6.010   4.564  0.3443  0.1922 -0.1287
  740ETH     CH 6654   6.245   5.939   4.488 -0.1075 -0.1940 -0.4389
  740ETH     HO 6655   6.238   6.090   4.699  1.0261 -0.8962 -2.0967
  740ETH     HC 6656   6.037   5.958   4.566 -0.0059  0.8130 -0.5163
  740ETH     HC 6657   6.113   6.105   4.514 -0.1496  0.0951 -0.1248
  740ETH     HC 6658   6.219   5.910   4.386  1.0254 -0.8156 -0.5639
  740ETH     HC 6659   6.333   6.002   4.477  0.2772 -0.7436 -0.5411
  740ETH     HC 6660   6.278   5.847   4.536 -0.1499 -0.1838 -0.3907
  741ETH     OH 6661   0.180   0.659   5.407 -0.1497 -0.2937  0.8288
  741ETH     CH 6662   0.281   0.747   5.451 -0.0290 -0.1176  0.1912
  741ETH     CH 6663   0.368   0.665   5.547  0.0426 -0.0083  0.2195
  741ETH     HO 6664   0.129   0.708   5.344  1.8174  3.8086  2.2554
  741ETH     HC 6665   0.341   0.784   5.367  2.9986 -1.4035  1.6843
  741ETH     HC 6666   0.245   0.844   5.485 -0.4295  0.6545 -2.3171
  741ETH     HC 6667   0.432   0.591   5.499  2.1972  1.6474  0.4667
  741ETH     HC 6668   0.443   0.734   5.586 -0.6397  1.6823 -1.3599
  741ETH     HC 6669   0.311   0.612   5.623  1.0152  1.4578  2.0078
  742ETH     OH 6670   2.531   6.126   3.061  0.1406  0.2688  0.0840
  742ETH     CH 6671   2.656   6.136   2.997  0.1643  0.0784  0.1001
  742ETH     CH 6672   2.734   6.259   3.043 -0.3966  0.4096  0.1799
  742ETH     HO 6673   2.468   6.092   2.999 -1.4921  0.5206  1.5497
  742ETH     HC 6674   2.715   6.045   3.005 -0.4193 -0.4994 -1.8217
  742ETH     HC 6675   2.637   6.153   2.891 -0.5796  0.3714  0.2756
  742ETH     HC 6676   2.750   6.246   3.150  1.0218 -0.1611 -0.0897
  742ETH     HC 6677   2.832   6.277   2.999 -0.6974 -0.3191 -0.7906
  742ETH     HC 6678   2.678   6.348   3.017 -0.1619  0.2524 -0.8740
  743ETH     OH 6679   6.059   3.936   6.083 -0.0101 -0.6176 -0.1663
  743ETH     CH 6680   6.036   3.964   6.219  0.5196  0.1265 -0.2264
  743ETH     CH 6681   5.997   3.835   6.292  0.0170  0.4011 -0.0076
  743ETH     HO 6682   6.061   4.014   6.030 -0.2089 -0.8436 -0.5110
  743ETH     HC 6683   6.128   4.001   6.265  0.2574  0.4177  0.0625
  743ETH     HC 6684   5.961   4.042   6.229  0.0944 -0.2629 -0.3562
  743ETH     HC 6685   5.999   3.860   6.398  0.4774  0.2907  0.0116
  743ETH     HC 6686   5.891   3.816   6.277  0.3179 -1.6108  0.3260
  743ETH     HC 6687   6.047   3.743   6.260  1.2460  0.9666  0.2583
  744ETH     OH 6688   0.207   4.004   1.052  0.2013 -0.6313  0.1801
  744ETH     CH 6689   0.322   4.030   1.129  0.0878  0.0412  0.1296
  744ETH     CH 6690   0.330   3.949   1.259  0.4989 -0.0191  0.0690
  744ETH     HO 6691   0.206   4.065   0.980 -0.9941  0.3325  1.0070
  744ETH     HC 6692   0.411   4.026   1.066  0.9456 -0.4577  1.3541
  744ETH     HC 6693   0.314   4.134   1.159  2.3041 -0.0231  1.0935
  744ETH     HC 6694   0.346   3.844   1.236  2.0241  0.3813 -0.8081
  744ETH     HC 6695   0.397   3.974   1.341 -2.4548 -1.4292  3.0084
  744ETH     HC 6696   0.235   3.961   1.312  0.5427 -0.7106  0.3098
  745ETH     OH 6697   0.194   0.709   0.646  0.4560  0.5851  0.6619
  745ETH     CH 6698   0.293   0.771   0.568 -0.1317 -0.0482 -0.6022
  745ETH     CH 6699   0.424   0.797   0.643 -0.4712  0.4670 -0.1835
  745ETH     HO 6700   0.141   0.773   0.691 -0.6290  0.0645  0.1289
  745ETH     HC 6701   0.314   0.702   0.486 -1.5216  0.5091 -1.4418
  745ETH     HC 6702   0.260   0.859   0.512 -1.3330 -0.4867 -0.5841
  745ETH     HC 6703   0.513   0.831   0.589 -0.0383 -3.4446 -2.1382
  745ETH     HC 6704   0.398   0.871   0.718 -0.9786 -1.8994  2.0615
  745ETH     HC 6705   0.455   0.715   0.708  0.3291 -0.5794 -1.8479
  746ETH     OH 6706   1.279   3.392   0.148 -0.1742  0.4110 -0.1223
  746ETH     CH 6707   1.345   3.508   0.193  0.5637  0.0734 -0.3135
  746ETH     CH 6708   1.449   3.490   0.303  0.0016  0.1526  0.2362
  746ETH     HO 6709   1.195   3.423   0.119 -1.7928 -3.0453  0.5558
  746ETH     HC 6710   1.383   3.557   0.104 -3.7280  2.8605 -0.7725
  746ETH     HC 6711   1.270   3.573   0.239  0.3987 -1.0791  1.1021
  746ETH     HC 6712   1.402   3.437   0.386 -2.5421 -0.6435 -1.6643
  746ETH     HC 6713   1.533   3.436   0.258 -1.3365 -1.2613 -0.6001
  746ETH     HC 6714   1.484   3.585   0.344 -1.1438  0.2680  0.9560
  747ETH     OH 6715   4.938   1.865   3.851 -0.1760 -0.2176 -0.5800
  747ETH     CH 6716   4.990   1.924   3.734  0.2639  0.3399 -0.1091
  747ETH     CH 6717   4.877   1.996   3.659  0.0297  0.1993  0.1080
  747ETH     HO 6718   4.896   1.781   3.838  0.5723 -0.6915  0.0199
  747ETH     HC 6719   5.067   1.994   3.767  0.0765  0.7751 -0.5737
  747ETH     HC 6720   5.034   1.844   3.675 -1.3252 -0.5309 -0.1356
  747ETH     HC 6721   4.788   1.934   3.668 -0.6433  0.9651 -1.1675
  747ETH     HC 6722   4.866   2.087   3.719  2.3936  0.6328 -0.0489
  747ETH     HC 6723   4.910   2.026   3.560 -0.0142 -0.3385 -0.0710
  748ETH     OH 6724   1.010   3.765   3.865  0.0944 -0.5640 -0.1486
  748ETH     CH 6725   0.997   3.759   4.005  0.1635  0.2972 -0.1027
  748ETH     CH 6726   1.127   3.808   4.070  0.7403 -0.2713 -0.8139
  748ETH     HO 6727   0.945   3.708   3.827  0.0655  0.6797 -2.0510
  748ETH     HC 6728   0.904   3.788   4.053 -0.2522 -0.8649 -0.2008
  748ETH     HC 6729   0.995   3.653   4.028  0.6151 -0.0841 -1.7857
  748ETH     HC 6730   1.108   3.793   4.177 -0.8164 -0.3709 -1.0873
  748ETH     HC 6731   1.212   3.746   4.044 -0.2819 -1.8693 -0.3863
  748ETH     HC 6732   1.162   3.911   4.061  1.0001 -0.0984  1.6586
  749ETH     OH 6733   5.041   2.825   5.496 -0.2636 -0.1863  0.0505
  749ETH     CH 6734   4.978   2.864   5.375 -0.4951  0.1229  0.2706
  749ETH     CH 6735   5.032   2.998   5.326  0.0558 -0.0432  0.4164
  749ETH     HO 6736   5.006   2.878   5.565 -0.0516 -1.6116  1.2667
  749ETH     HC 6737   5.010   2.788   5.303  0.5608  1.8262 -1.0789
  749ETH     HC 6738   4.869   2.868   5.379 -0.4720  0.7076  0.3075
  749ETH     HC 6739   5.140   3.003   5.311 -0.2320  1.6434 -1.3167
  749ETH     HC 6740   4.992   3.015   5.226 -0.5638 -1.4210  0.4242
  749ETH     HC 6741   5.000   3.083   5.386 -2.4432 -0.4577 -0.2589
  750ETH     OH 6742   1.961   5.629   1.770  0.0156 -0.0634 -0.0982
  750ETH     CH 6743   2.002   5.677   1.644  0.6048  0.0884  0.1536
  750ETH     CH 6744   2.142   5.640   1.595  0.4886  0.3900 -0.4139
  750ETH     HO 6745   2.023   5.654   1.837  0.0053 -0.0065 -0.1097
  750ETH     HC 6746   1.927   5.656   1.569 -1.6615  1.6012  1.9310
  750ETH     HC 6747   1.987   5.785   1.647  0.2306  0.0572 -0.6677
  750ETH     HC 6748   2.214   5.689   1.662  1.0673  1.7316 -1.9950
  750ETH     HC 6749   2.154   5.531   1.595 -0.9366  0.2263  0.1427
  750ETH     HC 6750   2.159   5.679   1.495  1.1556  1.2744  0.0446
  751ETH     OH 6751   1.534   2.581   5.238  0.6011 -0.4538  0.0035
  751ETH     CH 6752   1.663   2.632   5.215  0.6913 -0.6039  0.1782
  751ETH     CH 6753   1.660   2.720   5.090 -0.0941 -0.7592  0.0856
  751ETH     HO 6754   1.520   2.555   5.327 -2.4285 -0.2458 -0.3550
  751ETH     HC 6755   1.688   2.695   5.301 -2.1076  2.1869 -0.9491
  751ETH     HC 6756   1.722   2.541   5.202  0.5944 -0.7269  0.6140
  751ETH     HC 6757   1.751   2.780   5.098 -0.2165 -0.3653 -1.2293
  751ETH     HC 6758   1.679   2.656   5.004  0.0177  0.8253 -1.1139
  751ETH     HC 6759   1.573   2.784   5.074 -0.5362 -1.9223 -2.4114
  752ETH     OH 6760   2.857   3.677   5.438  0.4617  0.0358 -0.1065
  752ETH     CH 6761   2.908   3.627   5.560  0.3323  0.5507  0.1644
  752ETH     CH 6762   3.006   3.720   5.631  0.7138  0.3808 -0.1369
  752ETH     HO 6763   2.825   3.609   5.383 -0.1540 -0.0233  0.3237
  752ETH     HC 6764   2.966   3.540   5.529  3.7967  2.5348  0.7688
  752ETH     HC 6765   2.819   3.590   5.610  0.4308  1.3976  0.9662
  752ETH     HC 6766   2.949   3.806   5.666  0.2866  1.1532 -2.6716
  752ETH     HC 6767   3.050   3.673   5.719 -0.3786 -2.0548 -0.8236
  752ETH     HC 6768   3.087   3.759   5.570 -1.5653  1.3964 -2.5892
  753ETH     OH 6769   1.188   4.665   3.353  0.3573 -0.2921  0.1118
  753ETH     CH 6770   1.298   4.672   3.265  0.2617  0.1944  0.0309
  753ETH     CH 6771   1.412   4.742   3.341  0.2788 -0.0634  0.2423
  753ETH     HO 6772   1.228   4.653   3.438  1.4909  2.4612  0.0188
  753ETH     HC 6773   1.338   4.579   3.225 -0.5671  0.6164 -1.8439
  753ETH     HC 6774   1.273   4.733   3.179 -2.8353 -0.3534  0.5002
  753ETH     HC 6775   1.470   4.806   3.274 -0.2699  0.3470  0.1565
  753ETH     HC 6776   1.371   4.806   3.419  0.2495 -1.5609  1.4694
  753ETH     HC 6777   1.479   4.670   3.387  0.8984  0.3572 -0.0038
  754ETH     OH 6778   0.103   4.675   4.695  0.0751  0.2947  0.7338
  754ETH     CH 6779   0.146   4.730   4.572 -0.3159  0.0407  0.4813
  754ETH     CH 6780   0.050   4.828   4.505  0.5541  0.2864 -0.3981
  754ETH     HO 6781   0.111   4.749   4.753 -0.6954  1.4531 -0.6231
  754ETH     HC 6782   0.245   4.775   4.574 -1.0556  1.7088  0.7653
  754ETH     HC 6783   0.157   4.643   4.507 -1.0360 -0.6055  1.2046
  754ETH     HC 6784  -0.047   4.787   4.477  0.0139  2.0041 -1.1172
  754ETH     HC 6785   0.027   4.909   4.574 -1.9840  0.0382 -0.9135
  754ETH     HC 6786   0.084   4.866   4.408 -1.2954  0.2159 -1.0874
  755ETH     OH 6787   0.461   0.257   2.014 -0.1703 -0.4874  0.5426
  755ETH     CH 6788   0.334   0.282   1.959  0.2679  0.5281 -0.0229
  755ETH     CH 6789   0.340   0.379   1.842  0.0769  0.4169 -0.1258
  755ETH     HO 6790   0.444   0.221   2.100 -3.0998  1.2091  0.7209
  755ETH     HC 6791   0.287   0.188   1.930  0.0629  1.5345 -3.1513
  755ETH     HC 6792   0.276   0.324   2.042  0.4288  0.9361 -0.1185
  755ETH     HC 6793   0.246   0.386   1.786 -0.1082  1.3488  0.2983
  755ETH     HC 6794   0.361   0.476   1.887 -0.2019  0.3109  0.2306
  755ETH     HC 6795   0.414   0.350   1.767  0.8504  0.7242  0.5082
  756ETH     OH 6796   5.996   2.227   5.863  0.1453  0.2092 -0.3828
  756ETH     CH 6797   5.956   2.098   5.904  0.3446  0.2410 -0.0898
  756ETH     CH 6798   6.082   2.013   5.917  0.3871  0.2406 -0.5037
  756ETH     HO 6799   6.035   2.216   5.778  2.3566 -0.9366  0.7612
  756ETH     HC 6800   5.909   2.109   6.002 -0.4597  1.5052 -0.6089
  756ETH     HC 6801   5.874   2.059   5.844 -0.0648 -0.5978  0.9935
  756ETH     HC 6802   6.120   1.984   5.818 -3.1537 -1.6258 -1.3818
  756ETH     HC 6803   6.161   2.061   5.974  2.1258 -0.2798 -2.3958
  756ETH     HC 6804   6.066   1.914   5.959  1.0719  0.2773 -0.1550
  757ETH     OH 6805   0.500   3.289   2.452 -0.2928  0.0071 -0.3177
  757ETH     CH 6806   0.520   3.198   2.557  0.3894  0.4411 -0.0707
  757ETH     CH 6807   0.439   3.238   2.681  0.1499  0.0059 -0.0861
  757ETH     HO 6808   0.562   3.267   2.384 -1.0135  1.9027 -1.6483
  757ETH     HC 6809   0.520   3.097   2.518 -0.5105  0.5065 -0.2487
  757ETH     HC 6810   0.626   3.216   2.575  0.4174 -0.2930  0.5149
  757ETH     HC 6811   0.332   3.231   2.661  0.0528  0.0504  0.4305
  757ETH     HC 6812   0.463   3.177   2.767 -0.5816 -1.8611 -1.1814
  757ETH     HC 6813   0.462   3.340   2.713  1.3124  0.4190 -2.0939
  758ETH     OH 6814   2.165   3.476   5.327  0.0503  0.5089  0.2287
  758ETH     CH 6815   2.228   3.396   5.230  0.1486  0.2260  0.5248
  758ETH     CH 6816   2.122   3.320   5.150  0.3955  0.0732  0.3430
  758ETH     HO 6817   2.226   3.540   5.361 -1.3293  1.8400  0.2478
  758ETH     HC 6818   2.277   3.459   5.156  1.1192 -1.3191 -0.1788
  758ETH     HC 6819   2.299   3.326   5.274 -0.1273 -0.4988 -0.1597
  758ETH     HC 6820   2.077   3.245   5.215  2.2954 -0.1595  1.4438
  758ETH     HC 6821   2.059   3.394   5.101 -1.1231 -0.1004  2.0015
  758ETH     HC 6822   2.165   3.265   5.066  1.3120  0.9736  0.2245
  759ETH     OH 6823   2.051   2.568   0.982 -0.0624 -0.2672  0.0668
  759ETH     CH 6824   2.120   2.447   1.005  0.2631 -0.1021 -0.0450
  759ETH     CH 6825   2.243   2.466   0.915  0.0704  1.0427 -0.0760
  759ETH     HO 6826   1.962   2.560   1.014 -0.8800  1.7269 -1.5740
  759ETH     HC 6827   2.153   2.440   1.109 -0.4714  0.3645  0.2234
  759ETH     HC 6828   2.060   2.360   0.981 -0.2559 -0.0361  1.0116
  759ETH     HC 6829   2.307   2.549   0.944 -1.3517  1.4766  1.9427
  759ETH     HC 6830   2.303   2.376   0.902  1.6409  2.0502  0.1046
  759ETH     HC 6831   2.212   2.505   0.818 -1.7608 -0.2855 -0.0545
  760ETH     OH 6832   2.642   1.356   1.464 -0.0271 -0.0360  0.2272
  760ETH     CH 6833   2.596   1.313   1.337  0.2642 -0.2100  0.1792
  760ETH     CH 6834   2.469   1.391   1.304  0.3280 -0.3501 -0.3959
  760ETH     HO 6835   2.663   1.448   1.461 -1.3033  0.2208 -2.0662
  760ETH     HC 6836   2.661   1.325   1.251 -0.3780 -0.4372 -0.3363
  760ETH     HC 6837   2.571   1.207   1.341  0.2084 -0.1407  2.5880
  760ETH     HC 6838   2.434   1.337   1.216  0.1840 -0.9690  0.0414
  760ETH     HC 6839   2.389   1.382   1.377 -1.5660  2.2182 -2.0697
  760ETH     HC 6840   2.477   1.499   1.288 -1.0211  0.0597  1.5013
  761ETH     OH 6841   5.697   3.489   3.324 -0.0285 -0.2947 -0.1993
  761ETH     CH 6842   5.687   3.362   3.384  0.0232  0.0751  0.5869
  761ETH     CH 6843   5.659   3.248   3.286 -0.8786  0.9081 -0.1339
  761ETH     HO 6844   5.688   3.547   3.398 -1.8710  2.0341 -2.1557
  761ETH     HC 6845   5.760   3.341   3.462  0.3007 -1.7527 -0.1286
  761ETH     HC 6846   5.603   3.353   3.454 -0.0883  0.2044  0.4691
  761ETH     HC 6847   5.676   3.150   3.331  1.8920  0.0630 -2.8551
  761ETH     HC 6848   5.573   3.246   3.219 -1.3804 -0.6820  0.5430
  761ETH     HC 6849   5.750   3.247   3.226 -0.7273 -0.3908  0.1069
  762ETH     OH 6850   4.438   3.893   0.696  0.3744  0.5738 -0.2722
  762ETH     CH 6851   4.575   3.920   0.676  0.3216  0.7660 -0.3792
  762ETH     CH 6852   4.614   4.027   0.776 -0.2340  0.3181  0.3247
  762ETH     HO 6853   4.426   3.822   0.634 -0.4955 -1.0857  1.7219
  762ETH     HC 6854   4.647   3.839   0.685  0.3652  0.7937 -0.4756
  762ETH     HC 6855   4.587   3.963   0.577 -0.1419  0.0681 -0.7505
  762ETH     HC 6856   4.716   4.067   0.772 -0.3635  0.3987 -3.0949
  762ETH     HC 6857   4.556   4.114   0.747 -0.4835  0.2392  0.5908
  762ETH     HC 6858   4.593   4.006   0.881  4.7294 -1.8539  1.0322
  763ETH     OH 6859   4.252   5.084   0.800 -0.4244  0.3648  0.0421
  763ETH     CH 6860   4.116   5.077   0.766 -0.4589  0.0597  0.2327
  763ETH     CH 6861   4.083   5.225   0.744  0.2804  0.1957  0.0358
  763ETH     HO 6862   4.298   5.131   0.732 -0.0705 -0.4030 -0.2586
  763ETH     HC 6863   4.104   5.022   0.672  2.4207  0.8674 -0.6508
  763ETH     HC 6864   4.063   5.029   0.848 -1.3590  0.5347 -0.0600
  763ETH     HC 6865   3.975   5.235   0.732  0.3500  1.4608  0.3513
  763ETH     HC 6866   4.116   5.283   0.830 -0.3049 -2.0077  1.8034
  763ETH     HC 6867   4.134   5.264   0.656  0.3518  1.7185  0.7338
  764ETH     OH 6868   1.344   3.148   2.095 -0.0391  0.0951  0.3216
  764ETH     CH 6869   1.402   3.268   2.048  0.0760 -0.2935 -0.5316
  764ETH     CH 6870   1.285   3.352   1.995  0.4170  0.8997  0.5927
  764ETH     HO 6871   1.340   3.149   2.189 -3.0115  2.5873  0.2506
  764ETH     HC 6872   1.456   3.313   2.131 -0.4792 -1.3709  0.4237
  764ETH     HC 6873   1.467   3.252   1.962  1.1924  0.1315  0.2234
  764ETH     HC 6874   1.207   3.361   2.070  0.8594  0.0595  1.1626
  764ETH     HC 6875   1.309   3.455   1.970  1.8396  1.2126  3.0703
  764ETH     HC 6876   1.252   3.318   1.897  1.0291 -1.2753  1.1009
  765ETH     OH 6877   3.813   1.860   6.041  0.0926  0.4123 -0.7125
  765ETH     CH 6878   3.793   1.995   6.076  0.2499  0.4148 -0.6354
  765ETH     CH 6879   3.789   2.090   5.956 -0.0063  0.5954 -0.4818
  765ETH     HO 6880   3.906   1.850   6.033 -0.0261  0.7883 -2.9236
  765ETH     HC 6881   3.707   1.989   6.141  1.7240  1.8945  1.5241
  765ETH     HC 6882   3.869   2.031   6.145  0.4131  1.7159 -1.4618
  765ETH     HC 6883   3.891   2.088   5.917 -0.5668 -1.5420 -1.9536
  765ETH     HC 6884   3.726   2.053   5.875  1.0025  3.2504 -2.5592
  765ETH     HC 6885   3.756   2.190   5.986  0.5167  2.0290 -4.4017
  766ETH     OH 6886   0.453   4.888   4.938 -0.1573 -0.1980  0.1208
  766ETH     CH 6887   0.452   4.750   4.909 -0.4486 -0.2516  0.3831
  766ETH     CH 6888   0.369   4.659   4.999 -0.8520  0.0972  0.3669
  766ETH     HO 6889   0.525   4.926   4.891 -1.7703  0.4925 -1.8756
  766ETH     HC 6890   0.411   4.738   4.808 -0.0731  0.1715  0.1779
  766ETH     HC 6891   0.555   4.716   4.909 -1.3079 -3.0476  0.1992
  766ETH     HC 6892   0.353   4.559   4.958 -1.6245  0.4662 -0.2582
  766ETH     HC 6893   0.426   4.653   5.092 -0.1252 -0.4476 -0.1016
  766ETH     HC 6894   0.277   4.716   5.011  0.2526  1.8855  0.3762
  767ETH     OH 6895   1.180   0.663   0.867  0.1694  0.2353  0.0763
  767ETH     CH 6896   1.250   0.543   0.889 -0.5428 -0.1805  0.0709
  767ETH     CH 6897   1.312   0.505   0.755 -0.5290  0.8354 -0.2128
  767ETH     HO 6898   1.160   0.700   0.951 -0.5951  0.0012 -0.0041
  767ETH     HC 6899   1.334   0.552   0.958 -0.0905  0.1696 -0.5294
  767ETH     HC 6900   1.169   0.473   0.913 -1.5035  0.7122 -0.5379
  767ETH     HC 6901   1.230   0.501   0.682 -1.4713  0.4148  0.8577
  767ETH     HC 6902   1.384   0.578   0.719  0.4631  0.8042  1.6621
  767ETH     HC 6903   1.365   0.410   0.760  1.6279  2.0135 -0.4458
  768ETH     OH 6904   4.786   2.405   5.655 -0.2027 -0.4326  0.4408
  768ETH     CH 6905   4.786   2.501   5.758 -0.2083 -0.1808  0.2069
  768ETH     CH 6906   4.797   2.636   5.688 -0.3420  0.1047  0.7380
  768ETH     HO 6907   4.796   2.318   5.692 -1.0727 -0.9377 -0.4942
  768ETH     HC 6908   4.689   2.499   5.809  0.0584 -2.2222  0.6654
  768ETH     HC 6909   4.852   2.477   5.841 -0.1163 -1.1638 -0.1453
  768ETH     HC 6910   4.897   2.648   5.646 -0.6343  0.5097  0.1569
  768ETH     HC 6911   4.736   2.664   5.602 -0.4218  1.7112  1.2825
  768ETH     HC 6912   4.793   2.715   5.764  1.3863  1.2371 -0.3086
  769ETH     OH 6913   1.637   6.109   1.040 -0.1875 -0.0352  0.1114
  769ETH     CH 6914   1.659   6.164   1.168  0.6421 -0.6937  0.2574
  769ETH     CH 6915   1.751   6.285   1.174 -0.5576  0.2130  0.6342
  769ETH     HO 6916   1.615   6.017   1.044  1.3921 -0.4700 -0.6306
  769ETH     HC 6917   1.570   6.194   1.224  0.6558 -0.5205  0.1869
  769ETH     HC 6918   1.701   6.079   1.221  0.6003  0.9790  3.0502
  769ETH     HC 6919   1.697   6.367   1.126  0.6652 -1.2601 -3.4629
  769ETH     HC 6920   1.779   6.318   1.274  0.4252 -0.7851  0.7032
  769ETH     HC 6921   1.846   6.285   1.120 -1.2015 -1.4524 -0.5179
  770ETH     OH 6922   5.208   1.626   1.710  0.0197  0.4582 -0.0329
  770ETH     CH 6923   5.230   1.672   1.579  0.4999  0.0621 -0.0917
  770ETH     CH 6924   5.104   1.690   1.494  0.5236  0.1917 -0.1011
  770ETH     HO 6925   5.293   1.616   1.750 -0.2532 -0.5484  0.3150
  770ETH     HC 6926   5.283   1.767   1.582 -0.7705  0.8582 -2.0002
  770ETH     HC 6927   5.297   1.604   1.527 -0.2088 -1.5721  1.0969
  770ETH     HC 6928   5.045   1.600   1.509  1.2975 -0.3801 -0.4659
  770ETH     HC 6929   5.044   1.774   1.530 -0.5245 -0.7288  0.3185
  770ETH     HC 6930   5.137   1.690   1.391 -0.6309 -0.9102 -0.4816
  771ETH     OH 6931   3.356   0.391   1.136 -0.2107  0.3895  0.5731
  771ETH     CH 6932   3.466   0.460   1.080 -0.3671  0.0079 -0.2055
  771ETH     CH 6933   3.411   0.574   0.994  0.3515  0.4727 -0.0470
  771ETH     HO 6934   3.302   0.362   1.065 -1.2642  0.3662  1.3802
  771ETH     HC 6935   3.539   0.496   1.151 -0.0538 -1.0509  0.0204
  771ETH     HC 6936   3.511   0.382   1.017  1.3388  1.2809 -0.5907
  771ETH     HC 6937   3.488   0.621   0.933  1.1038  0.5305  0.9248
  771ETH     HC 6938   3.337   0.537   0.923  1.6690 -2.8005  0.1983
  771ETH     HC 6939   3.370   0.662   1.043  0.8319  0.7308 -0.1028
  772ETH     OH 6940   0.667   5.517   1.103 -0.2628 -0.1202  0.2144
  772ETH     CH 6941   0.692   5.387   1.054  0.0801 -0.2389  0.6928
  772ETH     CH 6942   0.703   5.392   0.901  0.0527  0.4098  0.7106
  772ETH     HO 6943   0.643   5.511   1.194 -2.1263  0.4179 -0.2284
  772ETH     HC 6944   0.785   5.346   1.093  1.2470  1.5608 -0.1446
  772ETH     HC 6945   0.613   5.311   1.063  1.0884 -1.4909 -0.7627
  772ETH     HC 6946   0.605   5.419   0.863 -0.6226 -2.3375  0.3661
  772ETH     HC 6947   0.774   5.469   0.871 -0.2761  0.8169  0.9762
  772ETH     HC 6948   0.738   5.299   0.856 -0.6748  1.4012 -2.0022
  773ETH     OH 6949   0.585   5.942   3.102 -0.4072  0.6078 -0.0283
  773ETH     CH 6950   0.661   5.863   3.191 -0.1171  0.1864 -0.6448
  773ETH     CH 6951   0.575   5.745   3.237 -0.1781  0.2818 -0.5144
  773ETH     HO 6952   0.548   5.886   3.036 -2.9607 -1.5082  2.9904
  773ETH     HC 6953   0.753   5.836   3.139  1.1800 -0.0429  1.6750
  773ETH     HC 6954   0.692   5.915   3.282 -0.3103  0.0343 -0.4911
  773ETH     HC 6955   0.498   5.781   3.305  0.8201 -1.9280  1.9122
  773ETH     HC 6956   0.515   5.699   3.159 -1.9457  1.6345  0.0238
  773ETH     HC 6957   0.635   5.670   3.288 -0.1324 -0.0692 -1.0762
  774ETH     OH 6958   6.168   4.117   2.271 -0.2982 -0.0929 -0.2717
  774ETH     CH 6959   6.287   4.059   2.222 -0.1174  0.0087  0.0462
  774ETH     CH 6960   6.364   4.159   2.135 -0.1398  0.0783  0.1056
  774ETH     HO 6961   6.125   4.169   2.205 -1.9878 -1.1952 -0.0526
  774ETH     HC 6962   6.351   4.044   2.309 -1.1610 -0.5336  0.7349
  774ETH     HC 6963   6.252   3.965   2.180 -0.4044  0.0072  0.2960
  774ETH     HC 6964   6.464   4.123   2.113 -0.9220 -2.7808  1.0187
  774ETH     HC 6965   6.304   4.186   2.048 -0.0799 -0.2549 -0.0412
  774ETH     HC 6966   6.390   4.241   2.201  0.8095 -0.2631  0.1611
  775ETH     OH 6967   5.886   2.558   1.913  0.0606  0.3933 -0.0512
  775ETH     CH 6968   5.762   2.584   1.976  0.0551 -0.4011  0.2797
  775ETH     CH 6969   5.743   2.736   1.978 -0.2511 -0.4372  0.0845
  775ETH     HO 6970   5.888   2.465   1.894 -2.8053  0.3630 -0.4387
  775ETH     HC 6971   5.686   2.534   1.916 -1.0360  1.7753 -0.2291
  775ETH     HC 6972   5.751   2.545   2.077  1.4365  1.2749  1.1129
  775ETH     HC 6973   5.810   2.799   2.035 -0.5320  0.5003 -0.6085
  775ETH     HC 6974   5.749   2.792   1.885 -0.1325 -0.2144  0.2269
  775ETH     HC 6975   5.645   2.762   2.019 -0.4612 -0.8375 -0.1581
  776ETH     OH 6976   4.302   1.360   1.067 -0.2000  0.2474 -0.1265
  776ETH     CH 6977   4.186   1.311   1.003 -0.2266  0.2840 -0.1060
  776ETH     CH 6978   4.071   1.412   0.996 -0.3046  0.2303  0.3369
  776ETH     HO 6979   4.348   1.421   1.012 -1.3590  2.4854  1.3201
  776ETH     HC 6980   4.217   1.287   0.902 -0.5717  2.4264 -0.7584
  776ETH     HC 6981   4.142   1.221   1.047  1.6450  0.1578  1.5629
  776ETH     HC 6982   4.004   1.371   0.920 -0.1712  2.2734 -0.9290
  776ETH     HC 6983   4.017   1.427   1.089 -0.8999 -2.5802  0.4850
  776ETH     HC 6984   4.114   1.508   0.967 -2.8334  1.6778  1.2293
  777ETH     OH 6985   5.036   0.694   0.903 -0.0608 -0.2488 -0.3010
  777ETH     CH 6986   4.923   0.772   0.935 -0.2511 -0.7774  0.3240
  777ETH     CH 6987   4.787   0.709   0.902 -0.3875 -0.4688  0.3008
  777ETH     HO 6988   5.089   0.687   0.981 -2.5243 -0.9839  1.3786
  777ETH     HC 6989   4.915   0.783   1.043 -1.4784  0.8834  0.0746
  777ETH     HC 6990   4.933   0.876   0.906  0.6473 -1.3955 -1.6955
  777ETH     HC 6991   4.710   0.776   0.941 -1.6017 -1.2816 -0.6629
  777ETH     HC 6992   4.777   0.686   0.796 -1.3786 -0.8819  0.4734
  777ETH     HC 6993   4.769   0.613   0.951  0.1226 -0.3934  0.6366
  778ETH     OH 6994   4.649   3.674   2.722 -0.4506  0.2263 -0.0970
  778ETH     CH 6995   4.552   3.770   2.756 -0.6003 -0.0909  0.3649
  778ETH     CH 6996   4.583   3.840   2.889  0.1947 -0.1137  0.1900
  778ETH     HO 6997   4.618   3.626   2.647  2.7714  1.4479 -2.3069
  778ETH     HC 6998   4.561   3.841   2.674  0.1588  0.6462  1.0638
  778ETH     HC 6999   4.451   3.729   2.754 -0.8477  0.5119  0.4606
  778ETH     HC 7000   4.567   3.777   2.976 -2.8962  1.2676  0.6727
  778ETH     HC 7001   4.681   3.886   2.876 -0.4398  0.7482 -1.9290
  778ETH     HC 7002   4.515   3.925   2.896  1.7334  1.1340  0.2359
  779ETH     OH 7003   1.763   1.912   4.483 -0.3265 -0.0787 -0.0879
  779ETH     CH 7004   1.732   1.853   4.607 -0.2706  0.0123 -0.0309
  779ETH     CH 7005   1.748   1.953   4.721  0.0629 -0.0177 -0.0494
  779ETH     HO 7006   1.851   1.885   4.464  0.2234  0.7096  1.2925
  779ETH     HC 7007   1.633   1.808   4.598 -0.0184 -0.2558 -1.6464
  779ETH     HC 7008   1.791   1.762   4.609 -1.9129 -1.2098 -3.0168
  779ETH     HC 7009   1.846   2.000   4.727 -0.2582  0.3200  4.2965
  779ETH     HC 7010   1.678   2.036   4.711  0.8683  1.0142  2.5497
  779ETH     HC 7011   1.723   1.898   4.812 -1.8854 -0.7227 -0.9835
  780ETH     OH 7012   1.080   5.545   2.672  0.2832  0.2544 -0.0146
  780ETH     CH 7013   0.952   5.602   2.691  0.0117 -0.2791 -0.2219
  780ETH     CH 7014   0.926   5.685   2.565  0.2694  0.6843  0.3554
  780ETH     HO 7015   1.092   5.472   2.731 -1.8654 -1.4673 -1.6173
  780ETH     HC 7016   0.881   5.520   2.700 -1.8328  1.2454 -0.8156
  780ETH     HC 7017   0.935   5.665   2.778 -0.5877 -0.1401 -0.4429
  780ETH     HC 7018   0.946   5.622   2.479  0.9433  0.4559  0.6755
  780ETH     HC 7019   0.825   5.721   2.547  1.4890  2.4970 -3.1832
  780ETH     HC 7020   0.998   5.765   2.549 -0.0033  0.3301 -2.9245
  781ETH     OH 7021   0.100   1.107   3.185  0.3133 -0.1718  0.3211
  781ETH     CH 7022   0.105   0.996   3.099  0.0716  0.0159  0.0639
  781ETH     CH 7023  -0.005   0.891   3.117  0.0259  0.2374  1.1073
  781ETH     HO 7024   0.084   1.082   3.275 -0.8539  1.2853  0.5379
  781ETH     HC 7025   0.097   1.033   2.997 -2.8377  0.1033  0.2875
  781ETH     HC 7026   0.202   0.947   3.109 -0.7405 -1.8821 -1.0010
  781ETH     HC 7027   0.009   0.820   3.035 -0.7834 -0.9069  1.9438
  781ETH     HC 7028   0.007   0.827   3.204 -0.2304 -0.8706  0.3507
  781ETH     HC 7029  -0.100   0.943   3.127 -0.3400 -0.0135 -0.7363
  782ETH     OH 7030   4.993   5.202   1.832 -0.1181  0.5999 -0.1492
  782ETH     CH 7031   4.929   5.296   1.915 -0.5907  0.1838 -0.0441
  782ETH     CH 7032   4.989   5.433   1.882 -0.2806  0.0922  0.1407
  782ETH     HO 7033   4.937   5.192   1.757  1.0006  3.0482 -1.3946
  782ETH     HC 7034   4.821   5.285   1.928 -0.4677 -0.5673  0.3816
  782ETH     HC 7035   4.961   5.266   2.015  0.5364  0.1395 -0.4217
  782ETH     HC 7036   5.094   5.431   1.912  0.2546  0.9096 -1.6417
  782ETH     HC 7037   4.986   5.464   1.778 -2.4607  3.6365  1.1791
  782ETH     HC 7038   4.938   5.507   1.943 -0.2128  0.7581 -0.6023
  783ETH     OH 7039   6.256   6.283   1.642 -0.1768 -0.2882  0.1083
  783ETH     CH 7040   6.159   6.356   1.714 -0.2597 -0.4061  0.1156
  783ETH     CH 7041   6.211   6.409   1.847  0.0355  0.5484 -0.3780
  783ETH     HO 7042   6.258   6.193   1.670  1.2913 -0.7147 -1.2873
  783ETH     HC 7043   6.132   6.448   1.662  0.2776 -0.8668 -0.9914
  783ETH     HC 7044   6.077   6.286   1.732 -0.0393 -1.0831 -1.4089
  783ETH     HC 7045   6.138   6.473   1.896 -0.8977  0.1319 -1.2196
  783ETH     HC 7046   6.239   6.328   1.915 -0.7685  0.9956  0.5061
  783ETH     HC 7047   6.290   6.482   1.827  1.7979 -0.8211  1.4078
  784ETH     OH 7048   1.284   2.004   3.329  0.3319  0.0500  1.2676
  784ETH     CH 7049   1.248   2.131   3.281 -0.4207 -0.3146  0.8578
  784ETH     CH 7050   1.371   2.205   3.229 -0.8180 -0.2034  0.0773
  784ETH     HO 7051   1.201   1.960   3.334 -0.6251  1.5357 -0.9737
  784ETH     HC 7052   1.169   2.109   3.210 -0.9112  0.3021  1.1958
  784ETH     HC 7053   1.208   2.176   3.373  1.1416 -0.3573  1.5824
  784ETH     HC 7054   1.351   2.311   3.216 -0.4904 -0.2151 -0.5821
  784ETH     HC 7055   1.448   2.204   3.306 -0.2096  2.1572 -0.4437
  784ETH     HC 7056   1.419   2.169   3.138  1.0585  0.0305  0.9490
  785ETH     OH 7057   0.489   2.966   1.529 -0.2887 -0.3788 -0.4116
  785ETH     CH 7058   0.512   3.028   1.654 -0.1496 -0.9108 -0.1695
  785ETH     CH 7059   0.513   2.917   1.759  0.5399 -0.3138  0.4594
  785ETH     HO 7060   0.517   3.030   1.466  0.0089 -1.0617 -0.9858
  785ETH     HC 7061   0.608   3.078   1.663  0.0147 -1.1767 -0.4329
  785ETH     HC 7062   0.446   3.111   1.678 -1.1069 -1.8539  0.4768
  785ETH     HC 7063   0.414   2.878   1.781 -0.8665  1.7591 -1.9043
  785ETH     HC 7064   0.582   2.834   1.745  2.0524  1.4283 -2.8664
  785ETH     HC 7065   0.533   2.962   1.857  2.7236  0.5080 -0.3341
  786ETH     OH 7066   5.196   2.994   3.098  0.9677 -0.1604 -0.0214
  786ETH     CH 7067   5.290   2.921   3.022  0.1240 -0.9494 -0.3205
  786ETH     CH 7068   5.421   2.917   3.102 -0.3033  0.3907  0.4618
  786ETH     HO 7069   5.110   2.956   3.105  0.1790  1.1097 -2.2614
  786ETH     HC 7070   5.244   2.825   3.002 -2.0205 -0.1193  0.5470
  786ETH     HC 7071   5.299   2.959   2.920 -1.3820 -0.2195 -0.1810
  786ETH     HC 7072   5.406   2.873   3.200  0.3713  0.2762  0.5174
  786ETH     HC 7073   5.492   2.852   3.052 -2.2592 -2.2139  0.9758
  786ETH     HC 7074   5.472   3.013   3.109 -0.8576  0.5704  2.2485
  787ETH     OH 7075   3.164   3.036   2.303 -0.3570  0.6381  0.1368
  787ETH     CH 7076   3.289   3.040   2.238 -0.0879 -0.5433  0.5765
  787ETH     CH 7077   3.390   3.085   2.344  0.1701  0.2943 -0.0190
  787ETH     HO 7078   3.153   3.126   2.327 -3.0534  0.0343  1.3074
  787ETH     HC 7079   3.302   2.937   2.203 -1.9637 -0.9969  1.1502
  787ETH     HC 7080   3.284   3.106   2.152  2.7775  1.8681  2.1711
  787ETH     HC 7081   3.362   3.188   2.367  3.9629  1.8244 -1.8747
  787ETH     HC 7082   3.407   3.016   2.427 -1.4394  1.2475  1.1463
  787ETH     HC 7083   3.485   3.095   2.292  0.5279 -1.9359  0.1350
  788ETH     OH 7084   0.704   2.223   1.389 -0.1652 -0.0388  0.0712
  788ETH     CH 7085   0.747   2.279   1.267  0.7190 -0.0559  0.3717
  788ETH     CH 7086   0.846   2.199   1.184 -0.2212 -1.3112  0.4387
  788ETH     HO 7087   0.616   2.254   1.404  0.6271  3.0134 -1.2591
  788ETH     HC 7088   0.652   2.268   1.214  1.4402 -1.3918 -0.6482
  788ETH     HC 7089   0.783   2.382   1.275 -0.9175  0.4297  2.0168
  788ETH     HC 7090   0.861   2.250   1.089 -4.0157 -0.4658  0.2311
  788ETH     HC 7091   0.952   2.210   1.210  0.1328 -2.0217 -0.6615
  788ETH     HC 7092   0.805   2.099   1.169 -1.1897 -0.9197  0.4575
  789ETH     OH 7093   0.084   4.901   4.862 -0.0915 -0.1764  0.5161
  789ETH     CH 7094  -0.039   4.883   4.929 -0.2917  0.1803  0.2409
  789ETH     CH 7095  -0.122   4.767   4.874 -0.0406 -0.1434  0.5494
  789ETH     HO 7096   0.136   4.954   4.921 -1.1649 -0.1769  1.4807
  789ETH     HC 7097  -0.011   4.860   5.031  2.6787  0.1839 -0.5298
  789ETH     HC 7098  -0.093   4.978   4.939  0.6838  0.8789 -0.8585
  789ETH     HC 7099  -0.071   4.671   4.872 -1.8122 -1.1069  0.4932
  789ETH     HC 7100  -0.218   4.759   4.924 -0.7988 -1.4494 -1.0756
  789ETH     HC 7101  -0.141   4.804   4.773  0.2867 -0.0702  0.5142
  790ETH     OH 7102   0.247   4.525   5.334  0.0046 -0.1198 -0.0620
  790ETH     CH 7103   0.110   4.560   5.338  0.0404 -0.0017  0.1212
  790ETH     CH 7104   0.062   4.563   5.193  0.2112 -0.5215  0.0513
  790ETH     HO 7105   0.243   4.439   5.294  0.3687 -0.0961 -0.1501
  790ETH     HC 7106   0.056   4.475   5.379  0.8004 -0.9396 -0.7969
  790ETH     HC 7107   0.092   4.650   5.397 -1.3012 -1.1582  1.5443
  790ETH     HC 7108   0.074   4.464   5.150 -0.3338  0.0291 -1.3814
  790ETH     HC 7109  -0.041   4.599   5.184  0.5228 -0.3035 -3.2565
  790ETH     HC 7110   0.107   4.644   5.135 -1.6270  0.4301 -0.0830
  791ETH     OH 7111   3.046   2.890   5.049  0.2017 -0.0708 -0.2497
  791ETH     CH 7112   3.157   2.966   5.091  0.0098  0.0843 -0.0245
  791ETH     CH 7113   3.139   2.997   5.240  0.2645  0.5176 -0.0825
  791ETH     HO 7114   3.076   2.826   4.986  0.9064 -0.3830  0.3888
  791ETH     HC 7115   3.254   2.920   5.074 -0.4205 -0.9175  0.2316
  791ETH     HC 7116   3.165   3.054   5.027  0.2174  0.3057  0.3000
  791ETH     HC 7117   3.060   3.072   5.250  1.0053  1.3708 -0.5782
  791ETH     HC 7118   3.118   2.909   5.300 -0.3629  1.4396  1.0755
  791ETH     HC 7119   3.227   3.042   5.286  0.5849 -0.7895  0.5894
  792ETH     OH 7120   1.250   5.135   0.088  0.7121  0.2146  0.6339
  792ETH     CH 7121   1.190   5.052   0.185 -0.4498 -0.2372 -0.4475
  792ETH     CH 7122   1.107   5.160   0.253 -0.1423 -0.5072  0.3709
  792ETH     HO 7123   1.332   5.167   0.123  2.1038 -2.3311 -0.1792
  792ETH     HC 7124   1.131   4.975   0.138 -1.5107  2.0391 -2.9445
  792ETH     HC 7125   1.267   5.007   0.248  0.8679  0.8883 -1.2251
  792ETH     HC 7126   1.166   5.226   0.316 -0.8050  0.9839 -0.5265
  792ETH     HC 7127   1.040   5.216   0.187  2.0321  0.0037 -1.4353
  792ETH     HC 7128   1.036   5.101   0.312 -1.3113  1.8130  1.3862
  793ETH     OH 7129   5.462   4.408   5.303  0.2259 -0.1793  0.3163
  793ETH     CH 7130   5.486   4.507   5.401  0.3066  0.2325 -0.1160
  793ETH     CH 7131   5.391   4.626   5.389 -0.2475 -0.1932  0.0282
  793ETH     HO 7132   5.491   4.444   5.221  0.3452 -1.6291 -0.2829
  793ETH     HC 7133   5.481   4.468   5.503  0.4543 -1.7060 -0.8392
  793ETH     HC 7134   5.586   4.546   5.382  0.0650  1.1076  0.3584
  793ETH     HC 7135   5.290   4.617   5.430 -0.9665  0.1270 -1.6251
  793ETH     HC 7136   5.439   4.711   5.437  1.3572  0.6551 -2.9399
  793ETH     HC 7137   5.380   4.653   5.284  0.8670 -1.9697 -0.5723
  794ETH     OH 7138   4.483   2.000   4.719 -0.1667  0.0509 -0.3717
  794ETH     CH 7139   4.502   2.133   4.676  0.1277  0.2312  0.3062
  794ETH     CH 7140   4.532   2.136   4.526 -0.0475  0.3777  0.2741
  794ETH     HO 7141   4.474   2.006   4.813  3.1872 -0.6910  0.0476
  794ETH     HC 7142   4.406   2.175   4.707 -0.4086 -0.5693 -0.2482
  794ETH     HC 7143   4.581   2.181   4.733 -0.7266  1.6717  0.3012
  794ETH     HC 7144   4.632   2.094   4.513 -0.8483 -2.1380  1.8685
  794ETH     HC 7145   4.466   2.077   4.463 -3.0790  2.1260  1.6804
  794ETH     HC 7146   4.536   2.240   4.494  0.3933  0.5766  0.9618
  795ETH     OH 7147   1.747   3.001   3.368  0.2162  0.6097 -0.6273
  795ETH     CH 7148   1.739   2.913   3.259 -0.1459 -0.2135  0.0593
  795ETH     CH 7149   1.874   2.856   3.216  0.0503 -0.0257  0.4336
  795ETH     HO 7150   1.747   2.945   3.444 -1.6721  1.0882 -0.2328
  795ETH     HC 7151   1.682   2.825   3.291 -0.3231  0.5725  1.9298
  795ETH     HC 7152   1.688   2.962   3.176  0.4967 -0.1452 -0.2935
  795ETH     HC 7153   1.937   2.821   3.298  2.1100  0.3971 -0.9280
  795ETH     HC 7154   1.852   2.771   3.153  0.2925  1.3478 -1.5402
  795ETH     HC 7155   1.936   2.924   3.157 -1.4331 -0.3115 -1.4884
  796ETH     OH 7156   5.041   0.400   1.486  0.3865  0.0966 -0.4096
  796ETH     CH 7157   4.941   0.302   1.500  0.1481  0.3507 -0.3410
  796ETH     CH 7158   4.903   0.235   1.368 -0.1370  0.2545 -0.2118
  796ETH     HO 7159   5.073   0.423   1.572 -0.3314 -0.9493  0.1509
  796ETH     HC 7160   4.981   0.231   1.573  0.7885 -1.1632 -2.1316
  796ETH     HC 7161   4.863   0.360   1.549  1.4319  0.3700  1.7317
  796ETH     HC 7162   4.987   0.199   1.309  0.3268  0.3788  0.3672
  796ETH     HC 7163   4.819   0.167   1.381  0.3815 -0.2171  0.6902
  796ETH     HC 7164   4.861   0.317   1.309 -0.4476 -0.3251 -0.8043
  797ETH     OH 7165   3.303   0.616   5.387 -0.6359  0.4339  0.7694
  797ETH     CH 7166   3.244   0.488   5.401 -0.1056  0.0897 -0.1192
  797ETH     CH 7167   3.289   0.430   5.535  0.0434  0.2987 -0.0764
  797ETH     HO 7168   3.271   0.642   5.302 -2.1536  0.9487  1.4831
  797ETH     HC 7169   3.138   0.513   5.405 -0.0534  0.8164 -2.1415
  797ETH     HC 7170   3.250   0.420   5.316 -1.5134  3.2374 -2.8734
  797ETH     HC 7171   3.273   0.323   5.519  0.3199  0.4907 -1.8041
  797ETH     HC 7172   3.396   0.431   5.552  0.1074  1.4673 -0.4972
  797ETH     HC 7173   3.230   0.458   5.622 -0.3252 -0.4909 -0.0573
  798ETH     OH 7174   3.686   2.967   2.992 -0.1198  0.3995  0.3018
  798ETH     CH 7175   3.619   2.886   3.087 -0.1492  0.1723  0.0847
  798ETH     CH 7176   3.485   2.946   3.129 -0.0952  0.5147 -0.2283
  798ETH     HO 7177   3.684   3.060   3.012  4.6428  0.4687  0.9521
  798ETH     HC 7178   3.615   2.786   3.042  1.3090  0.0132  0.2885
  798ETH     HC 7179   3.689   2.872   3.169 -0.5190 -1.3213  0.1704
  798ETH     HC 7180   3.509   3.042   3.174 -1.3417  0.7721 -0.1012
  798ETH     HC 7181   3.404   2.956   3.056 -1.0794 -0.9205  0.6316
  798ETH     HC 7182   3.440   2.881   3.204 -2.7161  0.5479 -1.6800
  799ETH     OH 7183   5.018   4.301   0.101  0.2657 -0.6907  0.1362
  799ETH     CH 7184   5.095   4.357   0.205  0.0296 -0.3482  0.1268
  799ETH     CH 7185   5.160   4.238   0.276  0.6782 -0.3870 -0.5167
  799ETH     HO 7186   5.075   4.260   0.038  1.0338 -3.8734  2.7663
  799ETH     HC 7187   5.171   4.424   0.163  1.1295 -0.7825  1.3984
  799ETH     HC 7188   5.040   4.407   0.284  0.3241  0.6382 -0.2769
  799ETH     HC 7189   5.193   4.260   0.378  0.0982  0.9447 -0.6024
  799ETH     HC 7190   5.081   4.165   0.294 -0.0950 -0.3397 -3.5395
  799ETH     HC 7191   5.242   4.199   0.216  2.2083 -1.8905  2.4643
  800ETH     OH 7192   3.254   0.615   1.281 -0.1577  0.6802 -0.1592
  800ETH     CH 7193   3.360   0.679   1.348  0.1842  0.4016 -0.4366
  800ETH     CH 7194   3.343   0.828   1.316  0.0633  0.3646 -0.5435
  800ETH     HO 7195   3.292   0.531   1.263  0.5845  0.7015  1.2327
  800ETH     HC 7196   3.455   0.652   1.302  0.7794  2.1705 -0.2842
  800ETH     HC 7197   3.366   0.666   1.456  1.7358  0.8790 -0.4468
  800ETH     HC 7198   3.315   0.840   1.211  0.3788  1.8665 -0.4617
  800ETH     HC 7199   3.266   0.876   1.376 -0.2771 -1.4335  0.5016
  800ETH     HC 7200   3.444   0.868   1.324 -0.0390  0.3750  0.7314
  801ETH     OH 7201   0.991   3.096   4.628  0.1350 -0.2586  0.2239
  801ETH     CH 7202   1.029   3.013   4.521  0.2085  0.2987 -0.1810
  801ETH     CH 7203   0.908   2.949   4.455  0.3341  0.0957 -0.2156
  801ETH     HO 7204   1.060   3.158   4.645  0.4308 -1.3023  3.2419
  801ETH     HC 7205   1.078   3.087   4.457  1.5514 -1.5163 -1.3184
  801ETH     HC 7206   1.102   2.940   4.556 -1.4066 -1.2335  0.0023
  801ETH     HC 7207   0.827   3.019   4.433 -0.1006 -0.8754 -1.8676
  801ETH     HC 7208   0.945   2.914   4.358  1.9903 -2.5186  1.3204
  801ETH     HC 7209   0.863   2.859   4.498 -1.4701  2.1275  2.3538
  802ETH     OH 7210   0.548   0.160   4.374  0.6918 -0.1335  0.3038
  802ETH     CH 7211   0.606   0.129   4.250  0.4799  0.3539  0.0825
  802ETH     CH 7212   0.652   0.255   4.176  0.3149  0.5581  0.3301
  802ETH     HO 7213   0.529   0.080   4.421 -0.0607 -0.2822 -0.2483
  802ETH     HC 7214   0.681   0.050   4.256 -0.4459 -0.3970  2.0684
  802ETH     HC 7215   0.527   0.081   4.193 -0.1462  0.6209  0.7234
  802ETH     HC 7216   0.707   0.241   4.083  1.2593  0.3524  0.9180
  802ETH     HC 7217   0.572   0.325   4.150  0.7645  0.9071 -0.1063
  802ETH     HC 7218   0.720   0.315   4.236 -0.2944  0.6052  0.9810
  803ETH     OH 7219   0.908   4.696   5.000 -0.6138 -0.4504 -0.1508
  803ETH     CH 7220   0.911   4.820   5.067 -0.2828 -0.5059 -0.0615
  803ETH     CH 7221   1.010   4.905   4.987 -0.3168 -0.2614  0.1544
  803ETH     HO 7222   0.837   4.654   5.046  0.0922 -0.5469  0.8703
  803ETH     HC 7223   0.811   4.861   5.052  0.3024  1.2930  0.8685
  803ETH     HC 7224   0.937   4.809   5.172 -0.7100 -2.7622 -0.1713
  803ETH     HC 7225   0.967   4.916   4.887 -0.5783  0.3899  0.3385
  803ETH     HC 7226   1.018   4.989   5.055 -1.0793 -1.0991  1.2974
  803ETH     HC 7227   1.110   4.864   4.975  0.2713  0.4137  2.4504
  804ETH     OH 7228   2.757   3.430   5.342 -0.1266  0.0476  0.0023
  804ETH     CH 7229   2.755   3.298   5.392 -0.3893  0.1015  0.1363
  804ETH     CH 7230   2.892   3.240   5.427 -0.2318  0.4089  0.0310
  804ETH     HO 7231   2.668   3.460   5.328 -0.3968 -0.6912  0.1205
  804ETH     HC 7232   2.682   3.283   5.471 -0.2728  0.2681  0.2764
  804ETH     HC 7233   2.710   3.239   5.311  0.1999  1.1502 -0.9763
  804ETH     HC 7234   2.938   3.298   5.507  0.9981  0.9759 -1.0680
  804ETH     HC 7235   2.878   3.138   5.462  2.5409  0.0511  0.2228
  804ETH     HC 7236   2.963   3.230   5.346  0.2264  0.2221  0.4534
  805ETH     OH 7237   0.758   5.933   6.069 -0.0155 -0.0445  0.5361
  805ETH     CH 7238   0.648   6.013   6.106  0.1152  0.5234 -0.2897
  805ETH     CH 7239   0.600   6.103   5.991 -0.3780  0.3901 -0.1908
  805ETH     HO 7240   0.818   5.989   6.022  0.0236 -0.8014 -0.3247
  805ETH     HC 7241   0.564   5.951   6.138  0.0049  0.8627  0.0938
  805ETH     HC 7242   0.673   6.073   6.194  0.2290 -1.0260  0.7427
  805ETH     HC 7243   0.683   6.172   5.977 -0.1583  0.1982  0.1595
  805ETH     HC 7244   0.601   6.051   5.895  0.1221  0.7276 -0.3680
  805ETH     HC 7245   0.509   6.155   6.021 -1.5303 -1.3342 -0.6013
  806ETH     OH 7246   3.451   3.110   3.484  0.1907 -0.1784  0.1036
  806ETH     CH 7247   3.447   3.215   3.389 -0.4600 -0.3821 -0.0911
  806ETH     CH 7248   3.323   3.225   3.300 -0.2680 -0.0613 -0.3212
  806ETH     HO 7249   3.416   3.149   3.562 -0.7343 -1.4298  0.3194
  806ETH     HC 7250   3.454   3.306   3.448 -4.0620 -0.6802  0.9239
  806ETH     HC 7251   3.529   3.200   3.319  0.5387 -0.3805  1.0762
  806ETH     HC 7252   3.313   3.120   3.274  0.2709 -0.2426  0.1844
  806ETH     HC 7253   3.233   3.271   3.342  0.0920  1.3202 -1.0268
  806ETH     HC 7254   3.346   3.288   3.214 -1.9574  0.7325 -0.2209
  807ETH     OH 7255   2.643   3.036   3.491 -0.0082  0.1714 -0.1715
  807ETH     CH 7256   2.521   3.049   3.422 -0.0550  0.6851  0.0116
  807ETH     CH 7257   2.438   2.923   3.443  0.0094  0.6078 -0.1948
  807ETH     HO 7258   2.633   3.027   3.584 -0.9175 -0.0189 -0.2801
  807ETH     HC 7259   2.465   3.129   3.470  0.4439  1.2002 -0.2451
  807ETH     HC 7260   2.533   3.084   3.319  2.5067 -1.1708 -0.3667
  807ETH     HC 7261   2.469   2.838   3.383  0.4289  1.0296 -0.5804
  807ETH     HC 7262   2.435   2.886   3.545  2.7651 -0.9733 -0.6462
  807ETH     HC 7263   2.338   2.941   3.404  0.7418 -1.5063 -3.2370
  808ETH     OH 7264   2.899   5.287   1.400 -0.1868  0.0267 -0.2605
  808ETH     CH 7265   2.944   5.227   1.520 -0.5342  0.1342 -0.0760
  808ETH     CH 7266   2.895   5.082   1.527  0.0876 -0.0899 -0.3409
  808ETH     HO 7267   2.805   5.287   1.396 -0.2400 -1.1930  0.7904
  808ETH     HC 7268   3.051   5.239   1.537 -0.1563 -3.9264  0.8305
  808ETH     HC 7269   2.898   5.269   1.609 -0.4033 -0.5808  0.3358
  808ETH     HC 7270   2.789   5.089   1.550  0.1103 -0.2262 -0.1975
  808ETH     HC 7271   2.901   5.025   1.434 -0.0527 -0.3948 -0.1631
  808ETH     HC 7272   2.952   5.036   1.608  0.1224  0.3266 -0.1254
  809ETH     OH 7273   3.506   6.286   1.880  0.0379 -0.0257  0.3348
  809ETH     CH 7274   3.610   6.318   1.969  0.3043 -0.0241  0.0258
  809ETH     CH 7275   3.729   6.222   1.969  0.3273  0.0058 -0.5981
  809ETH     HO 7276   3.436   6.349   1.875  0.0850  0.0516  0.6542
  809ETH     HC 7277   3.631   6.423   1.947  1.5574 -0.1924  0.3528
  809ETH     HC 7278   3.559   6.313   2.065  0.8480  0.4966  0.3459
  809ETH     HC 7279   3.809   6.255   1.903  0.9252 -1.6901 -0.7573
  809ETH     HC 7280   3.766   6.223   2.071  0.9789 -2.7065 -0.7636
  809ETH     HC 7281   3.710   6.116   1.954  0.9250 -1.0504  4.9672
  810ETH     OH 7282   4.120   4.458   0.157  0.4494  0.5627 -0.0759
  810ETH     CH 7283   4.109   4.395   0.031  0.0198  0.2615  0.1113
  810ETH     CH 7284   3.997   4.291   0.031 -0.0589  0.3455  0.4141
  810ETH     HO 7285   4.181   4.527   0.136  0.4412  1.0318  1.3919
  810ETH     HC 7286   4.097   4.470  -0.048  2.3227  1.1886  0.5990
  810ETH     HC 7287   4.203   4.343   0.014  0.2560  0.4261  0.8899
  810ETH     HC 7288   4.015   4.214   0.106  2.8963 -0.4640 -1.0482
  810ETH     HC 7289   3.892   4.321   0.033 -0.4663 -1.0782  1.2393
  810ETH     HC 7290   4.010   4.244  -0.067 -0.7831  0.8690  0.0625
  811ETH     OH 7291   5.656   3.702   3.512  0.6341 -0.3243  0.5060
  811ETH     CH 7292   5.534   3.700   3.584  0.2640  0.0863 -0.1030
  811ETH     CH 7293   5.467   3.562   3.582 -0.2899  0.3530 -0.0086
  811ETH     HO 7294   5.702   3.780   3.538 -1.5001  1.3590 -0.6154
  811ETH     HC 7295   5.547   3.711   3.691 -2.5970 -2.8067  0.6228
  811ETH     HC 7296   5.472   3.777   3.539 -0.2485 -0.1954  0.1228
  811ETH     HC 7297   5.517   3.492   3.649  0.7230  0.0096 -1.0908
  811ETH     HC 7298   5.368   3.567   3.626 -1.3418 -0.6217 -2.1926
  811ETH     HC 7299   5.440   3.506   3.492  2.1645  0.0268 -0.5921
  812ETH     OH 7300   2.926   0.003   2.659  0.1680  0.4452 -0.3308
  812ETH     CH 7301   2.803   0.067   2.633 -0.2672 -0.3421 -0.2421
  812ETH     CH 7302   2.700  -0.034   2.584 -0.1835 -0.6904  0.3010
  812ETH     HO 7303   2.984   0.060   2.707 -0.1637  2.0544 -1.8226
  812ETH     HC 7304   2.778   0.131   2.718  1.3620  1.6038 -1.1902
  812ETH     HC 7305   2.827   0.128   2.546  2.5611  0.6605  1.1750
  812ETH     HC 7306   2.665  -0.111   2.653 -0.3912 -0.7870  0.0889
  812ETH     HC 7307   2.618   0.022   2.539 -0.2352 -1.1945 -0.2341
  812ETH     HC 7308   2.742  -0.095   2.504  0.1825 -0.3929  0.2675
  813ETH     OH 7309   3.374   2.267   2.511 -0.7699  0.0534 -0.2338
  813ETH     CH 7310   3.515   2.273   2.502 -0.7809  0.0052 -0.4560
  813ETH     CH 7311   3.565   2.327   2.636  0.4643 -0.9262 -0.5366
  813ETH     HO 7312   3.345   2.253   2.422 -1.1765 -0.7129  0.0160
  813ETH     HC 7313   3.560   2.179   2.472  1.0730  0.8364 -0.3257
  813ETH     HC 7314   3.541   2.345   2.424 -2.3579 -0.0858 -1.0969
  813ETH     HC 7315   3.533   2.429   2.658 -0.1312 -1.5719  1.7636
  813ETH     HC 7316   3.531   2.263   2.718  3.1154 -1.8427 -0.1263
  813ETH     HC 7317   3.673   2.334   2.637  0.4504 -0.7979  0.3591
  814ETH     OH 7318   3.520   4.896   3.275  0.4597  0.1066  0.1510
  814ETH     CH 7319   3.568   4.814   3.380  0.7400  0.0214 -0.0440
  814ETH     CH 7320   3.623   4.902   3.493 -0.0847  0.2444  0.1805
  814ETH     HO 7321   3.460   4.850   3.218  1.2298 -1.7731  0.8090
  814ETH     HC 7322   3.484   4.753   3.413 -2.6061  3.7097 -1.3162
  814ETH     HC 7323   3.641   4.742   3.343 -0.7560 -1.4843 -0.0789
  814ETH     HC 7324   3.677   4.841   3.565 -0.3284 -0.9738 -0.6380
  814ETH     HC 7325   3.689   4.978   3.452  1.3756  0.5061  2.9069
  814ETH     HC 7326   3.542   4.950   3.549 -0.2587  1.4698 -1.1101
  815ETH     OH 7327   1.047   2.973   0.745  0.0530 -0.6687  0.1941
  815ETH     CH 7328   1.058   2.975   0.885  0.1814 -0.2530  0.1793
  815ETH     CH 7329   1.165   2.874   0.926  0.5543  0.1611  0.2305
  815ETH     HO 7330   1.097   3.049   0.720 -0.4885  0.3819  2.2487
  815ETH     HC 7331   1.078   3.077   0.917 -1.6832 -0.1028  0.9235
  815ETH     HC 7332   0.960   2.944   0.924 -0.6099 -0.6958 -2.1010
  815ETH     HC 7333   1.180   2.859   1.033  1.5319 -2.5590 -0.2345
  815ETH     HC 7334   1.141   2.771   0.898 -0.9954  0.2113  1.3004
  815ETH     HC 7335   1.260   2.889   0.874  0.3992 -0.0060 -0.1041
  816ETH     OH 7336   0.581   1.874   3.101  0.4976 -0.3860  0.0673
  816ETH     CH 7337   0.592   1.977   3.005 -0.0722 -0.6646 -0.3034
  816ETH     CH 7338   0.564   1.931   2.862  1.2897 -0.0361 -0.7754
  816ETH     HO 7339   0.491   1.881   3.128  0.0453 -1.3166 -1.1175
  816ETH     HC 7340   0.521   2.055   3.032  1.9153  1.2143 -0.3235
  816ETH     HC 7341   0.696   2.011   3.006 -0.3536  0.2205 -0.7714
  816ETH     HC 7342   0.478   1.867   2.877  1.0019  0.6926  0.8496
  816ETH     HC 7343   0.547   2.019   2.799 -0.6102  1.2383  1.4139
  816ETH     HC 7344   0.638   1.863   2.821 -1.0103 -2.6688 -0.6545
  817ETH     OH 7345   2.269   2.955   5.569 -0.2919 -0.0867  0.1845
  817ETH     CH 7346   2.373   3.051   5.581 -0.1437 -0.2679  0.3441
  817ETH     CH 7347   2.421   3.083   5.440  0.4471 -0.6969  0.4474
  817ETH     HO 7348   2.193   2.993   5.610 -1.1681 -0.0048 -1.4899
  817ETH     HC 7349   2.344   3.132   5.648  0.2039  1.0994 -1.1534
  817ETH     HC 7350   2.453   3.001   5.635 -0.4711 -0.3084  0.7972
  817ETH     HC 7351   2.341   3.104   5.369  1.5364  0.6221 -0.4119
  817ETH     HC 7352   2.486   3.169   5.454 -0.5573  0.3103 -0.9462
  817ETH     HC 7353   2.476   2.997   5.400  0.0114 -1.0111  0.5233
  818ETH     OH 7354   5.450   2.887   3.676  0.0067 -0.0518  0.2407
  818ETH     CH 7355   5.532   2.834   3.575 -0.4142  0.0107 -0.1321
  818ETH     CH 7356   5.556   2.944   3.471 -0.0534  0.3325  0.2881
  818ETH     HO 7357   5.360   2.886   3.649 -1.1382 -1.2071  3.8558
  818ETH     HC 7358   5.631   2.802   3.608 -1.7931 -1.3902  2.7830
  818ETH     HC 7359   5.477   2.752   3.528  1.0369 -2.2250  1.9930
  818ETH     HC 7360   5.458   2.960   3.426 -1.6541 -0.2723  3.4087
  818ETH     HC 7361   5.583   3.037   3.521 -1.0527  1.6778 -1.5777
  818ETH     HC 7362   5.630   2.907   3.400 -0.8966 -0.6743 -0.0865
  819ETH     OH 7363   3.496   0.208   6.285 -0.5306 -0.5159  0.2164
  819ETH     CH 7364   3.384   0.197   6.370 -0.3101  0.5031  0.6513
  819ETH     CH 7365   3.283   0.309   6.344 -0.8618 -0.1249  0.0667
  819ETH     HO 7366   3.505   0.128   6.235  2.1360  0.1489 -0.4556
  819ETH     HC 7367   3.334   0.101   6.355  0.8446 -0.4957  2.9337
  819ETH     HC 7368   3.421   0.203   6.472 -4.1233 -3.2735  2.4317
  819ETH     HC 7369   3.326   0.403   6.379 -2.0750  0.3644  0.2448
  819ETH     HC 7370   3.259   0.316   6.238  0.1040  1.2376 -0.0778
  819ETH     HC 7371   3.190   0.305   6.400 -0.3310 -2.8304  0.8627
  820ETH     OH 7372   0.807   6.279   2.560  0.3581  0.3736 -0.2043
  820ETH     CH 7373   0.717   6.269   2.451 -0.3213  0.6020  0.3294
  820ETH     CH 7374   0.768   6.365   2.344  0.2575  0.2620  0.2967
  820ETH     HO 7375   0.867   6.207   2.550  0.9718  0.8575 -0.0057
  820ETH     HC 7376   0.709   6.170   2.405 -2.5336  1.7534 -1.8381
  820ETH     HC 7377   0.620   6.304   2.485 -0.8101  1.3431 -1.7733
  820ETH     HC 7378   0.755   6.466   2.384 -1.0354 -0.0199  0.6009
  820ETH     HC 7379   0.871   6.344   2.315 -0.5847 -1.1202 -1.7944
  820ETH     HC 7380   0.707   6.359   2.255 -1.2953  3.1268  1.0971
  821ETH     OH 7381   3.689   4.464   5.309  0.1556  0.5381  0.2722
  821ETH     CH 7382   3.807   4.427   5.240 -0.1626  0.2395 -0.1143
  821ETH     CH 7383   3.781   4.372   5.100  0.2030 -0.4942  0.1009
  821ETH     HO 7384   3.641   4.383   5.316 -1.1491  1.0961 -1.7263
  821ETH     HC 7385   3.877   4.510   5.242  0.7162 -0.4807 -0.8492
  821ETH     HC 7386   3.844   4.345   5.302  1.6161  0.1076 -1.3235
  821ETH     HC 7387   3.693   4.308   5.097 -1.1636  1.3811 -1.8390
  821ETH     HC 7388   3.779   4.447   5.020  0.9284  0.6916  1.1731
  821ETH     HC 7389   3.860   4.308   5.062  0.9024  0.1860  0.3904
  822ETH     OH 7390   0.997   0.690   4.268 -0.4531  0.2386  0.6755
  822ETH     CH 7391   1.026   0.587   4.360  0.1448 -0.7506 -0.6135
  822ETH     CH 7392   0.891   0.535   4.410 -0.2038  0.1035 -0.6582
  822ETH     HO 7393   1.083   0.731   4.262 -0.7000  0.7920  0.8324
  822ETH     HC 7394   1.079   0.497   4.328  1.7004 -0.1211  0.1241
  822ETH     HC 7395   1.086   0.625   4.442 -0.0382  1.1794 -1.3581
  822ETH     HC 7396   0.832   0.615   4.453  0.4370  0.0785  0.2715
  822ETH     HC 7397   0.829   0.491   4.331 -2.4643  0.2900  0.9673
  822ETH     HC 7398   0.902   0.448   4.474  0.9499 -0.0323 -1.0367
  823ETH     OH 7399   0.460   0.664   4.792  0.3718  0.3086 -0.2895
  823ETH     CH 7400   0.498   0.536   4.749 -0.3983 -0.0402  0.0768
  823ETH     CH 7401   0.527   0.522   4.600 -0.7202 -0.1889  0.0267
  823ETH     HO 7402   0.513   0.722   4.739 -0.7673  0.7264 -0.9888
  823ETH     HC 7403   0.593   0.516   4.799 -0.8634  0.1624  1.0596
  823ETH     HC 7404   0.429   0.456   4.778 -1.5994 -0.0434 -2.6077
  823ETH     HC 7405   0.625   0.568   4.584 -0.4317 -1.4439 -2.0398
  823ETH     HC 7406   0.545   0.421   4.564  1.1743  1.3712 -3.6484
  823ETH     HC 7407   0.444   0.566   4.545 -0.2951  0.7588  0.1292
  824ETH     OH 7408   5.893   5.051   5.312  0.4332 -0.0391  0.4582
  824ETH     CH 7409   5.948   5.152   5.230 -1.0077  0.0078 -0.4754
  824ETH     CH 7410   6.020   5.083   5.114  0.4393  0.0214  0.3917
  824ETH     HO 7411   5.845   5.091   5.383 -0.8093 -1.6690  0.5635
  824ETH     HC 7412   5.875   5.220   5.188 -0.7047  1.2193  0.8969
  824ETH     HC 7413   6.019   5.219   5.279 -0.7614  0.6502 -1.6885
  824ETH     HC 7414   5.957   5.041   5.035  1.3258  0.6849 -0.6847
  824ETH     HC 7415   6.092   5.146   5.062  1.6050 -1.1561  0.5597
  824ETH     HC 7416   6.077   5.000   5.155  1.1692  0.6240  0.6174
  825ETH     OH 7417   6.056   4.235   1.270  0.2191  0.0033  0.9384
  825ETH     CH 7418   6.158   4.251   1.173 -0.4141 -0.3667  0.2095
  825ETH     CH 7419   6.158   4.139   1.069 -0.2096  0.5556 -0.7954
  825ETH     HO 7420   6.070   4.158   1.323  0.1511  0.4504  1.6118
  825ETH     HC 7421   6.138   4.351   1.133 -0.4058  1.2756  4.1353
  825ETH     HC 7422   6.255   4.266   1.220 -0.1887  2.6522 -1.0806
  825ETH     HC 7423   6.237   4.151   0.994 -1.9195  0.1826 -2.6931
  825ETH     HC 7424   6.164   4.035   1.103 -1.5546  1.1393  1.2888
  825ETH     HC 7425   6.064   4.157   1.018 -0.1679 -0.5297 -1.2821
  826ETH     OH 7426   1.822   4.778   2.474 -0.1794  0.0759  0.6640
  826ETH     CH 7427   1.727   4.802   2.575 -0.3992 -0.0226  0.4843
  826ETH     CH 7428   1.669   4.674   2.635 -0.2836 -0.1886  0.2460
  826ETH     HO 7429   1.802   4.831   2.398 -0.6673  0.3025  0.9497
  826ETH     HC 7430   1.785   4.864   2.643 -1.4036  0.9064  0.5077
  826ETH     HC 7431   1.646   4.863   2.536 -0.0217 -0.0111 -0.2898
  826ETH     HC 7432   1.584   4.699   2.699 -1.3803 -0.0620 -1.2516
  826ETH     HC 7433   1.630   4.603   2.563  0.3078  1.1702 -1.4322
  826ETH     HC 7434   1.742   4.621   2.697 -0.7769 -0.7612  0.3392
  827ETH     OH 7435   0.547   4.361   1.502 -0.3642 -0.0480  0.3961
  827ETH     CH 7436   0.592   4.408   1.376 -0.1974 -0.4355  0.3101
  827ETH     CH 7437   0.652   4.287   1.305  0.4329  0.1933 -0.2324
  827ETH     HO 7438   0.522   4.436   1.552  0.6719 -0.8001  2.0779
  827ETH     HC 7439   0.500   4.443   1.331 -0.1506  1.4567  1.6278
  827ETH     HC 7440   0.668   4.485   1.383 -1.3697  0.8653 -1.0124
  827ETH     HC 7441   0.707   4.327   1.220  0.2820 -0.3555 -0.5937
  827ETH     HC 7442   0.720   4.227   1.366  1.8780  2.7371  0.7050
  827ETH     HC 7443   0.578   4.218   1.264  3.0661 -0.6661 -3.7904
  828ETH     OH 7444   4.093   3.208   3.730  0.0785 -0.1694  0.1886
  828ETH     CH 7445   4.201   3.184   3.818  0.1810 -0.1102  0.0802
  828ETH     CH 7446   4.233   3.034   3.813  0.1723 -0.1046 -0.1141
  828ETH     HO 7447   4.018   3.207   3.788 -0.0520 -1.6513  0.0074
  828ETH     HC 7448   4.300   3.222   3.793  0.3997 -2.0327 -2.1751
  828ETH     HC 7449   4.171   3.224   3.915 -0.9482  0.4979 -0.5042
  828ETH     HC 7450   4.294   3.017   3.902 -1.2995  0.0474  0.9442
  828ETH     HC 7451   4.147   2.968   3.805  1.8451 -2.0378 -2.8026
  828ETH     HC 7452   4.293   3.007   3.726 -0.2227 -0.0641 -0.4037
  829ETH     OH 7453   5.301   4.109   2.107  0.0510  0.2345 -0.0278
  829ETH     CH 7454   5.201   4.010   2.106  0.1883  0.1024 -0.6966
  829ETH     CH 7455   5.273   3.880   2.071 -0.1115 -0.1999 -0.1948
  829ETH     HO 7456   5.344   4.093   2.024 -1.7683 -1.3030 -0.7187
  829ETH     HC 7457   5.134   4.007   2.192 -0.2626 -0.3499 -1.0570
  829ETH     HC 7458   5.140   4.048   2.024 -3.5338  1.9817  2.7652
  829ETH     HC 7459   5.333   3.837   2.152 -3.5130  0.7203  2.9416
  829ETH     HC 7460   5.198   3.803   2.054  2.0328 -1.9222 -2.1761
  829ETH     HC 7461   5.337   3.884   1.983 -0.1148  0.1603 -0.1788
  830ETH     OH 7462   4.810   4.839   6.223 -0.3655  0.3048 -0.4411
  830ETH     CH 7463   4.898   4.751   6.156 -0.3434  0.3199 -0.4331
  830ETH     CH 7464   4.997   4.689   6.255 -0.5572  0.4364 -0.1440
  830ETH     HO 7465   4.777   4.892   6.152 -0.6639  1.2272  0.3748
  830ETH     HC 7466   4.840   4.669   6.114 -1.3968 -0.3468  2.2278
  830ETH     HC 7467   4.951   4.807   6.078  1.9926 -0.3439  0.6499
  830ETH     HC 7468   4.948   4.636   6.336 -0.1171  0.6170  0.2437
  830ETH     HC 7469   5.066   4.621   6.205 -3.5441 -0.2284 -3.5821
  830ETH     HC 7470   5.042   4.773   6.307 -0.0649 -0.0059  0.1438
  831ETH     OH 7471   1.349   1.662   1.757 -0.7113  0.0475 -0.1067
  831ETH     CH 7472   1.370   1.600   1.882  0.4411  0.3170 -0.1587
  831ETH     CH 7473   1.272   1.645   1.990  0.5269 -0.2527  0.1561
  831ETH     HO 7474   1.396   1.744   1.757  1.3402 -1.0976 -0.3727
  831ETH     HC 7475   1.352   1.497   1.852 -0.0196  0.5304 -0.6209
  831ETH     HC 7476   1.476   1.606   1.907  0.5770 -1.0450 -0.3752
  831ETH     HC 7477   1.279   1.582   2.079  1.2931  0.6553  0.7536
  831ETH     HC 7478   1.291   1.748   2.019  0.0156  0.1031 -0.7708
  831ETH     HC 7479   1.169   1.638   1.957  0.9589 -0.1529 -1.2321
  832ETH     OH 7480   3.601   2.662   5.697 -0.1151  0.1568 -0.2453
  832ETH     CH 7481   3.506   2.752   5.750 -0.2278 -0.0087 -0.1669
  832ETH     CH 7482   3.555   2.896   5.735 -0.5074  0.0961 -0.0673
  832ETH     HO 7483   3.551   2.613   5.633 -2.4282  2.9475 -0.6867
  832ETH     HC 7484   3.419   2.727   5.691 -0.4895 -0.3120  0.3432
  832ETH     HC 7485   3.482   2.727   5.853  0.1956 -1.6376 -0.4473
  832ETH     HC 7486   3.659   2.921   5.755 -0.0266 -0.4036 -1.8667
  832ETH     HC 7487   3.528   2.930   5.635  0.7892 -0.2542 -0.5464
  832ETH     HC 7488   3.491   2.957   5.799  1.2506  0.2284  1.6226
  833ETH     OH 7489   3.970   6.193   5.131  0.0023 -0.0759  0.1159
  833ETH     CH 7490   4.088   6.115   5.130 -0.2269 -0.4268  0.5018
  833ETH     CH 7491   4.157   6.127   4.995 -0.5267 -0.9798  0.2978
  833ETH     HO 7492   4.002   6.282   5.137 -0.1841  0.1323 -1.7448
  833ETH     HC 7493   4.163   6.131   5.207  2.4805 -0.6701 -2.0324
  833ETH     HC 7494   4.051   6.013   5.128 -0.9476 -0.1701  0.5283
  833ETH     HC 7495   4.100   6.082   4.914  2.5120 -1.5347 -1.6299
  833ETH     HC 7496   4.169   6.231   4.965  2.2412 -1.7503 -1.4898
  833ETH     HC 7497   4.255   6.080   5.001  0.1905  0.4342 -0.0428
  834ETH     OH 7498   3.668   3.740   0.001  0.6483 -0.3933  0.3155
  834ETH     CH 7499   3.616   3.616   0.044 -0.1804 -0.1425  0.0564
  834ETH     CH 7500   3.489   3.644   0.125 -0.5529  0.1370 -0.6243
  834ETH     HO 7501   3.741   3.733  -0.058  1.4692  1.5457  1.0634
  834ETH     HC 7502   3.582   3.553  -0.038 -1.8536  0.8104  0.0098
  834ETH     HC 7503   3.686   3.563   0.109  0.9615  3.0938  1.5965
  834ETH     HC 7504   3.419   3.700   0.063 -0.3852 -1.7664 -2.6104
  834ETH     HC 7505   3.444   3.548   0.153 -0.2813 -0.3716 -1.8735
  834ETH     HC 7506   3.504   3.691   0.222  0.2952 -0.7653 -0.3050
  835ETH     OH 7507   0.291   3.722   2.050  0.2103  0.1356  0.8301
  835ETH     CH 7508   0.307   3.841   2.124 -0.0636  0.2597  0.6905
  835ETH     CH 7509   0.270   3.811   2.269  0.4113 -0.7800  0.6000
  835ETH     HO 7510   0.349   3.651   2.072  0.1435 -1.1066 -2.7242
  835ETH     HC 7511   0.411   3.873   2.115 -0.4198  0.7680 -1.9963
  835ETH     HC 7512   0.248   3.918   2.073  1.6761  1.7825  0.9115
  835ETH     HC 7513   0.163   3.790   2.277  0.5204 -0.6262  2.9447
  835ETH     HC 7514   0.326   3.724   2.305 -0.8157 -1.1642  1.6524
  835ETH     HC 7515   0.278   3.905   2.324  2.0406  0.2534 -1.3558
  836ETH     OH 7516   4.945   6.086   2.174  0.0790  0.3108 -0.0525
  836ETH     CH 7517   4.929   6.108   2.312 -0.0620 -0.4016  0.0496
  836ETH     CH 7518   5.063   6.087   2.381  0.1048  1.0582  0.1884
  836ETH     HO 7519   4.958   5.994   2.154 -0.6725 -0.0300  0.9905
  836ETH     HC 7520   4.899   6.213   2.321  0.1001 -0.3813  0.3773
  836ETH     HC 7521   4.854   6.041   2.354 -0.8444 -0.0598 -0.7805
  836ETH     HC 7522   5.058   6.095   2.490 -1.8605  1.0740  0.1179
  836ETH     HC 7523   5.109   5.990   2.361 -1.4604  0.6129 -1.3317
  836ETH     HC 7524   5.133   6.159   2.338  0.9378  0.6265  0.8043
  837ETH     OH 7525   5.522   5.285   2.397 -0.4358  0.4152 -0.0988
  837ETH     CH 7526   5.565   5.152   2.378 -0.6481  0.3100  0.1495
  837ETH     CH 7527   5.663   5.110   2.488 -0.1309  0.1079 -0.3806
  837ETH     HO 7528   5.465   5.290   2.472 -0.3906 -2.2922  0.1626
  837ETH     HC 7529   5.479   5.090   2.355 -1.9986  1.3214  2.4132
  837ETH     HC 7530   5.613   5.149   2.279 -1.5851 -0.4193 -0.2862
  837ETH     HC 7531   5.748   5.177   2.496  0.5509 -0.8797  0.6225
  837ETH     HC 7532   5.615   5.111   2.586  0.0746  2.2091 -0.2791
  837ETH     HC 7533   5.690   5.005   2.476  1.6093  0.2818  1.7142
  838ETH     OH 7534   1.030   3.702   1.405  0.4183  0.6763  0.0852
  838ETH     CH 7535   0.892   3.723   1.426  0.1606 -0.2693 -0.6172
  838ETH     CH 7536   0.846   3.867   1.451  0.3198 -0.2272 -0.5676
  838ETH     HO 7537   1.035   3.617   1.364 -0.1704  0.6932 -0.0301
  838ETH     HC 7538   0.841   3.679   1.340  1.7626 -2.0461 -0.6950
  838ETH     HC 7539   0.872   3.657   1.511 -0.4825  1.4407  0.5876
  838ETH     HC 7540   0.829   3.922   1.359 -1.2042  0.0944 -0.1055
  838ETH     HC 7541   0.747   3.859   1.497 -0.9158 -0.0493 -3.1064
  838ETH     HC 7542   0.911   3.925   1.516  0.6656  0.5160 -1.5688
  839ETH     OH 7543   4.430   5.662   4.604  0.5242 -0.0363 -0.1304
  839ETH     CH 7544   4.417   5.801   4.590  0.1982 -0.0364  0.1766
  839ETH     CH 7545   4.279   5.837   4.645  0.1206  0.1074 -0.1084
  839ETH     HO 7546   4.514   5.659   4.647  0.1871  0.1707  0.5477
  839ETH     HC 7547   4.488   5.862   4.647 -0.4731 -0.8038  1.8725
  839ETH     HC 7548   4.428   5.840   4.489 -1.1774  0.7333  0.3077
  839ETH     HC 7549   4.267   5.801   4.748  1.5313 -1.6764 -0.5310
  839ETH     HC 7550   4.265   5.943   4.627  0.9562  0.4116  0.9860
  839ETH     HC 7551   4.203   5.790   4.582  2.0308  0.2906 -2.6040
  840ETH     OH 7552   3.934   5.590   2.594 -0.2008 -0.1501 -0.1924
  840ETH     CH 7553   3.810   5.583   2.526  0.0857 -0.0549 -0.7254
  840ETH     CH 7554   3.712   5.485   2.591  0.2779  0.1452 -0.1307
  840ETH     HO 7555   3.999   5.606   2.527  1.9470  0.2200  1.9240
  840ETH     HC 7556   3.757   5.678   2.528  1.2386  0.5780  0.8650
  840ETH     HC 7557   3.820   5.552   2.422 -2.0995  1.2932 -1.3606
  840ETH     HC 7558   3.762   5.388   2.583 -0.4780 -0.3189  0.8292
  840ETH     HC 7559   3.700   5.510   2.696  0.2400  1.8938 -0.5365
  840ETH     HC 7560   3.614   5.476   2.545  0.4538  1.5020 -0.8040
  841ETH     OH 7561   4.768   4.488   1.924 -0.2084 -0.0711 -0.5764
  841ETH     CH 7562   4.652   4.557   1.965  0.1272  0.4351 -0.4786
  841ETH     CH 7563   4.681   4.707   1.950  0.3448  0.4150 -0.2601
  841ETH     HO 7564   4.751   4.395   1.934 -0.3645 -0.0832 -0.9583
  841ETH     HC 7565   4.578   4.530   1.890  1.3485 -1.9096 -0.8949
  841ETH     HC 7566   4.612   4.541   2.065 -0.8873  0.6114 -0.8475
  841ETH     HC 7567   4.597   4.770   1.977  0.9927  1.8302 -1.5321
  841ETH     HC 7568   4.760   4.735   2.019 -0.2542 -1.1533  1.1140
  841ETH     HC 7569   4.714   4.731   1.849  4.1249  0.8243  0.9917
  842ETH     OH 7570   2.778   3.408   6.055  0.0722  0.3160 -0.3312
  842ETH     CH 7571   2.649   3.388   6.109  0.1794 -0.2919 -0.2982
  842ETH     CH 7572   2.556   3.370   5.988  0.2662  0.5737 -0.4942
  842ETH     HO 7573   2.833   3.437   6.127 -1.0312  0.8155  0.3231
  842ETH     HC 7574   2.643   3.308   6.183 -0.9818 -0.3310 -0.4232
  842ETH     HC 7575   2.628   3.482   6.160 -0.2436 -0.9382  0.7272
  842ETH     HC 7576   2.585   3.277   5.941  0.1634 -0.4920  1.5025
  842ETH     HC 7577   2.455   3.354   6.025  0.2031 -1.8871 -1.6911
  842ETH     HC 7578   2.560   3.462   5.929 -3.3292  1.8836  1.1512
  843ETH     OH 7579   5.610   2.967   4.931  0.0251  0.3197 -0.4328
  843ETH     CH 7580   5.693   2.968   5.045  0.1051 -0.0974 -0.4884
  843ETH     CH 7581   5.693   3.098   5.125 -0.0127 -0.3152 -0.1335
  843ETH     HO 7582   5.627   3.050   4.888  0.1933  0.3115 -0.3823
  843ETH     HC 7583   5.659   2.885   5.107  1.5839 -0.7975 -0.6104
  843ETH     HC 7584   5.797   2.945   5.023  1.1759  2.1589  1.9862
  843ETH     HC 7585   5.711   3.192   5.073  1.8751  0.0797  1.1706
  843ETH     HC 7586   5.594   3.097   5.172 -0.4241  0.2759 -0.9870
  843ETH     HC 7587   5.774   3.104   5.198 -0.0034  0.6607 -0.2223
  844ETH     OH 7588   2.781   0.720   5.521  0.2420 -0.5625 -0.3174
  844ETH     CH 7589   2.891   0.806   5.542  0.2119 -0.5247 -0.3125
  844ETH     CH 7590   3.021   0.737   5.498  0.8112  0.0510  0.5476
  844ETH     HO 7591   2.710   0.774   5.551 -0.3154 -1.7835  0.6254
  844ETH     HC 7592   2.882   0.895   5.480 -0.4499 -0.0811  0.4209
  844ETH     HC 7593   2.895   0.826   5.649  0.8873 -1.1529 -0.2094
  844ETH     HC 7594   3.036   0.650   5.561 -2.1458 -1.2703 -0.5048
  844ETH     HC 7595   3.009   0.699   5.397 -5.4916  1.0256  0.7440
  844ETH     HC 7596   3.107   0.804   5.499  2.1817 -1.6848  0.5703
  845ETH     OH 7597   5.490   2.586   1.422 -0.3954  0.4329  0.1732
  845ETH     CH 7598   5.386   2.517   1.487 -0.3799  0.3287  0.0868
  845ETH     CH 7599   5.357   2.373   1.445  0.2902  0.3474 -0.4475
  845ETH     HO 7600   5.520   2.655   1.479  0.6559 -0.6738  0.9608
  845ETH     HC 7601   5.399   2.528   1.595  0.8469 -1.2943  0.1137
  845ETH     HC 7602   5.297   2.578   1.471 -0.1667  0.7702  0.5654
  845ETH     HC 7603   5.325   2.367   1.341 -2.4962  0.1317  0.3733
  845ETH     HC 7604   5.445   2.308   1.449 -0.9906 -1.3652  0.8760
  845ETH     HC 7605   5.275   2.333   1.505  1.3760 -1.5655 -0.1946
  846ETH     OH 7606   3.037   2.376   5.014 -0.1683  0.6198 -0.5962
  846ETH     CH 7607   2.985   2.466   5.108  0.0165  0.0967  0.0088
  846ETH     CH 7608   3.059   2.447   5.241 -0.3858 -0.2655  0.1842
  846ETH     HO 7609   2.993   2.384   4.931 -0.7549 -3.6038 -0.8192
  846ETH     HC 7610   2.993   2.569   5.074  1.4403  0.5073  1.5229
  846ETH     HC 7611   2.881   2.440   5.126  0.8811 -1.6633  2.7706
  846ETH     HC 7612   3.164   2.471   5.226 -0.6152 -0.1858 -1.3985
  846ETH     HC 7613   3.018   2.519   5.312  1.3125 -0.7931  1.7349
  846ETH     HC 7614   3.031   2.350   5.282 -0.5550 -0.9216 -1.4468
  847ETH     OH 7615   4.559   1.782   4.586  0.0939  0.4928 -0.3517
  847ETH     CH 7616   4.693   1.794   4.628  0.2282 -0.4553 -0.4974
  847ETH     CH 7617   4.794   1.688   4.584  0.6907 -0.0119 -0.5194
  847ETH     HO 7618   4.517   1.856   4.628  0.3348  0.9189 -0.8504
  847ETH     HC 7619   4.737   1.887   4.593 -0.6795  0.8466  1.6825
  847ETH     HC 7620   4.688   1.792   4.737  0.2477 -0.1071 -0.4896
  847ETH     HC 7621   4.803   1.667   4.478 -1.8864  0.1560 -0.8065
  847ETH     HC 7622   4.895   1.712   4.617  1.2994 -1.2543 -1.4431
  847ETH     HC 7623   4.761   1.592   4.625 -0.5553  1.1203  1.2415
  848ETH     OH 7624   4.823   1.855   1.835  0.0663  0.3575  0.1865
  848ETH     CH 7625   4.937   1.791   1.889 -0.0919 -0.4731 -0.4490
  848ETH     CH 7626   4.891   1.712   2.012 -0.0455  0.2488  0.0374
  848ETH     HO 7627   4.823   1.944   1.868  0.3902  1.1781 -1.9156
  848ETH     HC 7628   4.976   1.728   1.810  1.5060 -0.1211  0.0508
  848ETH     HC 7629   5.009   1.862   1.929 -0.4265 -1.2863  1.6842
  848ETH     HC 7630   4.845   1.770   2.092 -1.1658 -0.3496 -0.1644
  848ETH     HC 7631   4.814   1.641   1.982 -1.2369  1.4798  0.0939
  848ETH     HC 7632   4.976   1.654   2.047 -1.1259 -2.2617 -1.3340
  849ETH     OH 7633   2.090   3.879   2.236 -0.3208 -0.0247  0.2554
  849ETH     CH 7634   2.133   3.778   2.324  0.5462 -0.2349 -0.3949
  849ETH     CH 7635   2.267   3.710   2.297  0.7417 -0.1363  0.3080
  849ETH     HO 7636   2.101   3.849   2.147 -1.1536 -2.4108  0.9258
  849ETH     HC 7637   2.129   3.818   2.426  2.2987  0.7133 -0.6860
  849ETH     HC 7638   2.047   3.711   2.322 -1.2579  2.0126 -0.1192
  849ETH     HC 7639   2.340   3.791   2.309  2.1959 -1.1865 -1.1814
  849ETH     HC 7640   2.291   3.624   2.360  0.7039 -0.4236 -0.0660
  849ETH     HC 7641   2.274   3.685   2.191  2.7583  0.9491  0.1573
  850ETH     OH 7642   4.048   4.121   4.075  0.2676 -0.6633  0.2383
  850ETH     CH 7643   4.153   4.028   4.061  0.5864 -0.2539 -0.0894
  850ETH     CH 7644   4.088   3.890   4.070  0.2369 -0.0369  0.7673
  850ETH     HO 7645   3.995   4.122   3.997  0.4900 -0.3301  0.0953
  850ETH     HC 7646   4.209   4.028   3.968  1.8776  2.4261  0.6461
  850ETH     HC 7647   4.231   4.024   4.137  0.6227  2.5194  0.0708
  850ETH     HC 7648   4.023   3.870   3.984  1.0655 -1.5448  0.4715
  850ETH     HC 7649   4.166   3.814   4.062  0.1028 -0.2145  1.1455
  850ETH     HC 7650   4.025   3.875   4.158  0.0879 -1.3132  0.4449
  851ETH     OH 7651   3.200   2.921   4.098 -0.4174 -0.4338  0.2048
  851ETH     CH 7652   3.250   2.790   4.092  0.2155 -0.1821 -0.1394
  851ETH     CH 7653   3.335   2.778   3.965  0.0096 -0.5480 -0.2430
  851ETH     HO 7654   3.273   2.976   4.124 -2.0539  1.6526  0.5700
  851ETH     HC 7655   3.311   2.760   4.177  1.4059  0.3104 -0.8075
  851ETH     HC 7656   3.161   2.727   4.096 -0.6544  1.0800  0.8489
  851ETH     HC 7657   3.430   2.830   3.972 -0.3596 -0.0484  1.1219
  851ETH     HC 7658   3.357   2.675   3.936 -1.1015 -0.4998 -1.3021
  851ETH     HC 7659   3.277   2.824   3.886  0.0109 -1.3425 -0.7170
  852ETH     OH 7660   3.713   4.202   1.106  0.5373  0.3236 -0.0214
  852ETH     CH 7661   3.851   4.201   1.077  0.4282  0.2998 -0.5425
  852ETH     CH 7662   3.941   4.181   1.199  0.1904  0.0767 -0.4031
  852ETH     HO 7663   3.664   4.246   1.039 -0.5895  0.8706  1.1385
  852ETH     HC 7664   3.874   4.137   0.991 -1.0250 -0.7485 -0.1651
  852ETH     HC 7665   3.865   4.299   1.032 -1.5528  2.9142  4.2031
  852ETH     HC 7666   3.938   4.077   1.229 -0.7788  0.7137  1.8244
  852ETH     HC 7667   4.043   4.210   1.175 -0.0077 -0.3230 -1.7596
  852ETH     HC 7668   3.898   4.242   1.279 -0.2994  1.2925 -1.5687
  853ETH     OH 7669   0.377   5.189   0.112  0.0774  0.0565 -0.2799
  853ETH     CH 7670   0.334   5.149   0.240 -0.0517  0.3947 -0.2178
  853ETH     CH 7671   0.307   4.999   0.230 -0.0460  0.3642  0.2029
  853ETH     HO 7672   0.469   5.165   0.113 -0.2273 -1.1324  2.2850
  853ETH     HC 7673   0.406   5.172   0.319 -0.0445  0.3324 -0.2065
  853ETH     HC 7674   0.240   5.198   0.262  0.7705  2.2693 -0.7743
  853ETH     HC 7675   0.398   4.941   0.247 -1.6977 -3.1742 -2.4934
  853ETH     HC 7676   0.239   4.976   0.311  0.7653 -0.6046  0.6222
  853ETH     HC 7677   0.247   4.970   0.144  0.7835 -1.8450  0.3226
  854ETH     OH 7678   5.394   3.338   2.139  0.5499  0.2975  0.3990
  854ETH     CH 7679   5.487   3.340   2.032  0.0196  0.0574 -0.0727
  854ETH     CH 7680   5.624   3.389   2.080 -0.0562 -0.3163  0.5316
  854ETH     HO 7681   5.431   3.273   2.197 -2.7171 -0.8587  1.2625
  854ETH     HC 7682   5.490   3.239   1.994  0.7925 -0.0699  0.3248
  854ETH     HC 7683   5.453   3.413   1.958 -1.2384  2.2158  2.4967
  854ETH     HC 7684   5.679   3.333   2.155  1.9039  0.5066 -0.2495
  854ETH     HC 7685   5.689   3.380   1.993  0.7067 -1.1315  1.1805
  854ETH     HC 7686   5.638   3.494   2.106  2.1233 -0.8740  1.6939
  855ETH     OH 7687   4.499   5.602   2.799  0.0208  0.1696  0.1591
  855ETH     CH 7688   4.422   5.619   2.682  0.4418  0.1542 -0.1199
  855ETH     CH 7689   4.284   5.556   2.704  0.4157  0.2710  0.0549
  855ETH     HO 7690   4.518   5.510   2.806  1.5961  0.4651 -0.1460
  855ETH     HC 7691   4.419   5.727   2.667 -0.5218  0.0079 -1.0255
  855ETH     HC 7692   4.467   5.577   2.592 -0.4335  0.7806 -0.8504
  855ETH     HC 7693   4.220   5.586   2.787  0.4849 -1.0138  0.5696
  855ETH     HC 7694   4.238   5.569   2.606  1.3062  0.7500 -0.3144
  855ETH     HC 7695   4.296   5.449   2.690 -1.0683  0.0157  0.6806
  856ETH     OH 7696   4.700   3.083   0.219  0.0434  0.1414 -0.1846
  856ETH     CH 7697   4.707   3.057   0.081  0.0017 -0.0192 -0.1557
  856ETH     CH 7698   4.664   2.911   0.065  0.7407 -0.2495 -0.0377
  856ETH     HO 7699   4.779   3.128   0.246 -0.0756 -0.7715  1.7766
  856ETH     HC 7700   4.636   3.126   0.035 -0.3902 -0.7138 -0.6230
  856ETH     HC 7701   4.804   3.076   0.035  0.3436 -0.4453  0.3829
  856ETH     HC 7702   4.565   2.894   0.109  0.6396  2.6495  0.9197
  856ETH     HC 7703   4.657   2.895  -0.042  1.0279 -0.9143  0.0365
  856ETH     HC 7704   4.739   2.845   0.110  1.3913 -1.1889 -2.4039
  857ETH     OH 7705   2.708   1.558   5.726  0.4783  0.3183  0.0266
  857ETH     CH 7706   2.666   1.427   5.760 -0.1052  0.3113 -0.6921
  857ETH     CH 7707   2.584   1.434   5.889 -0.4556 -0.1579 -0.8894
  857ETH     HO 7708   2.738   1.566   5.637  2.4196  1.7267  0.7955
  857ETH     HC 7709   2.613   1.377   5.679  0.1958 -1.7462  0.3504
  857ETH     HC 7710   2.748   1.357   5.776  0.5390  1.1695 -0.1930
  857ETH     HC 7711   2.646   1.474   5.969  1.6915 -0.4065 -2.3758
  857ETH     HC 7712   2.509   1.511   5.874 -0.9737  0.6134  4.8525
  857ETH     HC 7713   2.552   1.335   5.922 -1.3640  1.1214  2.2485
  858ETH     OH 7714   5.812   2.557   1.008  0.5658  0.1809 -0.0724
  858ETH     CH 7715   5.907   2.455   0.995  0.2219 -0.2122  0.5019
  858ETH     CH 7716   6.033   2.491   0.916 -0.1784  0.2100  0.0541
  858ETH     HO 7717   5.767   2.539   1.089  2.7971 -2.4211  0.6427
  858ETH     HC 7718   5.932   2.405   1.089  1.7886 -0.3276  0.0314
  858ETH     HC 7719   5.856   2.375   0.941 -0.3483 -1.9956  3.5417
  858ETH     HC 7720   6.095   2.402   0.909  1.3909  1.2769 -0.1034
  858ETH     HC 7721   6.012   2.534   0.819  2.3565  0.0159 -0.6219
  858ETH     HC 7722   6.099   2.561   0.968 -0.1994 -0.7873  1.4740
  859ETH     OH 7723   1.331   5.005   2.515  0.7143  0.2113  0.1464
  859ETH     CH 7724   1.310   4.865   2.513  0.8489  0.1805  0.7112
  859ETH     CH 7725   1.267   4.807   2.648  0.1055 -0.1877  0.3192
  859ETH     HO 7726   1.269   5.052   2.461  0.9908  2.0339  1.3610
  859ETH     HC 7727   1.232   4.836   2.443 -0.0458  0.3621  1.6129
  859ETH     HC 7728   1.409   4.828   2.488  1.3340 -0.2537  3.1738
  859ETH     HC 7729   1.334   4.832   2.731 -1.0071 -1.3330  1.5772
  859ETH     HC 7730   1.173   4.842   2.690 -0.9472 -1.6316 -0.7677
  859ETH     HC 7731   1.260   4.699   2.640  0.4306 -0.1091 -1.1583
  860ETH     OH 7732   5.120   0.958   1.230  0.4609  0.2261 -0.3027
  860ETH     CH 7733   5.233   1.040   1.205  0.1258  0.6098 -0.5763
  860ETH     CH 7734   5.353   0.987   1.283 -0.0990  0.2392 -0.4804
  860ETH     HO 7735   5.050   1.015   1.201  2.1364  0.4044 -4.2625
  860ETH     HC 7736   5.251   1.053   1.099  0.4110 -0.7035 -0.7006
  860ETH     HC 7737   5.205   1.139   1.240 -1.5699  1.4425 -4.0464
  860ETH     HC 7738   5.430   0.933   1.227 -0.1823  0.6606 -1.0000
  860ETH     HC 7739   5.402   1.071   1.333 -0.6132  0.5884 -0.5601
  860ETH     HC 7740   5.325   0.923   1.367  0.8371 -0.8320 -0.9685
  861ETH     OH 7741   2.929   0.235   1.756 -0.0750  0.0786 -0.2763
  861ETH     CH 7742   3.061   0.255   1.709  0.0253  0.5164  0.1868
  861ETH     CH 7743   3.134   0.157   1.801 -0.9708 -0.6580 -0.2542
  861ETH     HO 7744   2.902   0.151   1.723  0.1763 -0.2555  0.3576
  861ETH     HC 7745   3.058   0.235   1.602 -2.9998  1.3275  0.0819
  861ETH     HC 7746   3.093   0.356   1.734 -0.3775  1.2383 -2.1079
  861ETH     HC 7747   3.106   0.052   1.799 -0.3331 -0.8237 -0.6322
  861ETH     HC 7748   3.238   0.167   1.770 -0.8848 -1.1532 -0.1205
  861ETH     HC 7749   3.134   0.186   1.906  0.9532  1.7842 -0.8820
  862ETH     OH 7750   0.414   4.488   1.759  0.2781 -0.0011 -0.0936
  862ETH     CH 7751   0.296   4.424   1.802  0.0208  0.2617 -0.3971
  862ETH     CH 7752   0.234   4.520   1.904 -0.0281 -0.4899  0.2906
  862ETH     HO 7753   0.463   4.505   1.838 -1.4723  0.4078  0.9253
  862ETH     HC 7754   0.226   4.425   1.719 -0.3365  1.7405 -0.0810
  862ETH     HC 7755   0.318   4.327   1.847 -0.5089  0.2160 -0.2406
  862ETH     HC 7756   0.132   4.487   1.922 -0.0281 -0.3800  0.4853
  862ETH     HC 7757   0.297   4.511   1.992  0.1355 -1.6453  0.0683
  862ETH     HC 7758   0.232   4.622   1.866  0.5097  0.1208  1.8847
  863ETH     OH 7759   2.431   0.014   4.727 -0.3108 -0.0125 -0.0067
  863ETH     CH 7760   2.444  -0.030   4.594 -0.4230 -0.0253 -0.0130
  863ETH     CH 7761   2.555   0.054   4.531 -0.1490 -0.6850 -0.4214
  863ETH     HO 7762   2.504  -0.024   4.775  0.3274 -0.6697 -1.4770
  863ETH     HC 7763   2.488  -0.129   4.586  4.0631  1.6200  2.3750
  863ETH     HC 7764   2.351  -0.021   4.537  0.4248  1.0009 -1.2430
  863ETH     HC 7765   2.527   0.159   4.521 -0.6152 -0.8187 -0.5227
  863ETH     HC 7766   2.647   0.053   4.590 -0.5245  1.6593  0.2833
  863ETH     HC 7767   2.584   0.021   4.432  2.4464  0.7861 -0.2012
  864ETH     OH 7768   4.358   0.931   5.608 -0.1518  0.2501  0.3452
  864ETH     CH 7769   4.303   0.877   5.726 -0.3377  0.1018  0.1913
  864ETH     CH 7770   4.164   0.814   5.715  0.0150 -0.5799 -0.4677
  864ETH     HO 7771   4.452   0.936   5.616 -0.2693  0.6849  1.5173
  864ETH     HC 7772   4.370   0.799   5.763 -0.6045  0.8709  2.3445
  864ETH     HC 7773   4.305   0.950   5.807 -1.2728 -1.1022  1.3156
  864ETH     HC 7774   4.125   0.773   5.808 -2.0791  0.1514 -0.9975
  864ETH     HC 7775   4.090   0.887   5.682  0.9658  0.7570  0.3149
  864ETH     HC 7776   4.148   0.737   5.640 -3.2921 -0.4871  0.0467
  865ETH     OH 7777   3.255   3.546   3.660  0.0115  0.5582  0.5732
  865ETH     CH 7778   3.367   3.611   3.715  0.2333  0.3960  0.3172
  865ETH     CH 7779   3.475   3.606   3.606 -0.4356  0.0433 -0.3346
  865ETH     HO 7780   3.230   3.579   3.575  0.3995 -1.4747 -0.3697
  865ETH     HC 7781   3.333   3.713   3.735  0.7819  0.3686  1.3900
  865ETH     HC 7782   3.391   3.566   3.811  1.0965  0.8800  0.3424
  865ETH     HC 7783   3.561   3.663   3.640  1.2986 -1.4675 -2.0668
  865ETH     HC 7784   3.517   3.505   3.598 -0.0139  0.1801  0.0965
  865ETH     HC 7785   3.433   3.639   3.511 -2.0035  0.1397  0.3798
  866ETH     OH 7786   4.355   1.107   5.290  0.0792  0.5982  0.2481
  866ETH     CH 7787   4.448   1.158   5.383 -0.1013  0.4214  0.5273
  866ETH     CH 7788   4.519   1.271   5.308  0.4664  0.2191  0.7633
  866ETH     HO 7789   4.272   1.126   5.331 -0.5806  1.0274 -1.2271
  866ETH     HC 7790   4.393   1.185   5.473 -2.9720 -0.5041 -0.8676
  866ETH     HC 7791   4.517   1.083   5.421 -1.3962 -0.4379  1.2174
  866ETH     HC 7792   4.587   1.326   5.373 -0.0314  0.6594  0.9070
  866ETH     HC 7793   4.564   1.246   5.212  0.0579  2.2310  0.0372
  866ETH     HC 7794   4.439   1.342   5.288 -1.1214 -0.7800  3.3000
  867ETH     OH 7795   2.337   3.894   4.266  0.1804 -0.3510  0.3616
  867ETH     CH 7796   2.196   3.894   4.263  0.1933 -1.1819 -0.2392
  867ETH     CH 7797   2.130   3.989   4.162  0.3487 -0.5148  0.2827
  867ETH     HO 7798   2.376   3.842   4.334 -2.0791  0.4012  2.3455
  867ETH     HC 7799   2.163   3.790   4.256 -0.3027 -0.9290 -1.8561
  867ETH     HC 7800   2.166   3.917   4.365 -0.5258  0.6148 -0.8295
  867ETH     HC 7801   2.152   4.094   4.178 -0.9875 -0.2771  0.6955
  867ETH     HC 7802   2.154   3.957   4.061 -0.8233 -0.2796 -0.0851
  867ETH     HC 7803   2.021   3.994   4.167  0.2872 -1.1915 -0.3205
  868ETH     OH 7804   2.019   6.196   1.584  0.1511 -0.9539  0.0209
  868ETH     CH 7805   2.069   6.131   1.470  0.3430 -0.5708 -0.1170
  868ETH     CH 7806   2.079   6.225   1.350  0.6684  0.2314  0.5292
  868ETH     HO 7807   1.929   6.220   1.570  0.9488  1.9253 -0.7033
  868ETH     HC 7808   2.172   6.098   1.489 -0.0723 -2.0919 -0.3898
  868ETH     HC 7809   2.009   6.044   1.444  0.2884 -0.6604  0.3110
  868ETH     HC 7810   2.156   6.301   1.364  0.2164  0.4954  1.6086
  868ETH     HC 7811   2.098   6.166   1.260 -0.3936  2.5665 -1.2924
  868ETH     HC 7812   1.991   6.286   1.328  0.3549  0.3953  2.2199
  869ETH     OH 7813   1.476   2.078   2.648  0.4095 -0.4586 -0.0747
  869ETH     CH 7814   1.416   1.973   2.720  0.0815 -0.1412  0.1173
  869ETH     CH 7815   1.268   1.988   2.688  0.1329  0.8162  0.3246
  869ETH     HO 7816   1.497   2.056   2.558  1.6961  1.5799 -0.3017
  869ETH     HC 7817   1.455   1.880   2.678 -1.6995 -0.5099 -0.7529
  869ETH     HC 7818   1.428   1.975   2.828  0.3192 -0.5036  0.0987
  869ETH     HC 7819   1.219   2.067   2.745 -1.3301 -1.1698  1.9313
  869ETH     HC 7820   1.237   2.007   2.585  1.0601 -0.9824 -0.3018
  869ETH     HC 7821   1.215   1.897   2.720  0.2079  0.5336 -0.3598
  870ETH     OH 7822   1.366   3.398   5.082  0.0841 -0.1700  0.8899
  870ETH     CH 7823   1.368   3.524   5.019  0.0849 -0.6156 -0.0042
  870ETH     CH 7824   1.505   3.589   5.034 -0.1144 -0.2166  0.0815
  870ETH     HO 7825   1.423   3.344   5.030 -0.1328  0.7987 -0.3613
  870ETH     HC 7826   1.338   3.519   4.914 -0.5997  0.7016  0.1260
  870ETH     HC 7827   1.288   3.585   5.060  0.3260 -0.9771  1.0136
  870ETH     HC 7828   1.513   3.604   5.142  2.2314 -0.5672 -0.0127
  870ETH     HC 7829   1.588   3.535   4.989  1.2140  0.8630  1.1569
  870ETH     HC 7830   1.490   3.684   4.983 -0.8664 -0.4894 -0.2024
  871ETH     OH 7831   4.539   0.474   0.586  0.5788  0.0130  0.1189
  871ETH     CH 7832   4.615   0.381   0.513 -0.0409 -0.5161  0.1398
  871ETH     CH 7833   4.763   0.419   0.520 -0.1987  0.1421 -0.0395
  871ETH     HO 7834   4.511   0.443   0.671  0.2133  0.9034  0.3370
  871ETH     HC 7835   4.599   0.282   0.555 -1.8937  0.5682  2.0880
  871ETH     HC 7836   4.583   0.381   0.408  0.6169 -0.0145 -0.0638
  871ETH     HC 7837   4.795   0.411   0.624  0.4879 -0.5531 -0.3028
  871ETH     HC 7838   4.822   0.350   0.461 -2.0556 -0.5211 -1.1606
  871ETH     HC 7839   4.779   0.522   0.486 -0.3674  0.5419  1.0688
  872ETH     OH 7840   1.245   5.544   4.298  0.4873 -0.1980  0.7388
  872ETH     CH 7841   1.383   5.562   4.320  0.4707  0.5446  0.2477
  872ETH     CH 7842   1.403   5.675   4.421  0.1501  0.4575  0.4089
  872ETH     HO 7843   1.223   5.468   4.350  0.7926 -0.8210 -0.0186
  872ETH     HC 7844   1.426   5.466   4.349  0.2619  0.5324  0.5278
  872ETH     HC 7845   1.426   5.590   4.224 -1.8582  2.8102 -0.2050
  872ETH     HC 7846   1.357   5.771   4.398 -0.4914  0.3154  1.0726
  872ETH     HC 7847   1.387   5.654   4.527  1.2291  0.0681  0.5089
  872ETH     HC 7848   1.509   5.701   4.421 -0.4229  2.8694  0.4902
  873ETH     OH 7849   5.328   0.861   4.558 -0.1088  0.2120 -0.0680
  873ETH     CH 7850   5.438   0.779   4.588 -0.6995 -0.4346  0.3502
  873ETH     CH 7851   5.394   0.640   4.633 -0.4796 -0.7358 -0.3592
  873ETH     HO 7852   5.260   0.857   4.624 -1.3785 -2.1231 -1.4492
  873ETH     HC 7853   5.499   0.748   4.503 -0.1466 -1.6121  1.1498
  873ETH     HC 7854   5.494   0.822   4.672 -2.2844 -0.3637  1.3812
  873ETH     HC 7855   5.356   0.631   4.735  1.2949  1.6103  0.5351
  873ETH     HC 7856   5.324   0.599   4.560 -1.9817  0.1072  0.5868
  873ETH     HC 7857   5.488   0.585   4.631  1.8263  2.9222  2.2968
  874ETH     OH 7858   3.484   6.245   5.038 -0.2189  0.1744 -0.8293
  874ETH     CH 7859   3.453   6.152   5.139 -0.0584  0.9261 -0.0865
  874ETH     CH 7860   3.325   6.078   5.103  0.7082 -0.4498 -0.0174
  874ETH     HO 7861   3.544   6.307   5.076 -0.9761  0.3663  0.0715
  874ETH     HC 7862   3.533   6.078   5.150 -0.2083  0.9690  1.4385
  874ETH     HC 7863   3.434   6.209   5.230 -2.8610 -0.0041 -0.0590
  874ETH     HC 7864   3.280   6.016   5.182 -0.7420  0.9254  0.2744
  874ETH     HC 7865   3.245   6.151   5.088 -0.7106 -1.5009  2.1466
  874ETH     HC 7866   3.323   6.020   5.011  0.1918  0.5806 -0.6579
  875ETH     OH 7867   0.104   0.194   4.767  0.0899  0.1087 -0.2485
  875ETH     CH 7868   0.222   0.190   4.843 -0.3114  0.5890  0.4054
  875ETH     CH 7869   0.230   0.053   4.911  0.1302  0.2544 -0.3158
  875ETH     HO 7870   0.100   0.274   4.717 -1.4858  1.1571  1.4950
  875ETH     HC 7871   0.311   0.202   4.781 -0.4180 -0.9705 -0.0718
  875ETH     HC 7872   0.217   0.283   4.899 -1.0443  1.3676 -0.9334
  875ETH     HC 7873   0.142   0.028   4.969  0.1428  1.3776  0.1987
  875ETH     HC 7874   0.265  -0.017   4.835 -0.6047 -1.0346  0.5191
  875ETH     HC 7875   0.302   0.063   4.992 -1.7653  2.3917  1.1355
  876ETH     OH 7876   5.095   0.861   4.720  0.4706  0.3643  0.7543
  876ETH     CH 7877   5.048   0.755   4.800 -0.0283  0.0625  0.0659
  876ETH     CH 7878   4.903   0.781   4.841 -0.2448 -0.2789 -0.4745
  876ETH     HO 7879   5.078   0.941   4.767  0.0061 -0.7169  2.4743
  876ETH     HC 7880   5.062   0.659   4.749 -1.9477 -0.6871  0.8847
  876ETH     HC 7881   5.104   0.754   4.893  0.3502  0.8203 -0.1471
  876ETH     HC 7882   4.895   0.844   4.929 -0.6799  0.4759 -1.0437
  876ETH     HC 7883   4.842   0.827   4.763 -1.1795 -2.3689 -1.0044
  876ETH     HC 7884   4.864   0.684   4.869 -2.5405 -0.0636 -2.7365
  877ETH     OH 7885   3.825   4.019   1.605  0.3094 -0.2969  0.0656
  877ETH     CH 7886   3.757   3.950   1.708  0.3464  0.2199  0.4384
  877ETH     CH 7887   3.750   4.029   1.839  0.3167  0.2641  0.4103
  877ETH     HO 7888   3.827   3.970   1.524  0.6187 -0.9165  0.4403
  877ETH     HC 7889   3.650   3.940   1.690  0.2821  1.5786 -0.0078
  877ETH     HC 7890   3.805   3.853   1.715 -0.7649 -0.3807 -0.1552
  877ETH     HC 7891   3.851   4.058   1.867  0.0369 -0.5588  2.3916
  877ETH     HC 7892   3.688   4.118   1.829  0.0494 -0.2191 -2.7879
  877ETH     HC 7893   3.710   3.966   1.919  1.5618 -1.5613 -0.3582
  878ETH     OH 7894   1.882   1.126   3.572  0.3953 -0.5103  0.1033
  878ETH     CH 7895   2.020   1.133   3.542  0.4416 -0.6743  0.2730
  878ETH     CH 7896   2.081   0.995   3.566  0.8498 -0.5393  0.0106
  878ETH     HO 7897   1.848   1.084   3.495  0.7591 -1.2329  0.3267
  878ETH     HC 7898   2.052   1.170   3.445 -1.7364 -1.6721 -0.8552
  878ETH     HC 7899   2.049   1.208   3.616  0.6507 -1.2027  0.7312
  878ETH     HC 7900   2.116   0.986   3.669  2.0180  0.5263 -0.2759
  878ETH     HC 7901   2.027   0.904   3.541  0.7525 -0.1286 -1.2751
  878ETH     HC 7902   2.171   0.983   3.505  1.9004 -0.6288  1.5234
  879ETH     OH 7903   2.731   3.792   3.848  0.5850 -0.2944  0.6635
  879ETH     CH 7904   2.816   3.876   3.773  0.1876 -0.2119  0.3054
  879ETH     CH 7905   2.957   3.861   3.832  0.1394 -0.1159  0.4422
  879ETH     HO 7906   2.649   3.785   3.803  2.2711  0.6297 -2.6665
  879ETH     HC 7907   2.812   3.832   3.673  1.1144 -0.8512  0.5419
  879ETH     HC 7908   2.772   3.975   3.775  0.5576 -0.0582  2.9931
  879ETH     HC 7909   2.931   3.900   3.931 -2.3951  0.2455 -0.3148
  879ETH     HC 7910   2.976   3.754   3.838  0.5635 -0.1672 -1.5489
  879ETH     HC 7911   3.034   3.913   3.775 -0.0670 -1.0961 -0.7530
  880ETH     OH 7912   0.767   3.652   3.769  0.3771  0.5074  0.2369
  880ETH     CH 7913   0.686   3.730   3.684  0.0607  0.2926  0.3376
  880ETH     CH 7914   0.570   3.793   3.761 -0.4833  0.0241 -0.2610
  880ETH     HO 7915   0.739   3.561   3.769  0.0032  0.6192 -1.5339
  880ETH     HC 7916   0.753   3.810   3.651  2.1192 -1.8420 -0.7993
  880ETH     HC 7917   0.649   3.669   3.602 -1.3142  0.6060  0.7107
  880ETH     HC 7918   0.501   3.712   3.788 -0.4387  0.0740  0.0003
  880ETH     HC 7919   0.594   3.860   3.843  0.5755 -0.1752 -0.4028
  880ETH     HC 7920   0.517   3.849   3.684  1.0452 -0.5714 -1.7870
  881ETH     OH 7921   5.148   4.391   1.872  0.7706  0.0412  0.8531
  881ETH     CH 7922   5.065   4.445   1.772  0.3896 -1.3532  0.4051
  881ETH     CH 7923   5.119   4.391   1.640 -0.4841  0.2762 -0.6414
  881ETH     HO 7924   5.098   4.383   1.951  0.5900 -1.5212  0.5845
  881ETH     HC 7925   4.963   4.415   1.794 -0.7303  1.9607  0.1065
  881ETH     HC 7926   5.064   4.554   1.768 -1.7419 -1.3609  0.0565
  881ETH     HC 7927   5.060   4.432   1.558  1.3499  0.3609 -1.9587
  881ETH     HC 7928   5.224   4.411   1.615 -0.1712 -0.9247 -0.3232
  881ETH     HC 7929   5.118   4.282   1.637 -2.4294  0.2766 -0.7317
  882ETH     OH 7930   3.049   0.876   2.934 -0.3777 -0.3300  0.2860
  882ETH     CH 7931   3.043   1.017   2.934  0.6440 -0.2788  0.2788
  882ETH     CH 7932   3.180   1.082   2.948  0.1148  1.0113 -0.4408
  882ETH     HO 7933   3.107   0.842   2.867  0.0174 -1.4660  1.1910
  882ETH     HC 7934   3.002   1.054   2.840  1.0304  2.7529  1.2628
  882ETH     HC 7935   2.965   1.042   3.006 -1.6516 -0.0960 -2.1702
  882ETH     HC 7936   3.225   1.113   2.854  1.0164 -0.4166 -0.5013
  882ETH     HC 7937   3.167   1.178   2.998 -1.9195  1.3524 -1.5818
  882ETH     HC 7938   3.257   1.020   2.995  0.4446  2.8015  1.4744
  883ETH     OH 7939   3.262   3.508   6.095 -0.3342  0.0352 -0.6024
  883ETH     CH 7940   3.328   3.625   6.052 -0.4430  0.1418 -0.4727
  883ETH     CH 7941   3.226   3.736   6.079  0.2296  0.5332  0.4955
  883ETH     HO 7942   3.327   3.439   6.104 -0.2220  0.1194 -0.7551
  883ETH     HC 7943   3.407   3.650   6.123  1.5165 -1.0622 -2.2216
  883ETH     HC 7944   3.368   3.628   5.951 -0.0844 -1.3659 -0.3850
  883ETH     HC 7945   3.136   3.733   6.017  0.2780 -1.2249  0.5117
  883ETH     HC 7946   3.178   3.731   6.177 -0.9860  0.5314 -0.0877
  883ETH     HC 7947   3.252   3.842   6.067  0.6696  0.5123  1.2729
  884ETH     OH 7948   1.807   3.015   2.925  0.4199 -0.6250 -0.4572
  884ETH     CH 7949   1.922   3.095   2.905  0.0717  0.1126  0.4195
  884ETH     CH 7950   1.969   3.110   2.760 -0.1925  0.0213  0.3230
  884ETH     HO 7951   1.819   2.923   2.907 -0.7369 -0.7159 -0.8168
  884ETH     HC 7952   1.894   3.197   2.930 -0.3434 -0.3692  1.9609
  884ETH     HC 7953   1.996   3.054   2.973  0.2281 -2.1754 -1.0354
  884ETH     HC 7954   2.026   3.022   2.730 -1.0889 -0.6683  0.6289
  884ETH     HC 7955   1.881   3.125   2.697 -0.5466  0.3768  0.8981
  884ETH     HC 7956   2.037   3.193   2.741 -0.4062 -0.7261 -4.0815
  885ETH     OH 7957   4.911   4.735   5.639  0.0435  0.5901  0.1383
  885ETH     CH 7958   4.789   4.785   5.591 -0.0428  0.1903 -0.0574
  885ETH     CH 7959   4.687   4.700   5.667 -0.3129  0.0484 -0.5676
  885ETH     HO 7960   4.906   4.641   5.637  0.7628  0.5696 -2.0337
  885ETH     HC 7961   4.786   4.889   5.626 -0.9151  0.0907  0.1722
  885ETH     HC 7962   4.770   4.786   5.483 -1.4808  2.3711  0.1714
  885ETH     HC 7963   4.696   4.716   5.775  0.0544 -0.1707 -0.5667
  885ETH     HC 7964   4.585   4.734   5.650 -0.0097  2.3058  1.7270
  885ETH     HC 7965   4.702   4.599   5.630 -0.1176 -1.3197  3.0644
  886ETH     OH 7966   2.540   0.810   2.521 -0.2408  0.1222 -0.1552
  886ETH     CH 7967   2.405   0.827   2.558 -0.2185  0.9355 -0.4444
  886ETH     CH 7968   2.297   0.762   2.472  0.0647 -0.2910  0.1090
  886ETH     HO 7969   2.577   0.897   2.512 -1.6723  0.7358 -0.2016
  886ETH     HC 7970   2.390   0.792   2.660 -0.6734 -0.6730 -1.0504
  886ETH     HC 7971   2.386   0.935   2.562 -0.1316  0.9913 -1.4255
  886ETH     HC 7972   2.195   0.770   2.509  0.1970  1.0211  0.2416
  886ETH     HC 7973   2.298   0.820   2.379  1.1112 -2.5069 -1.3230
  886ETH     HC 7974   2.328   0.659   2.454  1.7002 -0.1712  2.1345
  887ETH     OH 7975   5.856   4.906   2.979  0.1290 -0.3523  0.1369
  887ETH     CH 7976   5.823   4.892   3.115 -0.2149 -1.0189 -0.0156
  887ETH     CH 7977   5.810   5.018   3.200  0.5984 -0.7252 -0.3262
  887ETH     HO 7978   5.881   4.821   2.947  2.5318  0.7823 -1.1912
  887ETH     HC 7979   5.737   4.825   3.115  2.2196 -4.3049  1.8646
  887ETH     HC 7980   5.904   4.830   3.154 -0.3521 -1.6635 -0.7483
  887ETH     HC 7981   5.886   5.095   3.188  0.2702 -0.6395 -2.0406
  887ETH     HC 7982   5.716   5.063   3.167  2.3589  4.0000  0.6180
  887ETH     HC 7983   5.805   4.998   3.307  1.5799  1.8280  0.2325
  888ETH     OH 7984   5.411   2.779   4.982  0.5964  0.7430 -0.0921
  888ETH     CH 7985   5.319   2.877   5.026 -0.2068 -0.0751  0.0592
  888ETH     CH 7986   5.174   2.829   5.010 -0.2910  0.1837  0.0447
  888ETH     HO 7987   5.493   2.819   4.960  0.5425  1.6267  1.2137
  888ETH     HC 7988   5.339   2.924   5.122  2.1824 -0.6468 -0.1300
  888ETH     HC 7989   5.318   2.961   4.956 -0.5593 -0.5459 -0.5127
  888ETH     HC 7990   5.165   2.783   4.912 -0.1366 -0.3646  0.2831
  888ETH     HC 7991   5.139   2.751   5.077  0.0145  0.3115  0.3524
  888ETH     HC 7992   5.100   2.909   5.020  0.5108  0.9996 -0.4810
  889ETH     OH 7993   2.511   1.491   3.354  0.2593  0.5791 -0.5860
  889ETH     CH 7994   2.374   1.524   3.348  0.0870 -0.0846 -0.2780
  889ETH     CH 7995   2.293   1.419   3.273 -0.1488 -0.3090  0.2871
  889ETH     HO 7996   2.551   1.569   3.389  1.6601  0.0650 -1.0160
  889ETH     HC 7997   2.327   1.539   3.446 -1.3070 -1.8343 -0.6518
  889ETH     HC 7998   2.369   1.617   3.292  2.6019 -0.2219 -0.7758
  889ETH     HC 7999   2.188   1.447   3.261 -0.2791  1.1686  4.0608
  889ETH     HC 8000   2.334   1.386   3.178  0.8671 -0.2654  0.7107
  889ETH     HC 8001   2.289   1.335   3.343 -3.0552 -0.1738  0.3680
  890ETH     OH 8002   3.773   2.425   5.255  0.3605  0.1402  0.3962
  890ETH     CH 8003   3.903   2.427   5.310  0.4785  0.5541  0.1063
  890ETH     CH 8004   3.997   2.495   5.211  0.1821  0.6753 -0.0935
  890ETH     HO 8005   3.714   2.391   5.322 -1.1401 -1.4457 -1.6702
  890ETH     HC 8006   3.897   2.474   5.408 -0.4792  0.4004  0.1236
  890ETH     HC 8007   3.939   2.324   5.316 -0.0870  0.4236  1.5627
  890ETH     HC 8008   4.001   2.450   5.112 -0.8621  2.2337 -0.8492
  890ETH     HC 8009   3.993   2.603   5.203  0.4411  0.6603 -0.4351
  890ETH     HC 8010   4.088   2.481   5.270  1.3768  1.8624 -1.5989
  891ETH     OH 8011   4.394   3.544   4.331  0.4561  0.0699 -0.5579
  891ETH     CH 8012   4.428   3.663   4.398 -0.7304  0.0245  0.1409
  891ETH     CH 8013   4.433   3.789   4.311 -0.1082  0.0565  0.2238
  891ETH     HO 8014   4.385   3.480   4.400  1.0680 -1.5272 -1.9524
  891ETH     HC 8015   4.363   3.684   4.483 -1.0997 -2.3753  0.4803
  891ETH     HC 8016   4.531   3.645   4.427  0.4233 -1.8802 -4.7372
  891ETH     HC 8017   4.329   3.819   4.308 -1.1122 -3.3634 -1.3652
  891ETH     HC 8018   4.486   3.877   4.348 -0.1084  0.2525 -0.2396
  891ETH     HC 8019   4.475   3.780   4.211 -0.3011  3.1718 -0.1744
  892ETH     OH 8020   1.377   4.485   5.059 -0.6724 -0.7127  0.1367
  892ETH     CH 8021   1.256   4.530   5.003 -0.0088  0.3376 -0.4915
  892ETH     CH 8022   1.183   4.414   4.934  0.0715 -0.0751  0.1159
  892ETH     HO 8023   1.399   4.563   5.108 -1.5180  0.2575 -0.9886
  892ETH     HC 8024   1.197   4.572   5.085  2.7229  1.7102  0.8053
  892ETH     HC 8025   1.279   4.606   4.929  0.9138 -0.2538 -0.8152
  892ETH     HC 8026   1.245   4.378   4.852 -0.4533 -1.9917  0.5243
  892ETH     HC 8027   1.177   4.333   5.008  1.0218 -0.4977 -0.2527
  892ETH     HC 8028   1.089   4.452   4.896 -0.2867  0.1245  1.1802
  893ETH     OH 8029   1.757   5.048   0.995  0.3461 -0.0028 -0.4591
  893ETH     CH 8030   1.888   5.087   1.029  0.4126 -0.0046 -0.7161
  893ETH     CH 8031   1.910   5.237   1.010  0.2473  0.0903 -0.1628
  893ETH     HO 8032   1.716   5.076   1.076 -1.0900  0.5740 -1.3688
  893ETH     HC 8033   1.924   5.049   1.124 -0.2697 -0.8164 -0.7749
  893ETH     HC 8034   1.954   5.033   0.962 -1.4547 -2.2196 -0.8447
  893ETH     HC 8035   1.883   5.278   0.912  0.6676  0.2187 -0.2268
  893ETH     HC 8036   1.861   5.291   1.091  0.2723  0.0311 -0.1090
  893ETH     HC 8037   2.017   5.250   1.025  0.1826 -0.1583  0.5348
  894ETH     OH 8038   5.870   5.401   1.537 -0.8008  0.0975  0.0292
  894ETH     CH 8039   5.991   5.445   1.595 -0.6329  0.0834 -0.3080
  894ETH     CH 8040   6.037   5.345   1.702  0.0549  0.0961 -0.5886
  894ETH     HO 8041   5.886   5.320   1.492 -2.1247  0.0341 -0.3584
  894ETH     HC 8042   6.066   5.447   1.516 -1.3741  0.4963 -1.0031
  894ETH     HC 8043   5.991   5.546   1.637  2.4094  0.2332 -0.5409
  894ETH     HC 8044   5.968   5.267   1.737  0.1475 -0.0782 -0.7994
  894ETH     HC 8045   6.129   5.292   1.680  0.9644  0.7987  1.3894
  894ETH     HC 8046   6.069   5.399   1.792 -0.5014 -2.0939  0.9632
  895ETH     OH 8047   4.322   3.700   0.521 -0.0042  0.0769 -0.1723
  895ETH     CH 8048   4.306   3.729   0.384  0.3232  0.3072 -0.1618
  895ETH     CH 8049   4.275   3.876   0.358 -0.0304  0.3257  0.3528
  895ETH     HO 8050   4.313   3.606   0.523 -2.4889  0.2784  0.0927
  895ETH     HC 8051   4.387   3.688   0.324 -0.2032  0.4424 -0.9696
  895ETH     HC 8052   4.217   3.675   0.352 -0.4711  0.4275  1.7549
  895ETH     HC 8053   4.227   3.892   0.262  0.6319 -1.2887 -0.2595
  895ETH     HC 8054   4.203   3.907   0.433  0.7586 -0.7112  1.5637
  895ETH     HC 8055   4.363   3.940   0.373 -0.6239  0.9447  1.2609
  896ETH     OH 8056   2.852   6.142   5.240  0.5996  0.0429 -0.1485
  896ETH     CH 8057   2.828   6.280   5.223  0.1972  0.0346  0.3607
  896ETH     CH 8058   2.935   6.353   5.142  0.0980 -0.0101  0.1883
  896ETH     HO 8059   2.782   6.097   5.285 -0.4733  1.2320 -0.5904
  896ETH     HC 8060   2.730   6.283   5.176 -0.3051 -2.1520  1.2038
  896ETH     HC 8061   2.813   6.325   5.321  0.3298 -2.5631  1.6203
  896ETH     HC 8062   2.938   6.301   5.047  2.1111 -0.4049  0.4562
  896ETH     HC 8063   2.900   6.456   5.128 -1.2202 -0.4040  0.5025
  896ETH     HC 8064   3.026   6.355   5.201 -1.5928  0.7801  2.8646
  897ETH     OH 8065   3.632   0.477   1.764  0.3390 -0.0220 -0.1768
  897ETH     CH 8066   3.556   0.363   1.730  0.0330  0.1113  0.0625
  897ETH     CH 8067   3.477   0.383   1.601  0.0688 -0.2049 -0.0082
  897ETH     HO 8068   3.720   0.463   1.733  0.1211 -3.3679  0.5148
  897ETH     HC 8069   3.615   0.273   1.717 -0.8637 -0.3589 -0.8464
  897ETH     HC 8070   3.487   0.341   1.812  2.3537  1.0171  2.3289
  897ETH     HC 8071   3.405   0.464   1.613 -1.0880 -0.9002 -1.9995
  897ETH     HC 8072   3.543   0.388   1.515 -0.8964 -0.9301 -0.8063
  897ETH     HC 8073   3.402   0.306   1.582 -1.2779  1.1875 -0.4273
  898ETH     OH 8074   2.265   1.866   1.356  0.3453 -0.7560  0.1771
  898ETH     CH 8075   2.160   1.783   1.400 -0.2363  0.0131  0.2421
  898ETH     CH 8076   2.110   1.825   1.539 -0.1142 -0.9257  0.5701
  898ETH     HO 8077   2.337   1.869   1.417 -1.0855  1.5285  1.8348
  898ETH     HC 8078   2.070   1.777   1.339 -0.3861  0.7057  0.3867
  898ETH     HC 8079   2.205   1.685   1.409 -2.8276 -1.3439 -1.0532
  898ETH     HC 8080   2.076   1.928   1.540  0.2896 -0.7899  0.5249
  898ETH     HC 8081   2.023   1.768   1.571 -1.0540  0.5305  0.6462
  898ETH     HC 8082   2.190   1.825   1.613  0.7475 -0.7699 -0.3461
  899ETH     OH 8083   3.825   2.705   1.219 -0.0223 -0.4105 -0.3481
  899ETH     CH 8084   3.739   2.655   1.319  0.1567 -0.1260 -0.0530
  899ETH     CH 8085   3.664   2.772   1.382 -0.4338 -0.1374 -0.7323
  899ETH     HO 8086   3.779   2.734   1.141  1.9239  0.1218 -1.3328
  899ETH     HC 8087   3.664   2.592   1.272 -0.3949  1.3765 -1.1884
  899ETH     HC 8088   3.782   2.595   1.400 -0.9599  0.4304  0.9694
  899ETH     HC 8089   3.586   2.739   1.450  0.9958  0.0660  1.0384
  899ETH     HC 8090   3.727   2.842   1.438  2.8005 -3.1589 -0.3965
  899ETH     HC 8091   3.608   2.831   1.310  0.3152  1.4290 -0.0852
  900ETH     OH 8092   4.944   0.608   4.043  0.1112  0.3823 -0.0166
  900ETH     CH 8093   4.891   0.486   3.996 -0.2464  0.4517  0.2089
  900ETH     CH 8094   4.889   0.389   4.115  0.1633 -0.1013 -0.2325
  900ETH     HO 8095   4.897   0.675   3.996  1.1030 -0.1384 -1.8166
  900ETH     HC 8096   4.787   0.505   3.970 -0.8426 -1.2625  1.1972
  900ETH     HC 8097   4.935   0.463   3.899  0.4426  0.5454  0.4980
  900ETH     HC 8098   4.986   0.373   4.163  0.1507 -0.4494 -0.3218
  900ETH     HC 8099   4.816   0.435   4.182 -0.3861 -0.1123 -0.8269
  900ETH     HC 8100   4.858   0.289   4.087  1.3305 -0.0903 -1.6694
  901ETH     OH 8101   1.227   5.894   4.880 -0.4292  0.0107 -0.4080
  901ETH     CH 8102   1.205   5.798   4.980 -0.2094  0.2763 -0.1052
  901ETH     CH 8103   1.211   5.870   5.115 -0.7883 -0.4612  0.3210
  901ETH     HO 8104   1.299   5.947   4.910  1.7165 -2.6339 -0.7044
  901ETH     HC 8105   1.105   5.757   4.966 -0.8059  1.5284  0.4071
  901ETH     HC 8106   1.281   5.721   4.965  1.9801  2.1032  1.2172
  901ETH     HC 8107   1.311   5.906   5.137  0.8617 -3.3314 -2.0601
  901ETH     HC 8108   1.132   5.946   5.119 -0.8485 -0.5097  0.0791
  901ETH     HC 8109   1.184   5.803   5.197 -2.8211  0.4615  0.4431
  902ETH     OH 8110   1.152   5.417   2.902 -0.4749 -0.7018 -0.3694
  902ETH     CH 8111   1.230   5.301   2.916  0.0733 -0.2234  0.5554
  902ETH     CH 8112   1.174   5.181   2.839  0.1682  0.2541 -0.2565
  902ETH     HO 8113   1.151   5.477   2.975 -0.1342  0.8249 -1.5962
  902ETH     HC 8114   1.329   5.307   2.872 -0.6563 -1.4090 -1.3110
  902ETH     HC 8115   1.245   5.271   3.020 -0.9713 -3.4547 -0.1681
  902ETH     HC 8116   1.186   5.206   2.734 -1.6481  2.1788 -0.0521
  902ETH     HC 8117   1.232   5.093   2.863  0.9145  0.2385 -2.0883
  902ETH     HC 8118   1.072   5.153   2.865  0.9712 -0.5650  2.1148
  903ETH     OH 8119   3.720   2.480   0.487 -0.3080  0.4048 -0.1849
  903ETH     CH 8120   3.638   2.395   0.411  0.0867  0.0548 -0.2252
  903ETH     CH 8121   3.735   2.296   0.347  0.3008  0.1561 -0.0560
  903ETH     HO 8122   3.673   2.562   0.487  0.5818  0.9580 -2.7674
  903ETH     HC 8123   3.581   2.348   0.491 -0.1421  0.3722 -0.1994
  903ETH     HC 8124   3.579   2.447   0.335  1.5505  2.0845  0.0140
  903ETH     HC 8125   3.678   2.223   0.289 -0.4147  1.1772 -0.6359
  903ETH     HC 8126   3.798   2.355   0.281 -2.0891  1.0170 -1.6453
  903ETH     HC 8127   3.799   2.249   0.422 -0.9054 -0.4259  0.6349
  904ETH     OH 8128   3.604   4.331   0.843  0.1493 -0.0785 -0.0585
  904ETH     CH 8129   3.706   4.334   0.746  0.2373 -0.4872  0.0208
  904ETH     CH 8130   3.798   4.454   0.775  0.1290 -0.5284  0.5434
  904ETH     HO 8131   3.530   4.384   0.818  1.0475  0.4519 -1.6560
  904ETH     HC 8132   3.755   4.238   0.758  1.2633  0.0146 -0.0227
  904ETH     HC 8133   3.663   4.342   0.646 -1.0948 -0.8471  0.5534
  904ETH     HC 8134   3.731   4.540   0.770  0.5525 -0.2098  0.3025
  904ETH     HC 8135   3.832   4.457   0.878 -2.1012 -3.1143  1.4305
  904ETH     HC 8136   3.878   4.466   0.702 -2.2852  3.0820 -1.6849
  905ETH     OH 8137   1.686   2.898   1.024 -0.2174 -0.0940  0.3886
  905ETH     CH 8138   1.775   2.824   1.105  0.0733  0.3835  0.5096
  905ETH     CH 8139   1.919   2.868   1.080  0.4613 -0.5190  1.1507
  905ETH     HO 8140   1.694   2.988   1.051 -0.5091  0.1800 -0.4145
  905ETH     HC 8141   1.741   2.834   1.208  0.6292  2.1370  0.5362
  905ETH     HC 8142   1.763   2.721   1.070 -2.7109  0.1144  2.0807
  905ETH     HC 8143   1.941   2.855   0.974 -1.3130  0.2043  0.6775
  905ETH     HC 8144   1.941   2.971   1.109 -1.6079  0.9123 -2.1059
  905ETH     HC 8145   1.983   2.799   1.136 -0.9431 -2.9689 -0.1756
  906ETH     OH 8146   2.721   2.139   1.677  0.2227 -0.1506 -0.1050
  906ETH     CH 8147   2.828   2.189   1.601  0.2327 -0.4981 -0.3211
  906ETH     CH 8148   2.842   2.094   1.482 -0.0061 -0.5114 -0.3390
  906ETH     HO 8149   2.636   2.169   1.649  0.6712 -1.1630 -2.6758
  906ETH     HC 8150   2.796   2.290   1.575  0.1668 -0.8676 -1.7434
  906ETH     HC 8151   2.919   2.183   1.661 -0.1777  1.6651  0.5683
  906ETH     HC 8152   2.879   2.000   1.521  1.1645  0.1484  0.1779
  906ETH     HC 8153   2.754   2.093   1.417  1.6746  1.0916 -2.7496
  906ETH     HC 8154   2.922   2.124   1.415  0.4981 -0.9671  0.0596
  907ETH     OH 8155   1.610   1.588   6.199  0.2240 -0.0352  0.1308
  907ETH     CH 8156   1.730   1.525   6.161  0.3161  0.1868  0.0462
  907ETH     CH 8157   1.722   1.444   6.032 -0.7227  0.0127  0.2158
  907ETH     HO 8158   1.603   1.596   6.292  0.2879  0.7357  0.0740
  907ETH     HC 8159   1.798   1.608   6.143  2.3159 -1.1691  1.0073
  907ETH     HC 8160   1.763   1.451   6.235 -2.7131 -0.8197  0.4440
  907ETH     HC 8161   1.643   1.369   6.035 -1.4642  0.7340 -0.9620
  907ETH     HC 8162   1.696   1.508   5.947  0.6697 -1.2807 -1.2154
  907ETH     HC 8163   1.817   1.391   6.020 -1.7156 -1.8290  0.2286
  908ETH     OH 8164   5.857   0.361   0.433 -0.4114 -0.5746 -0.2014
  908ETH     CH 8165   5.993   0.330   0.447 -0.4126 -0.2842  0.4914
  908ETH     CH 8166   6.070   0.441   0.519  0.1143 -0.0394 -0.4365
  908ETH     HO 8167   5.846   0.407   0.352  0.1325 -1.1894 -0.6278
  908ETH     HC 8168   6.011   0.237   0.502  0.4297 -0.1186  0.5022
  908ETH     HC 8169   6.039   0.307   0.351 -0.6254 -2.8311  0.9433
  908ETH     HC 8170   6.039   0.454   0.623  0.7069 -1.4896 -0.0660
  908ETH     HC 8171   6.177   0.425   0.523 -0.0882 -2.8659 -3.8033
  908ETH     HC 8172   6.048   0.527   0.457  2.7877 -0.4419 -2.0116
  909ETH     OH 8173   4.925   4.492   0.620  0.3811  0.2038 -0.5903
  909ETH     CH 8174   4.938   4.355   0.589  0.7338  0.1345 -0.1299
  909ETH     CH 8175   4.939   4.272   0.718  1.0635 -0.6045 -0.6082
  909ETH     HO 8176   4.919   4.546   0.543 -0.6302  1.0314  0.0637
  909ETH     HC 8177   4.850   4.333   0.529  1.3676  0.0397 -1.0411
  909ETH     HC 8178   5.020   4.347   0.518  2.4283  2.7156  1.4373
  909ETH     HC 8179   5.031   4.287   0.774  1.3155  0.7418 -1.3661
  909ETH     HC 8180   4.861   4.278   0.794  1.0136  1.8659 -0.8348
  909ETH     HC 8181   4.935   4.166   0.690  0.6280 -1.0159  0.9798
  910ETH     OH 8182   5.537   1.068   1.951  0.1092 -0.2694  0.1396
  910ETH     CH 8183   5.555   0.934   1.912 -0.3023 -0.3170  0.1151
  910ETH     CH 8184   5.671   0.922   1.813 -0.1746  0.5867  0.1581
  910ETH     HO 8185   5.485   1.074   2.030 -0.4904 -0.3861 -0.2455
  910ETH     HC 8186   5.568   0.878   2.004 -0.6821 -1.3611 -0.4531
  910ETH     HC 8187   5.467   0.898   1.858 -0.1219  1.9590 -1.7825
  910ETH     HC 8188   5.767   0.921   1.864 -0.3523 -0.8130  0.4682
  910ETH     HC 8189   5.670   0.824   1.766  0.3037  0.4962  0.3325
  910ETH     HC 8190   5.666   0.998   1.734 -0.7351  0.2504 -0.1328
  911ETH     OH 8191   4.410   2.318   0.027 -0.2244 -0.5800 -0.5021
  911ETH     CH 8192   4.499   2.210   0.012  0.0454 -0.4341  0.0512
  911ETH     CH 8193   4.431   2.111  -0.083  0.0414 -0.2915 -0.0940
  911ETH     HO 8194   4.459   2.379   0.079 -2.5159 -1.3981  2.7384
  911ETH     HC 8195   4.595   2.242  -0.029 -0.2914 -1.4706 -1.5873
  911ETH     HC 8196   4.530   2.169   0.108  0.2736  2.0701  1.0883
  911ETH     HC 8197   4.407   2.148  -0.182 -0.0606 -1.4417 -0.5028
  911ETH     HC 8198   4.500   2.028  -0.097 -3.4762 -3.1442 -1.3346
  911ETH     HC 8199   4.350   2.056  -0.035  0.8847 -1.0146  0.5292
  912ETH     OH 8200   3.642   0.945   3.417  0.0245 -0.2916  0.0592
  912ETH     CH 8201   3.680   0.895   3.291 -0.0473  0.2349 -0.1724
  912ETH     CH 8202   3.582   0.783   3.256  0.0949  0.1673 -0.3609
  912ETH     HO 8203   3.687   1.028   3.419  0.2713 -0.3963 -1.0761
  912ETH     HC 8204   3.782   0.856   3.289 -0.8937 -2.0051 -2.0712
  912ETH     HC 8205   3.677   0.978   3.221  0.5030  1.6265  1.4135
  912ETH     HC 8206   3.602   0.739   3.159 -2.5540 -1.0685 -0.4030
  912ETH     HC 8207   3.602   0.699   3.323  1.1738  1.6399  1.1940
  912ETH     HC 8208   3.476   0.809   3.254 -0.5589 -2.3293 -0.4119
  913ETH     OH 8209   5.901   4.685   2.848  0.4253 -0.6250 -0.6731
  913ETH     CH 8210   6.006   4.697   2.754  0.6260  0.3793 -0.3291
  913ETH     CH 8211   5.959   4.752   2.619  0.0690  0.1053 -0.2471
  913ETH     HO 8212   5.817   4.664   2.810  0.2824 -0.7308 -0.2967
  913ETH     HC 8213   6.096   4.755   2.776  0.5434 -0.2696  1.8589
  913ETH     HC 8214   6.045   4.598   2.733  1.0479  0.5538 -0.3852
  913ETH     HC 8215   6.038   4.755   2.544 -0.5765  1.2870 -0.8938
  913ETH     HC 8216   5.867   4.698   2.596  0.3585 -0.2454 -0.5902
  913ETH     HC 8217   5.914   4.851   2.621 -1.0477 -0.4004  0.6143
  914ETH     OH 8218   1.337   0.388   3.724  0.2691 -0.1760  0.5000
  914ETH     CH 8219   1.449   0.329   3.660  0.2910  0.4302 -0.0241
  914ETH     CH 8220   1.475   0.211   3.753 -0.5519 -0.0214 -0.3563
  914ETH     HO 8221   1.357   0.434   3.804 -0.4517  0.7897  0.1270
  914ETH     HC 8222   1.420   0.292   3.562 -2.7364  1.0140  0.5832
  914ETH     HC 8223   1.522   0.408   3.642 -1.9191  2.2722 -1.1829
  914ETH     HC 8224   1.571   0.172   3.721 -0.3655  0.2610 -0.1409
  914ETH     HC 8225   1.497   0.240   3.856 -0.6319  1.0407 -0.6397
  914ETH     HC 8226   1.406   0.128   3.739 -1.9806  1.1396 -0.3089
  915ETH     OH 8227   4.926   2.216   6.071 -0.2434  0.2304 -0.6317
  915ETH     CH 8228   4.982   2.087   6.078  0.2374  0.4544 -0.3530
  915ETH     CH 8229   5.109   2.054   5.999  0.3844 -0.0780  0.1036
  915ETH     HO 8230   4.967   2.268   6.138  0.8631  0.3402 -1.3640
  915ETH     HC 8231   4.921   2.010   6.032  1.4372 -1.2696  0.8882
  915ETH     HC 8232   5.005   2.079   6.185 -0.8443  3.3887  0.1510
  915ETH     HC 8233   5.102   2.059   5.891 -0.1832 -2.2740  0.0188
  915ETH     HC 8234   5.191   2.118   6.030  1.5569 -1.6746  0.3087
  915ETH     HC 8235   5.140   1.961   6.046 -0.3051 -1.6476 -2.4424
  916ETH     OH 8236   5.125   0.508   2.962 -0.2647  0.1713  0.4724
  916ETH     CH 8237   5.257   0.463   2.978 -0.1330  0.4223  0.1061
  916ETH     CH 8238   5.360   0.577   2.975  0.3337  0.0320  1.0431
  916ETH     HO 8239   5.066   0.437   2.982 -0.0021 -0.1312  0.1765
  916ETH     HC 8240   5.276   0.388   3.055  0.0594  2.0814  1.7024
  916ETH     HC 8241   5.276   0.390   2.900 -0.2586  0.8539 -0.3271
  916ETH     HC 8242   5.459   0.532   2.970  0.9272  1.5422 -1.5872
  916ETH     HC 8243   5.360   0.638   2.885 -1.1286 -0.2408  0.8406
  916ETH     HC 8244   5.342   0.640   3.062 -1.8093 -1.1855  1.5337
  917ETH     OH 8245   5.065   1.547   5.322 -0.3655  0.0395  0.1440
  917ETH     CH 8246   5.192   1.561   5.382 -0.3528 -0.0067  0.1277
  917ETH     CH 8247   5.219   1.709   5.409 -0.2183 -0.0519  0.2435
  917ETH     HO 8248   5.082   1.571   5.232 -0.1410 -2.8515 -0.6240
  917ETH     HC 8249   5.206   1.507   5.476  0.7482 -0.3808 -0.2415
  917ETH     HC 8250   5.260   1.517   5.310  0.3521  1.5659 -0.2008
  917ETH     HC 8251   5.198   1.757   5.314 -1.8517 -2.1076 -0.4640
  917ETH     HC 8252   5.155   1.750   5.488  0.5329  2.3977 -0.3571
  917ETH     HC 8253   5.323   1.727   5.434 -0.2745 -1.2105  1.3979
  918ETH     OH 8254   1.885   1.005   5.540 -0.2118  0.2847 -0.0849
  918ETH     CH 8255   1.929   1.007   5.406  0.1017 -0.6516  0.0031
  918ETH     CH 8256   2.071   1.061   5.389 -0.3078  0.4346 -0.0214
  918ETH     HO 8257   1.897   0.918   5.575 -0.0090  0.7012  0.8891
  918ETH     HC 8258   1.913   0.906   5.369 -0.9664 -0.1276 -0.9942
  918ETH     HC 8259   1.865   1.072   5.347  0.4238 -0.2820  0.0610
  918ETH     HC 8260   2.074   1.167   5.413  0.5287  0.8489 -1.8131
  918ETH     HC 8261   2.138   1.014   5.462  0.3380  0.0442 -0.8453
  918ETH     HC 8262   2.114   1.041   5.291  0.6474  1.5666  0.1541
  919ETH     OH 8263   0.300   2.917   3.989 -0.2083 -0.1035  0.2061
  919ETH     CH 8264   0.166   2.944   3.953 -0.1073  0.0041 -0.0914
  919ETH     CH 8265   0.122   2.889   3.818 -0.2706  0.0673 -0.0639
  919ETH     HO 8266   0.305   2.823   3.993 -2.4151 -0.1919  1.8612
  919ETH     HC 8267   0.113   2.890   4.032 -2.7919  0.5113 -1.5019
  919ETH     HC 8268   0.136   3.049   3.957 -1.5175 -0.3925  0.1921
  919ETH     HC 8269   0.128   2.781   3.817  0.3969  0.1005  0.3687
  919ETH     HC 8270   0.018   2.918   3.797 -0.2768  0.8447  1.0315
  919ETH     HC 8271   0.189   2.928   3.741 -0.3397  0.7328  0.2094
  920ETH     OH 8272   3.467   6.160   4.121  0.2485  0.1948 -0.5704
  920ETH     CH 8273   3.584   6.117   4.185 -0.1146  0.3982  0.2356
  920ETH     CH 8274   3.700   6.188   4.115 -0.0629 -0.1882 -0.2760
  920ETH     HO 8275   3.458   6.252   4.144 -0.2974 -0.5209  2.1831
  920ETH     HC 8276   3.574   6.142   4.291 -0.7706 -0.5983  0.4116
  920ETH     HC 8277   3.586   6.008   4.178  1.7931  0.4784 -0.9107
  920ETH     HC 8278   3.709   6.169   4.008 -0.0032 -0.4553 -0.2238
  920ETH     HC 8279   3.692   6.297   4.124  0.3963 -0.0316 -1.6157
  920ETH     HC 8280   3.802   6.176   4.151  0.7670  0.7081 -2.2561
  921ETH     OH 8281   5.372   6.064   0.996 -0.2135 -0.0437  0.1101
  921ETH     CH 8282   5.429   6.084   0.869 -0.1551 -0.2375  0.1055
  921ETH     CH 8283   5.382   5.973   0.776  0.1749 -0.1517 -0.1649
  921ETH     HO 8284   5.412   6.131   1.050  1.4294 -1.0989  0.2324
  921ETH     HC 8285   5.402   6.182   0.828 -0.9334  0.9196  3.2642
  921ETH     HC 8286   5.535   6.080   0.895 -0.4467 -0.1916  1.2984
  921ETH     HC 8287   5.413   5.875   0.813 -2.2542 -0.9464 -0.1281
  921ETH     HC 8288   5.273   5.966   0.771  0.1847  0.1842 -0.9689
  921ETH     HC 8289   5.422   5.981   0.674  0.2629 -1.3062 -0.2348
  922ETH     OH 8290   0.274   0.298   4.324 -0.2305 -0.5776  0.2095
  922ETH     CH 8291   0.271   0.381   4.210 -0.0580  0.1704  0.7439
  922ETH     CH 8292   0.245   0.285   4.094 -0.0365  0.6294  0.3598
  922ETH     HO 8293   0.361   0.265   4.342  0.2277 -0.0562 -1.0339
  922ETH     HC 8294   0.193   0.456   4.220  0.6480  1.3026 -1.8791
  922ETH     HC 8295   0.370   0.427   4.209  1.9935 -4.0098 -0.1454
  922ETH     HC 8296   0.148   0.242   4.121  0.7581 -0.1305  2.0322
  922ETH     HC 8297   0.242   0.338   3.999  1.9240  0.7054  0.3300
  922ETH     HC 8298   0.322   0.210   4.078 -0.0380  0.9135 -1.0914
  923ETH     OH 8299   1.058   1.118   5.401  0.0406 -0.9769  0.0495
  923ETH     CH 8300   1.141   1.163   5.506 -0.2992  0.0290 -0.1111
  923ETH     CH 8301   1.253   1.246   5.445 -0.1432 -0.2413 -0.1915
  923ETH     HO 8302   1.004   1.043   5.422 -0.8801 -1.2165 -3.0283
  923ETH     HC 8303   1.085   1.208   5.588 -0.4206 -1.0646  0.4189
  923ETH     HC 8304   1.175   1.071   5.554  0.1569 -0.0971 -0.6819
  923ETH     HC 8305   1.311   1.293   5.524 -0.8170  0.9267 -0.3830
  923ETH     HC 8306   1.308   1.183   5.374  0.9863  0.1043  0.3617
  923ETH     HC 8307   1.210   1.328   5.387 -2.0541 -0.9423  0.2185
  924ETH     OH 8308   0.762   5.160   5.037  0.1729  0.2148 -0.2802
  924ETH     CH 8309   0.718   5.294   5.036 -0.1261  0.1204  0.3190
  924ETH     CH 8310   0.571   5.307   4.995 -0.0559 -1.0959 -0.3681
  924ETH     HO 8311   0.742   5.116   5.118 -0.8933 -1.4148 -1.3868
  924ETH     HC 8312   0.730   5.341   5.134  1.4333 -0.9601  0.6753
  924ETH     HC 8313   0.776   5.356   4.968 -0.5445 -0.0678 -0.2193
  924ETH     HC 8314   0.554   5.274   4.893 -0.4925 -0.2847 -0.5635
  924ETH     HC 8315   0.501   5.269   5.069 -0.0774 -0.0544  0.1674
  924ETH     HC 8316   0.542   5.411   4.977 -2.1578 -1.0349  2.9819
  925ETH     OH 8317   4.225   6.205   6.273 -0.0325 -0.2722 -0.1543
  925ETH     CH 8318   4.147   6.093   6.235  0.0401 -0.3753  0.0012
  925ETH     CH 8319   3.999   6.129   6.223  0.0874 -0.2000 -0.0673
  925ETH     HO 8320   4.259   6.242   6.193 -1.5522  1.8802  0.1654
  925ETH     HC 8321   4.197   6.049   6.149 -1.2347 -2.0779  0.1164
  925ETH     HC 8322   4.149   6.019   6.315 -1.9274 -1.3254 -0.7970
  925ETH     HC 8323   3.959   6.138   6.324 -1.1566 -1.1365 -0.4561
  925ETH     HC 8324   3.983   6.223   6.170 -2.9001 -1.8047 -2.1820
  925ETH     HC 8325   3.943   6.054   6.167  0.1630  0.4328 -1.0058
  926ETH     OH 8326   4.136   0.172   4.416 -0.7272  0.2085 -0.0974
  926ETH     CH 8327   4.118   0.257   4.527 -0.1892  0.0841  0.0832
  926ETH     CH 8328   4.147   0.186   4.659  0.4069 -0.2912 -0.2436
  926ETH     HO 8329   4.087   0.092   4.425 -0.7342  0.0540 -1.3726
  926ETH     HC 8330   4.186   0.342   4.519 -1.0333  0.8696  1.1100
  926ETH     HC 8331   4.017   0.296   4.519 -0.5758 -0.8494  0.4643
  926ETH     HC 8332   4.163   0.256   4.742  1.3711  1.1551 -1.6323
  926ETH     HC 8333   4.060   0.125   4.686  0.9835 -0.1090  2.1218
  926ETH     HC 8334   4.243   0.136   4.650 -0.1053 -1.4873  0.7278
  927ETH     OH 8335   3.050   5.723   6.053  0.0373  0.5017  0.0445
  927ETH     CH 8336   3.054   5.753   5.915 -0.2435 -0.0051 -0.0753
  927ETH     CH 8337   2.985   5.888   5.891 -0.3933 -0.0591  0.0515
  927ETH     HO 8338   3.048   5.629   6.061 -1.4855  0.4480 -0.6901
  927ETH     HC 8339   3.154   5.767   5.876  0.1796 -1.1950  0.5688
  927ETH     HC 8340   3.012   5.666   5.865  0.1805 -0.9815  1.2465
  927ETH     HC 8341   2.988   5.929   5.790  0.5603 -0.9634 -0.2965
  927ETH     HC 8342   2.878   5.876   5.907 -0.4205 -0.5847 -0.4945
  927ETH     HC 8343   3.025   5.969   5.951  1.1852  0.5340 -1.7542
  928ETH     OH 8344   5.398   1.063   4.348  0.0021  0.1393  0.1518
  928ETH     CH 8345   5.275   1.129   4.325 -0.1626 -0.2365 -0.0486
  928ETH     CH 8346   5.305   1.247   4.234 -0.8707  0.3929  0.5271
  928ETH     HO 8347   5.386   0.993   4.411  1.9234 -0.8646 -0.5588
  928ETH     HC 8348   5.201   1.066   4.276  0.2163 -1.3954  0.8239
  928ETH     HC 8349   5.230   1.151   4.422 -0.3223 -0.7264 -0.0082
  928ETH     HC 8350   5.368   1.321   4.283 -0.2069  0.5908 -0.5912
  928ETH     HC 8351   5.360   1.222   4.143  1.1219  0.0829  1.7937
  928ETH     HC 8352   5.209   1.296   4.218 -0.2452  2.3867  2.5423
  929ETH     OH 8353   1.205   1.568   5.978 -0.4040 -0.0346 -0.5548
  929ETH     CH 8354   1.317   1.653   5.970 -0.2623 -0.1523  0.1491
  929ETH     CH 8355   1.306   1.690   5.822 -0.1541  0.0576  0.1926
  929ETH     HO 8356   1.234   1.483   5.950 -0.3145 -0.4439  0.7700
  929ETH     HC 8357   1.308   1.733   6.043  2.4053  1.7912 -1.5511
  929ETH     HC 8358   1.413   1.606   5.992 -1.2379 -0.5942  3.8339
  929ETH     HC 8359   1.213   1.744   5.805 -1.9550 -2.8355  0.5385
  929ETH     HC 8360   1.379   1.764   5.789  1.1338 -0.9061  0.8738
  929ETH     HC 8361   1.281   1.610   5.753  0.2895  0.3838 -0.3448
  930ETH     OH 8362   3.636   2.332   5.494  0.1968  0.2559  0.1811
  930ETH     CH 8363   3.699   2.277   5.608  0.8858  0.1765 -0.2364
  930ETH     CH 8364   3.805   2.176   5.563  0.9718 -0.2243  0.8647
  930ETH     HO 8365   3.558   2.377   5.523 -0.3525 -1.4376  1.3915
  930ETH     HC 8366   3.736   2.363   5.663  1.0165 -0.2301  0.3184
  930ETH     HC 8367   3.627   2.228   5.673  0.8465 -0.8516 -1.0331
  930ETH     HC 8368   3.750   2.096   5.514  1.7092 -1.5871  2.2321
  930ETH     HC 8369   3.874   2.215   5.489 -0.3718 -0.2443 -0.4186
  930ETH     HC 8370   3.862   2.126   5.642  0.5897 -2.3905 -0.1970
  931ETH     OH 8371   6.265   5.350   2.332  0.0458  0.0433 -0.1008
  931ETH     CH 8372   6.213   5.475   2.370  0.0081  0.0286 -0.1033
  931ETH     CH 8373   6.321   5.544   2.454  0.2644  0.4319 -0.7523
  931ETH     HO 8374   6.188   5.305   2.301 -1.0409  1.7323  0.0846
  931ETH     HC 8375   6.177   5.530   2.283  1.7106 -2.6807 -2.5887
  931ETH     HC 8376   6.131   5.444   2.434 -2.5356  3.0996 -1.7024
  931ETH     HC 8377   6.404   5.565   2.388  2.4047  0.9566  2.0214
  931ETH     HC 8378   6.294   5.640   2.497  0.7820  0.7557 -1.1500
  931ETH     HC 8379   6.356   5.479   2.534  1.6110  1.0303 -0.8477
  932ETH     OH 8380   2.963   3.474   6.224 -0.1502  0.6469 -0.0653
  932ETH     CH 8381   2.983   3.469   6.363  0.1282  1.0406 -0.0920
  932ETH     CH 8382   3.062   3.346   6.408 -0.3980  0.5351 -0.5428
  932ETH     HO 8383   3.044   3.454   6.181  0.6404 -0.5724  1.9553
  932ETH     HC 8384   3.036   3.558   6.396  2.2242 -0.3489  0.3621
  932ETH     HC 8385   2.887   3.470   6.416 -0.0342 -0.0484 -0.3589
  932ETH     HC 8386   3.012   3.254   6.380 -1.4919  1.1041 -0.4605
  932ETH     HC 8387   3.162   3.337   6.365  0.2094 -0.2711  1.0171
  932ETH     HC 8388   3.058   3.348   6.517 -0.1606 -0.5885 -0.5086
  933ETH     OH 8389   2.128   5.458   4.045 -0.2497 -0.1643 -0.2144
  933ETH     CH 8390   2.122   5.342   4.126 -0.4521  0.0732  0.1134
  933ETH     CH 8391   2.200   5.351   4.257 -0.3478 -0.4362  0.0884
  933ETH     HO 8392   2.040   5.483   4.024  0.1801  2.2261  0.7432
  933ETH     HC 8393   2.017   5.324   4.148 -0.5075  0.8999  0.5166
  933ETH     HC 8394   2.160   5.259   4.066  0.0510 -0.4088  1.0850
  933ETH     HC 8395   2.171   5.438   4.316 -0.3505  0.0359 -0.6038
  933ETH     HC 8396   2.205   5.259   4.314  0.9459 -0.7372 -0.4721
  933ETH     HC 8397   2.307   5.364   4.240  0.0780  0.1526  2.9460
  934ETH     OH 8398   2.538   3.944   2.058  0.3125 -0.1778 -0.3592
  934ETH     CH 8399   2.565   3.879   1.936  0.4563 -1.2304  0.2265
  934ETH     CH 8400   2.450   3.790   1.891 -0.1108 -0.0209 -0.7553
  934ETH     HO 8401   2.518   4.034   2.034  1.2920 -0.0835 -0.8443
  934ETH     HC 8402   2.580   3.949   1.854 -2.0937  0.6526  1.2965
  934ETH     HC 8403   2.660   3.826   1.942  1.0451 -1.2123 -5.7952
  934ETH     HC 8404   2.432   3.730   1.980 -0.6652 -0.5802 -1.2343
  934ETH     HC 8405   2.361   3.847   1.866 -0.4662  0.6852  1.9721
  934ETH     HC 8406   2.464   3.715   1.813 -0.6280 -1.1846  0.2545
  935ETH     OH 8407   2.803   4.000   2.254 -0.1310  0.1535 -0.1768
  935ETH     CH 8408   2.768   4.132   2.291  0.2881 -0.0156  0.8264
  935ETH     CH 8409   2.895   4.211   2.323  0.1892  0.6813 -0.5168
  935ETH     HO 8410   2.735   3.988   2.189  0.5408 -0.0401 -0.8515
  935ETH     HC 8411   2.727   4.196   2.214  1.4023 -0.8689 -0.4994
  935ETH     HC 8412   2.699   4.123   2.375 -3.1419 -2.3202 -2.0792
  935ETH     HC 8413   2.950   4.165   2.405 -0.3716 -1.4301 -1.2951
  935ETH     HC 8414   2.969   4.212   2.242  1.0335  1.3607  0.2528
  935ETH     HC 8415   2.861   4.309   2.356 -0.4298  0.3010 -0.0282
  936ETH     OH 8416   2.883   0.161   0.593  0.0522 -0.0133 -0.6450
  936ETH     CH 8417   2.876   0.297   0.558  0.2311  0.1203 -0.1680
  936ETH     CH 8418   2.731   0.343   0.573  0.3647  0.5631 -0.2177
  936ETH     HO 8419   2.805   0.117   0.564  0.4138 -1.3535  0.3568
  936ETH     HC 8420   2.948   0.357   0.614 -1.6994  2.8741 -0.5275
  936ETH     HC 8421   2.897   0.297   0.451  1.2152 -2.8498 -0.0161
  936ETH     HC 8422   2.668   0.292   0.500  1.3462 -0.7621 -0.1484
  936ETH     HC 8423   2.684   0.317   0.668 -2.5532 -0.2017 -1.8134
  936ETH     HC 8424   2.730   0.452   0.564  0.8232  0.5622 -0.3034
  937ETH     OH 8425   1.280   1.311   5.950  0.0862 -0.1241 -0.3843
  937ETH     CH 8426   1.365   1.286   6.060  0.2657 -0.1553 -0.5298
  937ETH     CH 8427   1.299   1.201   6.168  0.4424  0.0324 -0.2735
  937ETH     HO 8428   1.270   1.227   5.908 -0.6644 -0.6764  0.8634
  937ETH     HC 8429   1.455   1.238   6.021  0.9545 -0.3576  1.2788
  937ETH     HC 8430   1.390   1.387   6.094 -0.1935  0.0816 -0.8831
  937ETH     HC 8431   1.306   1.093   6.150 -1.2798  0.2389 -2.4353
  937ETH     HC 8432   1.353   1.212   6.262  0.4498 -3.0089  0.1304
  937ETH     HC 8433   1.191   1.213   6.177  0.5058  0.5717 -0.2488
  938ETH     OH 8434   2.824   2.777   5.220  0.4125  0.1381 -0.9130
  938ETH     CH 8435   2.698   2.773   5.157 -0.2705 -0.4658  0.4572
  938ETH     CH 8436   2.683   2.648   5.070 -0.3886 -0.1846  0.0687
  938ETH     HO 8437   2.892   2.813   5.165 -2.0520  2.9487 -2.2719
  938ETH     HC 8438   2.630   2.763   5.241  0.4655 -0.3214  1.0755
  938ETH     HC 8439   2.669   2.866   5.108 -0.7572 -1.1317 -0.5554
  938ETH     HC 8440   2.769   2.638   5.004  1.8812  1.1196  2.7180
  938ETH     HC 8441   2.672   2.554   5.124 -0.6470  1.0240  2.1756
  938ETH     HC 8442   2.586   2.661   5.022 -0.2438  2.6162  0.4358
  939ETH     OH 8443   3.794   4.661   1.294 -0.0153  0.2654 -0.1385
  939ETH     CH 8444   3.777   4.530   1.244  0.1318  0.1079  0.2180
  939ETH     CH 8445   3.635   4.520   1.188  0.5230 -0.1124 -0.7379
  939ETH     HO 8446   3.749   4.668   1.376 -1.5415 -0.1521 -0.9286
  939ETH     HC 8447   3.853   4.511   1.169 -2.7078  0.5445 -2.9003
  939ETH     HC 8448   3.771   4.452   1.320 -0.6257  0.0314  0.0824
  939ETH     HC 8449   3.621   4.585   1.101 -2.4016 -1.3493 -1.2454
  939ETH     HC 8450   3.617   4.423   1.142  0.0767  0.5710 -2.0339
  939ETH     HC 8451   3.565   4.551   1.266  0.1302  1.6197 -1.7338
  940ETH     OH 8452   5.438   3.260   0.598  0.4574  0.1012 -0.0374
  940ETH     CH 8453   5.521   3.147   0.582  0.1182 -0.1545 -0.0034
  940ETH     CH 8454   5.668   3.188   0.566  0.2309 -0.6750 -0.3120
  940ETH     HO 8455   5.433   3.289   0.688 -1.3258 -2.8810  0.9110
  940ETH     HC 8456   5.509   3.070   0.658  1.6652 -1.5529 -1.1432
  940ETH     HC 8457   5.492   3.107   0.485 -0.8497  4.2331 -1.6560
  940ETH     HC 8458   5.705   3.238   0.476  0.8357 -1.2114 -0.3613
  940ETH     HC 8459   5.701   3.242   0.655  1.4117 -0.2410 -1.0033
  940ETH     HC 8460   5.713   3.089   0.565  0.1149 -0.7415 -3.6616
  941ETH     OH 8461   1.403   4.913   4.130 -0.1528  0.4267  0.1506
  941ETH     CH 8462   1.514   4.989   4.088  0.3608 -0.0607  0.6097
  941ETH     CH 8463   1.528   5.125   4.157  0.4686  0.6566 -0.8001
  941ETH     HO 8464   1.430   4.870   4.210  1.8157  0.7340 -0.3181
  941ETH     HC 8465   1.605   4.938   4.120 -0.0935 -0.6655  0.9443
  941ETH     HC 8466   1.522   4.990   3.979 -1.4999  0.8415  0.4570
  941ETH     HC 8467   1.570   5.198   4.088  1.7815  1.5756  0.9625
  941ETH     HC 8468   1.426   5.155   4.181  0.3336 -0.9448  0.7526
  941ETH     HC 8469   1.588   5.110   4.246  0.7603  0.5862 -1.0082
  942ETH     OH 8470   2.051   5.923   3.509 -0.4989 -0.3938  0.2473
  942ETH     CH 8471   1.933   5.876   3.570 -0.4904  0.2465  0.7605
  942ETH     CH 8472   1.815   5.929   3.489  0.1244 -0.1300 -0.4006
  942ETH     HO 8473   2.117   5.858   3.531 -1.4953 -0.6436  2.6433
  942ETH     HC 8474   1.927   5.767   3.572 -1.6053  0.2750 -0.5024
  942ETH     HC 8475   1.933   5.916   3.672 -1.2273  1.5944  0.2470
  942ETH     HC 8476   1.725   5.934   3.551  0.6074  2.1587  0.1708
  942ETH     HC 8477   1.832   6.033   3.463 -1.5198 -0.2247 -1.9179
  942ETH     HC 8478   1.807   5.877   3.394  2.6823 -2.4990  0.6065
  943ETH     OH 8479   1.186   5.588   1.119 -0.4075 -0.2838 -0.6449
  943ETH     CH 8480   1.064   5.621   1.056 -0.5438  0.2923 -0.0878
  943ETH     CH 8481   1.026   5.765   1.089  0.2780  0.3855  0.4604
  943ETH     HO 8482   1.164   5.582   1.210  2.7233 -2.2787  0.0432
  943ETH     HC 8483   1.060   5.609   0.947  2.1810 -2.0555  0.0257
  943ETH     HC 8484   0.986   5.565   1.107  1.3585 -1.5516  0.8815
  943ETH     HC 8485   1.097   5.826   1.032 -0.3207 -1.0202 -1.8550
  943ETH     HC 8486   0.927   5.793   1.053  0.3948 -0.0992 -0.2434
  943ETH     HC 8487   1.032   5.782   1.197  0.3366  2.9804  0.0899
  944ETH     OH 8488   2.966   5.361   5.120  0.3589 -0.2817 -0.3907
  944ETH     CH 8489   2.998   5.459   5.217 -0.5879 -0.5501  0.2004
  944ETH     CH 8490   3.127   5.522   5.165 -0.9591  0.0513  0.0074
  944ETH     HO 8491   2.872   5.359   5.107  0.2781  0.3996  0.0374
  944ETH     HC 8492   2.922   5.537   5.228 -1.2390 -0.8373 -2.1339
  944ETH     HC 8493   3.022   5.408   5.311  0.6017 -0.9868 -0.3412
  944ETH     HC 8494   3.153   5.599   5.237 -0.7734 -1.0915  1.1810
  944ETH     HC 8495   3.224   5.474   5.169  0.8166  3.2411 -2.4755
  944ETH     HC 8496   3.115   5.568   5.067  3.0151 -4.0312 -2.6118
  945ETH     OH 8497   6.215   0.010   5.352 -0.0475 -0.9976 -0.1155
  945ETH     CH 8498   6.214  -0.079   5.461  0.0308  0.1492  0.8320
  945ETH     CH 8499   6.077  -0.145   5.476  0.0898 -0.0739  0.4017
  945ETH     HO 8500   6.303   0.039   5.337 -0.4069  0.4835  0.5494
  945ETH     HC 8501   6.292  -0.153   5.444 -2.2141 -2.3102  0.8635
  945ETH     HC 8502   6.251  -0.017   5.543  0.3653  0.3204  0.5519
  945ETH     HC 8503   6.061  -0.199   5.570 -1.4067 -0.0636  0.1633
  945ETH     HC 8504   5.993  -0.077   5.462  0.3842  0.2399  0.1464
  945ETH     HC 8505   6.065  -0.222   5.400 -1.6096 -0.2398  0.8030
  946ETH     OH 8506   4.354   4.092   1.156  0.4103 -0.2285 -0.0642
  946ETH     CH 8507   4.434   4.189   1.092  0.0863 -0.2739 -0.5367
  946ETH     CH 8508   4.371   4.231   0.959 -0.6112  0.0235 -0.1155
  946ETH     HO 8509   4.311   4.040   1.089  0.6452 -1.2438  0.5650
  946ETH     HC 8510   4.439   4.279   1.152  1.0342 -0.1940 -0.7391
  946ETH     HC 8511   4.535   4.149   1.089  0.2070 -0.1801  1.8899
  946ETH     HC 8512   4.269   4.264   0.980  0.1907  1.0846  2.3021
  946ETH     HC 8513   4.428   4.315   0.919  1.1901 -0.1678  1.9603
  946ETH     HC 8514   4.350   4.153   0.886 -1.8316  0.5669 -0.3660
  947ETH     OH 8515   4.092   3.274   5.991 -0.4122  0.3425  0.6186
  947ETH     CH 8516   4.088   3.405   5.940  0.0322  0.3431  0.5855
  947ETH     CH 8517   3.944   3.456   5.938 -0.1150 -0.0680  0.8829
  947ETH     HO 8518   4.184   3.252   5.989 -0.5210 -0.1000  0.2804
  947ETH     HC 8519   4.157   3.480   5.980 -2.0939  1.0078  3.1374
  947ETH     HC 8520   4.110   3.385   5.835 -4.5062 -0.6763 -0.2705
  947ETH     HC 8521   3.879   3.442   6.025 -1.4880 -0.7526 -0.2338
  947ETH     HC 8522   3.933   3.559   5.904 -1.4324  0.5775  3.1438
  947ETH     HC 8523   3.892   3.402   5.859  1.4005  1.7179 -1.3822
  948ETH     OH 8524   3.569   2.073   1.650  0.2166 -0.2170 -0.9045
  948ETH     CH 8525   3.487   2.182   1.613 -0.2751 -0.1637  0.3243
  948ETH     CH 8526   3.583   2.297   1.581  0.2763 -0.8176 -0.3931
  948ETH     HO 8527   3.508   2.002   1.658  0.1496  0.0983  1.7164
  948ETH     HC 8528   3.428   2.166   1.523 -2.8611 -0.3090  2.0053
  948ETH     HC 8529   3.413   2.218   1.684 -1.8918  0.5006 -1.6657
  948ETH     HC 8530   3.657   2.274   1.504  0.2751 -2.6651  0.1473
  948ETH     HC 8531   3.535   2.377   1.525 -0.2305 -0.4838  0.5061
  948ETH     HC 8532   3.635   2.338   1.667 -2.2567  2.2122 -0.2041
  949ETH     OH 8533   5.513   2.713   5.323  0.1143 -0.1131  0.1472
  949ETH     CH 8534   5.470   2.816   5.409  0.0417 -0.2338  0.2565
  949ETH     CH 8535   5.524   2.788   5.549  0.1303 -0.0102  0.2676
  949ETH     HO 8536   5.461   2.637   5.345 -0.0341 -0.1171 -0.2114
  949ETH     HC 8537   5.505   2.910   5.366  0.0525 -0.4747 -0.2648
  949ETH     HC 8538   5.362   2.832   5.418  0.1035  1.6527 -1.9295
  949ETH     HC 8539   5.499   2.870   5.615  0.8774  1.8416 -1.7061
  949ETH     HC 8540   5.485   2.694   5.590  1.8558  0.1528  2.3627
  949ETH     HC 8541   5.632   2.777   5.555  0.1836  0.9815  1.3813
  950ETH     OH 8542   0.815   3.678   5.204 -0.1084  0.0260 -0.0360
  950ETH     CH 8543   0.892   3.647   5.318  0.0185 -0.5197 -0.2656
  950ETH     CH 8544   1.035   3.601   5.290  0.1388 -0.2608 -0.0786
  950ETH     HO 8545   0.733   3.709   5.238 -0.1004 -2.6150  2.5951
  950ETH     HC 8546   0.899   3.733   5.384 -1.0235 -1.1896  0.7295
  950ETH     HC 8547   0.838   3.584   5.387 -1.0051  0.4017 -0.2128
  950ETH     HC 8548   1.044   3.517   5.221 -1.1779  0.1946 -0.8120
  950ETH     HC 8549   1.101   3.681   5.255  0.5423  0.4304  2.1734
  950ETH     HC 8550   1.083   3.577   5.385  0.2185 -0.0491 -0.0637
  951ETH     OH 8551   4.880   1.397   4.853  0.7415  0.5444 -0.2286
  951ETH     CH 8552   4.813   1.449   4.966  0.3479 -0.2081 -0.1126
  951ETH     CH 8553   4.696   1.358   5.005  0.4331 -0.0328  0.5597
  951ETH     HO 8554   4.814   1.364   4.793  0.6017  0.6397 -0.1269
  951ETH     HC 8555   4.882   1.464   5.048  0.5161 -2.6450  0.2471
  951ETH     HC 8556   4.778   1.546   4.932  2.6629  0.4320 -0.7569
  951ETH     HC 8557   4.728   1.262   5.044  0.4336  0.5144  1.9465
  951ETH     HC 8558   4.650   1.407   5.091 -0.6889  1.2531 -0.7479
  951ETH     HC 8559   4.619   1.354   4.928  0.6572  0.9058  0.2803
  952ETH     OH 8560   1.340   0.422   5.185  0.2067 -0.3483 -0.1634
  952ETH     CH 8561   1.341   0.388   5.322  0.1086 -0.4953 -0.1981
  952ETH     CH 8562   1.419   0.259   5.346 -0.4604 -0.7383  0.3807
  952ETH     HO 8563   1.295   0.348   5.147  0.4644 -0.5822 -0.0199
  952ETH     HC 8564   1.395   0.468   5.372 -0.4431 -0.0996 -0.2213
  952ETH     HC 8565   1.246   0.406   5.374  0.3451  2.7902 -0.7811
  952ETH     HC 8566   1.419   0.246   5.454 -0.8232 -2.7156  0.1472
  952ETH     HC 8567   1.358   0.174   5.318 -1.6796  0.2472 -0.0211
  952ETH     HC 8568   1.521   0.248   5.309 -0.9162  0.3560 -1.2800
  953ETH     OH 8569   5.448   5.383   2.147 -0.1457  0.6426  0.1921
  953ETH     CH 8570   5.359   5.281   2.111  0.0821  0.3062  0.5738
  953ETH     CH 8571   5.237   5.278   2.203  0.2040 -0.0523  0.7249
  953ETH     HO 8572   5.478   5.361   2.234  3.3008  0.3935 -0.9562
  953ETH     HC 8573   5.331   5.300   2.007  0.0670 -1.2452  0.2831
  953ETH     HC 8574   5.415   5.188   2.120 -1.1453 -0.5811 -0.6895
  953ETH     HC 8575   5.261   5.260   2.308 -3.4030  1.0890  1.8152
  953ETH     HC 8576   5.184   5.373   2.191 -2.7024 -1.6454  0.5950
  953ETH     HC 8577   5.167   5.200   2.174 -0.8588  1.6572 -1.4111
  954ETH     OH 8578   1.711   3.219   3.899 -0.0180 -0.1844  0.0710
  954ETH     CH 8579   1.702   3.268   3.768 -0.3461 -0.0037  0.1606
  954ETH     CH 8580   1.666   3.160   3.666 -0.0483  0.5798 -0.5750
  954ETH     HO 8581   1.797   3.179   3.905  0.1458  0.2293  0.5210
  954ETH     HC 8582   1.615   3.334   3.770 -1.4912 -1.4911 -0.1848
  954ETH     HC 8583   1.792   3.317   3.729 -0.0007 -1.4021 -0.8355
  954ETH     HC 8584   1.579   3.108   3.706  0.2113  0.2136 -0.4812
  954ETH     HC 8585   1.647   3.202   3.568 -0.3968  0.5289 -0.5295
  954ETH     HC 8586   1.743   3.083   3.651  1.5409  2.1105 -0.4222
  955ETH     OH 8587   1.390   2.662   1.712 -0.2848 -0.2352  0.5797
  955ETH     CH 8588   1.353   2.635   1.579  0.3096  0.1402  0.3370
  955ETH     CH 8589   1.434   2.736   1.498 -0.1832  0.1406 -0.1565
  955ETH     HO 8590   1.354   2.595   1.769  0.4215  0.0112  1.3346
  955ETH     HC 8591   1.375   2.532   1.552 -1.5336 -0.0671 -0.4250
  955ETH     HC 8592   1.246   2.647   1.561  0.2316 -0.3799  0.4631
  955ETH     HC 8593   1.398   2.837   1.519  0.3959  0.1883  0.6315
  955ETH     HC 8594   1.542   2.723   1.510 -0.1073  1.2201  0.3904
  955ETH     HC 8595   1.417   2.721   1.391 -0.2450 -1.4423  0.0638
  956ETH     OH 8596   3.647   2.742   0.498 -0.4219  0.0426  0.3044
  956ETH     CH 8597   3.526   2.793   0.548 -0.2783  0.8093 -0.1166
  956ETH     CH 8598   3.456   2.675   0.615  0.1141  0.1544 -0.8467
  956ETH     HO 8599   3.675   2.789   0.420  0.4512  0.2558  0.7315
  956ETH     HC 8600   3.542   2.867   0.627  0.7160  0.9159 -0.4070
  956ETH     HC 8601   3.456   2.840   0.479 -0.1944  0.0992 -0.6824
  956ETH     HC 8602   3.398   2.716   0.699 -0.0760  0.2913 -1.0438
  956ETH     HC 8603   3.381   2.627   0.553 -0.2324  0.2007 -0.4716
  956ETH     HC 8604   3.530   2.614   0.667 -0.3921  0.3561  0.1346
  957ETH     OH 8605   4.496   5.628   3.950  0.5912 -0.2203 -0.4503
  957ETH     CH 8606   4.487   5.722   4.055  0.1847 -0.0910 -0.6010
  957ETH     CH 8607   4.343   5.759   4.092  0.2570 -0.1164 -0.2871
  957ETH     HO 8608   4.457   5.550   3.987 -0.1449 -0.3133 -1.4056
  957ETH     HC 8609   4.539   5.676   4.140 -0.7102  0.7619  0.4214
  957ETH     HC 8610   4.544   5.810   4.027  0.5156 -0.0750  0.1163
  957ETH     HC 8611   4.276   5.777   4.008  0.6933  0.3246 -0.5472
  957ETH     HC 8612   4.299   5.678   4.149  0.1620 -0.4812 -0.8720
  957ETH     HC 8613   4.337   5.849   4.153 -2.4828 -0.3529 -0.1705
  958ETH     OH 8614   2.043   1.549   2.963 -0.4616  0.4433  0.1969
  958ETH     CH 8615   2.172   1.581   2.915 -0.4901  0.4921  0.1527
  958ETH     CH 8616   2.193   1.731   2.899 -0.9524  0.4971 -0.4171
  958ETH     HO 8617   2.048   1.586   3.050  1.6404  1.6668 -0.3774
  958ETH     HC 8618   2.234   1.535   2.992  0.0804  2.7811  1.1060
  958ETH     HC 8619   2.181   1.529   2.820  1.2299 -1.2739  1.2292
  958ETH     HC 8620   2.284   1.753   2.842 -0.9546 -1.1884 -1.1053
  958ETH     HC 8621   2.115   1.770   2.834 -0.0290  1.5563 -0.9103
  958ETH     HC 8622   2.206   1.793   2.988  0.8167 -1.7218  0.9064
  959ETH     OH 8623   1.006   0.406   2.597  0.0849 -0.1783  0.1718
  959ETH     CH 8624   0.890   0.455   2.661  0.2837  0.0698  0.3448
  959ETH     CH 8625   0.926   0.544   2.779  0.2473  0.0069  0.4036
  959ETH     HO 8626   1.052   0.341   2.647  2.1858  0.4519 -0.8653
  959ETH     HC 8627   0.829   0.508   2.588  1.9437  3.2048  1.1510
  959ETH     HC 8628   0.822   0.376   2.694 -0.6596  1.1501  1.0037
  959ETH     HC 8629   0.956   0.471   2.854 -0.4922  0.7586  1.4600
  959ETH     HC 8630   1.012   0.609   2.764  0.9100 -0.5505  1.7301
  959ETH     HC 8631   0.842   0.599   2.821  0.1988 -0.0308  0.3554
  960ETH     OH 8632   1.022   2.149   5.891  0.0813  0.4179  0.1009
  960ETH     CH 8633   1.060   2.015   5.864  0.5005  0.5127  0.2086
  960ETH     CH 8634   0.938   1.929   5.898  0.4127  0.2165 -0.8581
  960ETH     HO 8635   1.100   2.202   5.898 -0.1793  0.7957  0.1077
  960ETH     HC 8636   1.108   2.001   5.768  0.3266 -4.1628  0.7208
  960ETH     HC 8637   1.137   1.979   5.932 -0.8775 -1.9452  0.5159
  960ETH     HC 8638   0.959   1.824   5.877 -1.6494 -0.1490 -1.2225
  960ETH     HC 8639   0.914   1.921   6.004 -1.8968  1.3799 -1.2650
  960ETH     HC 8640   0.849   1.964   5.845  0.9339 -1.3782 -2.8678
  961ETH     OH 8641   1.704   3.384   1.655  0.2778 -0.3291  0.3477
  961ETH     CH 8642   1.781   3.433   1.762 -0.5672  0.6299  0.5263
  961ETH     CH 8643   1.726   3.378   1.893 -0.2547 -0.9463  0.0050
  961ETH     HO 8644   1.700   3.291   1.674  0.6218 -0.3197  0.4606
  961ETH     HC 8645   1.888   3.411   1.751 -0.4117 -0.0514  3.1948
  961ETH     HC 8646   1.772   3.542   1.758 -0.0227  0.7597  2.3196
  961ETH     HC 8647   1.625   3.410   1.919 -0.5727 -2.0191  0.1203
  961ETH     HC 8648   1.712   3.271   1.875  1.6325 -1.3210  0.6100
  961ETH     HC 8649   1.796   3.399   1.975  0.3090  1.1172 -0.9797
  962ETH     OH 8650   5.940   6.184   0.879  0.8722  0.0792 -0.1655
  962ETH     CH 8651   5.877   6.127   0.766 -0.0335  0.3315  0.2061
  962ETH     CH 8652   5.919   6.203   0.639 -0.2998  0.1188 -0.0099
  962ETH     HO 8653   6.000   6.251   0.853  2.2677 -0.0397  2.5926
  962ETH     HC 8654   5.908   6.023   0.760 -0.9576  0.0445  0.3522
  962ETH     HC 8655   5.769   6.133   0.781 -0.0085  0.4936  0.3306
  962ETH     HC 8656   6.019   6.183   0.602 -0.0143  0.8839  0.3444
  962ETH     HC 8657   5.843   6.167   0.570 -0.2763 -0.0664  0.0595
  962ETH     HC 8658   5.919   6.312   0.642  3.4067  0.1703  0.4627
  963ETH     OH 8659   3.937   0.491   0.786  0.1026  0.0925 -0.1625
  963ETH     CH 8660   3.880   0.616   0.754  0.0917  0.2012  0.2659
  963ETH     CH 8661   3.745   0.605   0.682  0.4298 -0.7301 -0.2448
  963ETH     HO 8662   3.952   0.448   0.703 -1.3010  0.3537 -0.5605
  963ETH     HC 8663   3.869   0.684   0.838 -0.7990  3.1389 -2.1210
  963ETH     HC 8664   3.952   0.668   0.691  1.0181  1.5051  2.3548
  963ETH     HC 8665   3.751   0.554   0.586 -0.7902  0.1078 -0.7752
  963ETH     HC 8666   3.667   0.551   0.736 -0.9181 -1.0093 -2.4299
  963ETH     HC 8667   3.710   0.704   0.651  0.2328 -0.5412  0.5777
  964ETH     OH 8668   2.735   1.188   0.484  1.2469  0.1148 -0.2799
  964ETH     CH 8669   2.708   1.104   0.594  0.1627  0.6853 -0.1071
  964ETH     CH 8670   2.724   1.185   0.723  0.8470 -0.1374  0.3327
  964ETH     HO 8671   2.661   1.246   0.475 -0.0997 -1.4084  0.7460
  964ETH     HC 8672   2.774   1.018   0.588  1.3119  1.4041  1.6819
  964ETH     HC 8673   2.603   1.079   0.585  0.0869  1.4165 -1.4517
  964ETH     HC 8674   2.669   1.280   0.725  2.0146  0.5388  0.9776
  964ETH     HC 8675   2.702   1.121   0.809 -1.4589 -0.3062 -0.3373
  964ETH     HC 8676   2.822   1.231   0.734 -0.3876  2.8673 -0.5353
  965ETH     OH 8677   2.862   5.060   3.865  0.2593 -0.8022 -0.4402
  965ETH     CH 8678   2.833   5.169   3.780  0.1805  0.1037  0.7323
  965ETH     CH 8679   2.686   5.177   3.738  0.3492 -0.2374  0.0743
  965ETH     HO 8680   2.814   5.071   3.946  0.9432 -0.8962 -0.0149
  965ETH     HC 8681   2.856   5.265   3.827  2.1184  0.2019 -0.3941
  965ETH     HC 8682   2.898   5.159   3.694  0.9326 -2.4535  1.5465
  965ETH     HC 8683   2.630   5.188   3.831 -0.4506 -1.5516 -0.2322
  965ETH     HC 8684   2.662   5.256   3.668  0.1514 -0.5352 -0.1975
  965ETH     HC 8685   2.668   5.078   3.696  1.0995  0.4652 -1.9572
  966ETH     OH 8686   2.353   4.833   4.160 -0.1947  0.1111  0.0369
  966ETH     CH 8687   2.373   4.921   4.052 -0.6156 -0.1436 -0.2529
  966ETH     CH 8688   2.462   4.847   3.952  0.0201 -0.4437  0.5273
  966ETH     HO 8689   2.440   4.838   4.197  0.0310 -1.7652 -0.2072
  966ETH     HC 8690   2.428   5.009   4.087  0.1535 -0.9832  0.6865
  966ETH     HC 8691   2.283   4.951   3.999 -0.3818 -1.3039 -1.3077
  966ETH     HC 8692   2.551   4.814   4.005 -2.1459 -2.1302  3.2772
  966ETH     HC 8693   2.402   4.766   3.910 -0.6427  0.1620  0.2861
  966ETH     HC 8694   2.484   4.908   3.865 -0.6218 -1.3315 -0.2714
  967ETH     OH 8695   3.366   2.903   1.054 -0.2528 -0.1529 -0.5978
  967ETH     CH 8696   3.284   2.936   0.945 -0.7827 -0.2465 -0.2306
  967ETH     CH 8697   3.143   2.957   1.001 -0.1442  0.3084  1.1944
  967ETH     HO 8698   3.386   2.976   1.111  0.3706  0.2792 -1.3616
  967ETH     HC 8699   3.320   3.029   0.901  2.0085 -0.8204  0.7601
  967ETH     HC 8700   3.296   2.853   0.874 -0.5623 -0.9590  0.6365
  967ETH     HC 8701   3.086   2.985   0.912 -0.0822 -1.1307  0.6829
  967ETH     HC 8702   3.088   2.866   1.024 -4.0824  2.0074 -1.0592
  967ETH     HC 8703   3.124   3.035   1.074 -0.6832 -0.2125  1.6123
  968ETH     OH 8704   1.152   2.372   0.786  0.0847 -0.0129 -0.9244
  968ETH     CH 8705   1.068   2.478   0.826  0.0040 -0.2072 -0.5859
  968ETH     CH 8706   1.080   2.490   0.978  0.5579 -0.3730 -0.6177
  968ETH     HO 8707   1.114   2.289   0.807 -0.6824 -0.0424 -2.3810
  968ETH     HC 8708   1.107   2.570   0.785  0.7854  0.4297  1.5171
  968ETH     HC 8709   0.961   2.464   0.810 -0.4116  2.5105 -0.4425
  968ETH     HC 8710   1.187   2.483   1.002  0.8397  1.1563 -1.3785
  968ETH     HC 8711   1.055   2.590   1.012 -0.2816 -0.6605 -0.3801
  968ETH     HC 8712   1.030   2.412   1.036  0.0836  0.3076 -0.1094
  969ETH     OH 8713   4.597   1.735   1.107  0.4251  0.0121 -0.1795
  969ETH     CH 8714   4.730   1.746   1.152  0.4551 -0.9460 -0.0128
  969ETH     CH 8715   4.758   1.672   1.283  0.4557 -0.0056  0.5245
  969ETH     HO 8716   4.556   1.819   1.096 -0.6593 -0.4953 -0.1265
  969ETH     HC 8717   4.787   1.719   1.063  1.6532 -0.2110  0.5144
  969ETH     HC 8718   4.763   1.848   1.172 -0.5595 -0.9014  1.5367
  969ETH     HC 8719   4.707   1.576   1.289 -1.8075  1.1062 -0.3929
  969ETH     HC 8720   4.865   1.653   1.288  0.1591 -1.9891 -0.0925
  969ETH     HC 8721   4.726   1.728   1.370 -1.2122  1.1215 -0.7650
  970ETH     OH 8722   3.125   1.962   1.831 -0.5305  0.0755  0.4185
  970ETH     CH 8723   3.187   2.028   1.940 -0.6355 -0.1367  0.6049
  970ETH     CH 8724   3.129   2.169   1.949 -0.1245  0.1240 -0.1725
  970ETH     HO 8725   3.034   1.955   1.856 -0.8873  1.0241 -0.5804
  970ETH     HC 8726   3.192   1.960   2.026 -0.3940 -0.6562  0.1858
  970ETH     HC 8727   3.290   2.040   1.909 -1.1166  0.3318 -0.8303
  970ETH     HC 8728   3.193   2.221   2.020 -0.0155  1.2165 -1.0586
  970ETH     HC 8729   3.130   2.214   1.850 -0.6658  1.7639  0.5562
  970ETH     HC 8730   3.023   2.163   1.975  0.1282 -0.1860  0.8125
  971ETH     OH 8731   6.089   5.553   4.890  0.4287  0.0162 -0.0669
  971ETH     CH 8732   6.056   5.611   4.765 -0.4082 -0.3765 -0.0359
  971ETH     CH 8733   5.922   5.684   4.772 -0.1247  0.2274 -0.8168
  971ETH     HO 8734   6.168   5.503   4.879  1.3319  0.9970  1.8242
  971ETH     HC 8735   6.047   5.537   4.685 -0.8239 -2.8087  2.1951
  971ETH     HC 8736   6.132   5.678   4.726 -0.5689 -1.6145 -2.5513
  971ETH     HC 8737   5.914   5.735   4.676 -0.7783  0.7510 -0.4865
  971ETH     HC 8738   5.842   5.612   4.786  0.0193 -0.0672 -1.5299
  971ETH     HC 8739   5.928   5.759   4.851 -1.1022 -1.8332  1.2763
  972ETH     OH 8740   1.794   1.480   0.305 -0.3434 -0.1651 -0.1861
  972ETH     CH 8741   1.909   1.559   0.286 -0.0004 -0.5433  0.2909
  972ETH     CH 8742   1.939   1.577   0.137 -0.7326  0.6820  0.2894
  972ETH     HO 8743   1.786   1.458   0.397  1.8883  0.2311  0.1362
  972ETH     HC 8744   1.887   1.660   0.321  0.5718 -0.6455  0.9647
  972ETH     HC 8745   1.990   1.522   0.350 -1.4833 -0.7800  2.0728
  972ETH     HC 8746   1.939   1.482   0.084 -2.4512  0.1517  1.2055
  972ETH     HC 8747   1.869   1.644   0.087 -1.4043  0.5161  0.9906
  972ETH     HC 8748   2.034   1.626   0.115 -1.9392  1.9102 -2.3666
  973ETH     OH 8749   5.989   4.643   4.379  0.4448 -0.0793 -0.1610
  973ETH     CH 8750   6.039   4.512   4.387  0.0411 -0.2508 -0.4353
  973ETH     CH 8751   5.923   4.422   4.429  0.4585 -0.2824  0.6776
  973ETH     HO 8752   6.003   4.678   4.292 -1.0809  1.1531  0.0657
  973ETH     HC 8753   6.078   4.476   4.291  0.4439  1.3571 -0.8936
  973ETH     HC 8754   6.125   4.507   4.453 -1.7623 -1.1466  1.9014
  973ETH     HC 8755   5.886   4.461   4.524 -1.2079  2.3392 -0.9652
  973ETH     HC 8756   5.846   4.444   4.354 -0.6148 -1.9686  1.2563
  973ETH     HC 8757   5.945   4.316   4.435 -2.9665 -0.9788  2.1554
  974ETH     OH 8758   3.179   5.736   1.996  0.0639  0.1198  0.0196
  974ETH     CH 8759   3.055   5.678   2.031  0.1694 -0.3176 -0.3343
  974ETH     CH 8760   3.080   5.545   2.103 -0.3789 -0.2658 -0.0487
  974ETH     HO 8761   3.164   5.827   1.978 -0.4755 -0.0265 -0.2675
  974ETH     HC 8762   3.022   5.742   2.112  0.3013  1.2474 -1.4961
  974ETH     HC 8763   2.978   5.673   1.954 -2.0502  0.1286  1.7941
  974ETH     HC 8764   3.136   5.564   2.195  1.6456 -0.5313 -1.1897
  974ETH     HC 8765   2.982   5.506   2.131 -0.9964  0.5291 -1.0900
  974ETH     HC 8766   3.130   5.475   2.036 -1.4122 -2.2168  1.1857
  975ETH     OH 8767   2.365   3.616   5.446  0.1214 -0.7051 -0.3820
  975ETH     CH 8768   2.487   3.663   5.394  0.4256 -0.6983  0.3255
  975ETH     CH 8769   2.488   3.812   5.427  0.3979 -0.4296 -0.8648
  975ETH     HO 8770   2.376   3.622   5.540 -0.1632  0.0766 -0.3889
  975ETH     HC 8771   2.558   3.603   5.450 -2.5395 -2.6238  2.1750
  975ETH     HC 8772   2.503   3.655   5.286  0.0678  0.8141  0.1445
  975ETH     HC 8773   2.434   3.872   5.354 -0.6657  1.2998  1.2947
  975ETH     HC 8774   2.456   3.837   5.528  2.3991 -1.2665 -0.0141
  975ETH     HC 8775   2.590   3.851   5.429  0.1127  0.3212 -0.5729
  976ETH     OH 8776   3.507   4.683   0.024  0.1827  0.1771 -0.2393
  976ETH     CH 8777   3.495   4.790  -0.067  0.4000  0.3345 -0.0842
  976ETH     CH 8778   3.502   4.726  -0.206  0.3760 -0.1075  0.1162
  976ETH     HO 8779   3.594   4.649   0.014 -0.0617 -0.6881  0.4879
  976ETH     HC 8780   3.401   4.844  -0.072  0.6507  0.7666 -0.2043
  976ETH     HC 8781   3.572   4.867  -0.058  1.6821 -0.9884  0.4122
  976ETH     HC 8782   3.527   4.805  -0.277  2.8161 -0.7704  0.2225
  976ETH     HC 8783   3.581   4.652  -0.204  0.1189 -0.3487  1.7767
  976ETH     HC 8784   3.410   4.675  -0.236 -0.1410  0.9882 -0.2309
  977ETH     OH 8785   4.390   5.264   5.218  0.2294  0.2278 -0.1761
  977ETH     CH 8786   4.255   5.278   5.256  0.3179 -0.1412  0.2778
  977ETH     CH 8787   4.240   5.386   5.362 -0.6086 -0.5314  0.5512
  977ETH     HO 8788   4.432   5.349   5.221  1.6025 -0.4485  0.1387
  977ETH     HC 8789   4.186   5.310   5.178 -0.2704  2.0048  1.6439
  977ETH     HC 8790   4.224   5.177   5.285  2.5341 -0.3311  2.0891
  977ETH     HC 8791   4.281   5.351   5.457  0.5917  0.2906  0.3604
  977ETH     HC 8792   4.299   5.474   5.334 -0.9008 -0.4557  0.1853
  977ETH     HC 8793   4.136   5.417   5.374 -0.1681  1.0953  0.3891
  978ETH     OH 8794   3.366   1.198   5.092  0.0043 -0.0333 -0.1747
  978ETH     CH 8795   3.283   1.242   4.988 -0.4849  0.2981  0.3509
  978ETH     CH 8796   3.230   1.111   4.928  0.1950  0.2445 -0.1367
  978ETH     HO 8797   3.418   1.275   5.112 -0.0688 -0.2109  0.7255
  978ETH     HC 8798   3.199   1.292   5.036 -1.1547 -1.4727  1.0788
  978ETH     HC 8799   3.337   1.302   4.915 -0.5184  0.6052  0.5796
  978ETH     HC 8800   3.153   1.120   4.851 -0.1243  0.2364  0.1786
  978ETH     HC 8801   3.309   1.068   4.866  0.7894  2.8338 -1.2419
  978ETH     HC 8802   3.186   1.049   5.006 -1.2911  0.7749 -0.5399
  979ETH     OH 8803   1.831   4.947   2.018  0.0568  0.1435  0.1337
  979ETH     CH 8804   1.942   4.862   1.999  0.4478  0.8485 -0.8145
  979ETH     CH 8805   1.896   4.726   1.947  1.4042  0.1369  0.1812
  979ETH     HO 8806   1.838   5.025   1.965  1.3569  0.9482  1.4487
  979ETH     HC 8807   2.015   4.904   1.930  0.8467  2.1051  0.3530
  979ETH     HC 8808   1.989   4.839   2.095  0.1229 -0.1509 -0.8832
  979ETH     HC 8809   1.829   4.673   2.015  0.0479  0.5567 -0.8019
  979ETH     HC 8810   1.840   4.739   1.854  0.7222 -0.1655  0.5455
  979ETH     HC 8811   1.984   4.664   1.927  1.2883  0.0546 -0.0753
  980ETH     OH 8812   1.111   2.660   2.681 -0.0926 -0.5195  0.2111
  980ETH     CH 8813   1.008   2.578   2.629 -0.2292  0.0577 -0.4511
  980ETH     CH 8814   1.040   2.523   2.490 -0.4218  0.2259 -0.5618
  980ETH     HO 8815   1.068   2.719   2.741 -2.3624 -0.9114 -0.9798
  980ETH     HC 8816   0.999   2.497   2.702 -0.9728  1.7020  1.3460
  980ETH     HC 8817   0.919   2.641   2.626  0.3155  0.7907 -1.3642
  980ETH     HC 8818   1.144   2.490   2.484 -0.5724 -0.4936  0.5993
  980ETH     HC 8819   0.970   2.450   2.449  1.2612 -2.5160  1.2527
  980ETH     HC 8820   1.025   2.608   2.423 -0.7075  0.0905 -0.6680
  981ETH     OH 8821   0.218   5.305   6.214 -0.1926  0.6214 -0.0745
  981ETH     CH 8822   0.256   5.201   6.126  0.2836  0.6930  0.0457
  981ETH     CH 8823   0.253   5.249   5.981  0.8915  0.0192 -0.1964
  981ETH     HO 8824   0.251   5.281   6.300 -0.1543  1.8479  0.2539
  981ETH     HC 8825   0.360   5.174   6.148  0.3839  0.0932 -1.1586
  981ETH     HC 8826   0.190   5.120   6.156  0.9477 -0.1032 -0.6050
  981ETH     HC 8827   0.288   5.352   5.980  2.9180 -0.6509 -0.4682
  981ETH     HC 8828   0.317   5.188   5.918 -1.3057 -1.2136 -1.3091
  981ETH     HC 8829   0.155   5.251   5.932  0.3826 -0.2905  0.7965
  982ETH     OH 8830   4.784   4.856   3.197  0.5753  0.6720 -0.3748
  982ETH     CH 8831   4.811   4.775   3.309 -0.2354  0.3168 -0.4327
  982ETH     CH 8832   4.949   4.800   3.370 -0.1456  0.1829 -0.5794
  982ETH     HO 8833   4.691   4.871   3.193  0.4834  0.3565  0.5398
  982ETH     HC 8834   4.735   4.799   3.383 -0.1262  0.9011 -0.5079
  982ETH     HC 8835   4.799   4.669   3.284  1.4323  0.4608 -1.9686
  982ETH     HC 8836   4.967   4.905   3.392  1.9422 -0.2422 -0.1137
  982ETH     HC 8837   4.970   4.734   3.455  1.5878  0.2392 -0.9468
  982ETH     HC 8838   5.033   4.781   3.304 -0.5251  0.4853 -1.1455
  983ETH     OH 8839   4.393   3.411   1.823 -0.2302  0.6310 -0.1952
  983ETH     CH 8840   4.297   3.401   1.720  0.1735 -0.3445 -0.4875
  983ETH     CH 8841   4.342   3.500   1.612  0.1529  0.1932 -0.0092
  983ETH     HO 8842   4.360   3.360   1.895  1.9363 -0.0830  0.3347
  983ETH     HC 8843   4.291   3.301   1.679 -1.3203  0.6922 -2.8732
  983ETH     HC 8844   4.196   3.427   1.752  0.6454  0.5240  0.3177
  983ETH     HC 8845   4.441   3.472   1.576  0.6599  0.3525  1.2186
  983ETH     HC 8846   4.275   3.504   1.527 -2.0005  1.5884  1.6947
  983ETH     HC 8847   4.338   3.602   1.648  1.8651  0.1936  0.2468
  984ETH     OH 8848   3.101   0.074   0.444 -0.3036 -0.3232  0.3463
  984ETH     CH 8849   3.212   0.149   0.487 -0.2498 -0.4116  0.3593
  984ETH     CH 8850   3.345   0.091   0.439 -0.1224 -0.1767  0.4265
  984ETH     HO 8851   3.023   0.101   0.492 -1.9488 -0.4800 -2.1458
  984ETH     HC 8852   3.202   0.252   0.454 -1.9211 -0.7286 -0.1702
  984ETH     HC 8853   3.207   0.169   0.594  0.0716  0.8946  0.1358
  984ETH     HC 8854   3.341   0.078   0.331  0.0111  0.9271  0.2890
  984ETH     HC 8855   3.438   0.148   0.448 -1.3973  1.8563  1.0800
  984ETH     HC 8856   3.350  -0.004   0.494 -2.4113 -0.8258 -0.4273
  985ETH     OH 8857   3.233   3.856   5.058 -0.0946 -0.3408 -0.1676
  985ETH     CH 8858   3.237   3.942   4.947  0.5954  0.0617  0.1650
  985ETH     CH 8859   3.117   3.931   4.853  0.4377  0.4438  0.3168
  985ETH     HO 8860   3.271   3.903   5.131 -1.1624 -0.6451  0.5938
  985ETH     HC 8861   3.253   4.044   4.984  4.1526 -0.4862  0.3183
  985ETH     HC 8862   3.327   3.909   4.895  0.6845 -0.2725  0.5304
  985ETH     HC 8863   3.020   3.969   4.885 -0.5940 -0.6580 -1.3477
  985ETH     HC 8864   3.135   3.974   4.754 -0.5158  0.9037  0.3424
  985ETH     HC 8865   3.110   3.824   4.831  0.6688  0.5866 -0.4712
  986ETH     OH 8866   3.240   6.091   5.834  0.2865  0.4651  0.1211
  986ETH     CH 8867   3.297   6.143   5.952 -0.3852  0.1900  0.5689
  986ETH     CH 8868   3.254   6.289   5.957 -0.2794  0.2708 -0.7942
  986ETH     HO 8869   3.290   6.012   5.820 -1.3868 -0.5426 -0.3286
  986ETH     HC 8870   3.273   6.080   6.038  0.6941 -1.2668 -0.1638
  986ETH     HC 8871   3.404   6.122   5.943 -0.4915  0.4383 -1.3663
  986ETH     HC 8872   3.145   6.298   5.952 -0.2590  0.2666 -1.2553
  986ETH     HC 8873   3.293   6.346   6.041 -1.8773 -0.2196  0.2976
  986ETH     HC 8874   3.286   6.346   5.869 -0.3455 -1.2074 -1.7869
  987ETH     OH 8875   4.584   6.260   3.211  0.2384 -0.1326 -0.0197
  987ETH     CH 8876   4.633   6.168   3.306  0.2222 -0.4504 -0.3228
  987ETH     CH 8877   4.770   6.122   3.253  0.3543  0.0451 -0.4079
  987ETH     HO 8878   4.570   6.221   3.127 -1.2064  1.8406 -0.7353
  987ETH     HC 8879   4.667   6.217   3.397  1.5212 -1.4543 -0.2382
  987ETH     HC 8880   4.566   6.088   3.335  0.7597 -1.1245 -0.8951
  987ETH     HC 8881   4.750   6.073   3.158 -2.6623  1.1553 -0.4073
  987ETH     HC 8882   4.831   6.211   3.239 -0.7155  0.5686 -1.8222
  987ETH     HC 8883   4.815   6.058   3.329  1.0944 -0.1695 -1.0284
  988ETH     OH 8884   6.262   1.371   1.665 -0.2078  0.4858  0.5057
  988ETH     CH 8885   6.163   1.346   1.762 -0.6025 -0.4792 -0.1321
  988ETH     CH 8886   6.210   1.267   1.884  0.3563  0.7916  0.3370
  988ETH     HO 8887   6.251   1.462   1.642  1.9067  0.7859  0.6229
  988ETH     HC 8888   6.124   1.442   1.798  0.0368 -0.9787  1.9788
  988ETH     HC 8889   6.084   1.287   1.716 -1.4395 -0.4069  1.1804
  988ETH     HC 8890   6.244   1.170   1.847 -1.0677  0.7117 -0.7939
  988ETH     HC 8891   6.297   1.318   1.926  1.5074  0.2731 -1.4023
  988ETH     HC 8892   6.133   1.246   1.959  1.2084 -1.5188  0.6164
  989ETH     OH 8893   4.401   2.601   2.797  0.5313  0.1626  0.1416
  989ETH     CH 8894   4.516   2.674   2.761  0.6127 -0.1362 -0.2060
  989ETH     CH 8895   4.571   2.767   2.869 -0.5368 -0.3448  0.5601
  989ETH     HO 8896   4.321   2.645   2.770 -0.2055 -0.3435  1.4455
  989ETH     HC 8897   4.596   2.602   2.744  0.5500 -0.1206 -0.5724
  989ETH     HC 8898   4.511   2.729   2.667 -0.6400  1.5962  0.8521
  989ETH     HC 8899   4.575   2.708   2.961 -0.2317 -1.2455 -0.0301
  989ETH     HC 8900   4.676   2.786   2.848  0.1024 -2.7927  1.3412
  989ETH     HC 8901   4.509   2.856   2.876  1.3354  1.0250 -0.0388
  990ETH     OH 8902   4.759   2.166   0.766 -0.3392 -0.2640 -0.2702
  990ETH     CH 8903   4.788   2.279   0.687  0.5282 -0.3563 -0.0868
  990ETH     CH 8904   4.753   2.235   0.545  0.6767 -1.0470  0.0889
  990ETH     HO 8905   4.794   2.177   0.853  0.3432 -0.4181 -0.5197
  990ETH     HC 8906   4.730   2.364   0.724  0.0325 -1.7999  2.5572
  990ETH     HC 8907   4.892   2.303   0.708 -0.0064 -0.2193  2.5708
  990ETH     HC 8908   4.772   2.313   0.472 -1.3958  0.2043  0.8177
  990ETH     HC 8909   4.810   2.149   0.512 -0.7765 -1.2824 -1.9423
  990ETH     HC 8910   4.646   2.213   0.545  0.5628 -0.5099  0.0878
  991ETH     OH 8911   5.906   3.857   2.509 -0.0347  0.1149 -0.1463
  991ETH     CH 8912   5.919   3.932   2.390  0.3847  0.4640  0.1146
  991ETH     CH 8913   5.943   3.826   2.282  0.7138  0.2193  0.4294
  991ETH     HO 8914   5.819   3.869   2.542  0.0315  0.6786 -0.1725
  991ETH     HC 8915   5.835   4.000   2.375 -0.7071 -1.3322 -2.5065
  991ETH     HC 8916   6.010   3.989   2.400  1.8843 -1.6661 -0.9878
  991ETH     HC 8917   5.936   3.872   2.184  0.8248  0.3555  0.4857
  991ETH     HC 8918   6.046   3.793   2.292  0.3392 -2.0408 -2.3740
  991ETH     HC 8919   5.871   3.743   2.276  1.3626 -0.2669 -0.8381
  992ETH     OH 8920   3.894   1.007   0.278  0.1612 -0.2980 -0.2173
  992ETH     CH 8921   3.996   0.923   0.328  0.2120 -0.2052 -0.1651
  992ETH     CH 8922   4.025   0.922   0.478 -0.2420  0.0455 -0.0756
  992ETH     HO 8923   3.939   1.090   0.280  2.3760 -1.4727  1.0421
  992ETH     HC 8924   3.980   0.820   0.297 -0.5358 -0.8608  2.2752
  992ETH     HC 8925   4.080   0.968   0.275  0.2999 -0.2711 -0.0808
  992ETH     HC 8926   3.932   0.900   0.530 -0.7638 -0.0294 -1.0257
  992ETH     HC 8927   4.101   0.847   0.499 -1.6879 -1.9645 -1.7553
  992ETH     HC 8928   4.065   1.019   0.510  2.5918 -2.0142  2.9032
  993ETH     OH 8929   5.555   6.085   2.290 -0.3593  0.1601  0.1635
  993ETH     CH 8930   5.502   5.956   2.274 -0.2601  0.0031  1.0460
  993ETH     CH 8931   5.608   5.845   2.277 -0.1665  0.0752  0.5528
  993ETH     HO 8932   5.631   6.094   2.235  0.4312  0.7836  1.3310
  993ETH     HC 8933   5.442   5.923   2.358  1.5014  0.8874  2.6832
  993ETH     HC 8934   5.445   5.945   2.182  1.1775  0.3246  0.0957
  993ETH     HC 8935   5.704   5.888   2.302 -0.9603  1.8587  0.5879
  993ETH     HC 8936   5.585   5.764   2.347  1.7818  0.0419  1.1630
  993ETH     HC 8937   5.616   5.802   2.177 -1.3951 -3.2169  1.7828
  994ETH     OH 8938   5.668   5.396   3.017 -0.0401  0.2574  0.3530
  994ETH     CH 8939   5.527   5.403   3.024 -0.0944  0.1078 -0.5443
  994ETH     CH 8940   5.475   5.310   2.914 -0.3879  0.1168 -0.4140
  994ETH     HO 8941   5.712   5.400   3.101 -0.1701 -1.7254  0.5380
  994ETH     HC 8942   5.499   5.371   3.125  0.4629 -0.1852 -0.4767
  994ETH     HC 8943   5.505   5.508   3.005 -0.7456  0.1012  0.1529
  994ETH     HC 8944   5.368   5.314   2.895 -0.1460  0.7572 -1.6717
  994ETH     HC 8945   5.535   5.318   2.824  0.3246 -0.1552  0.0296
  994ETH     HC 8946   5.488   5.213   2.962 -0.1296 -0.4555 -1.6252
  995ETH     OH 8947   4.770   3.353   1.509 -0.1628 -0.3839  0.4087
  995ETH     CH 8948   4.804   3.269   1.400  0.5441  0.1753  0.1960
  995ETH     CH 8949   4.907   3.169   1.451  0.3687 -0.0234  0.1597
  995ETH     HO 8950   4.716   3.304   1.569 -1.5936 -0.0377 -0.5638
  995ETH     HC 8951   4.709   3.222   1.375  0.0124  2.0484 -1.4652
  995ETH     HC 8952   4.831   3.316   1.305  2.0246  0.7748  0.8984
  995ETH     HC 8953   4.863   3.098   1.521 -1.7813  0.5973 -0.5262
  995ETH     HC 8954   4.946   3.103   1.373 -2.3225  0.2015 -1.4326
  995ETH     HC 8955   4.982   3.221   1.511 -0.8071  1.5797  0.2414
  996ETH     OH 8956   0.209   3.711   5.384 -0.4326 -0.2408 -0.7369
  996ETH     CH 8957   0.102   3.716   5.475  0.2848  0.4685  0.0753
  996ETH     CH 8958   0.051   3.574   5.500  0.3159  0.3430 -0.5643
  996ETH     HO 8959   0.169   3.686   5.302  0.5185 -1.9806 -0.6928
  996ETH     HC 8960   0.128   3.759   5.572 -0.0157  1.1978 -0.1607
  996ETH     HC 8961   0.016   3.773   5.440 -1.9915 -1.5425  2.2029
  996ETH     HC 8962   0.113   3.510   5.562 -0.5170  0.9815  0.9561
  996ETH     HC 8963  -0.046   3.578   5.551  0.7706 -0.4201  0.3728
  996ETH     HC 8964   0.027   3.509   5.417  1.5848 -1.6647  0.6051
  997ETH     OH 8965   3.673   5.119   0.156 -0.4954 -0.5925 -0.2257
  997ETH     CH 8966   3.548   5.080   0.210 -0.2179 -0.2598  0.6749
  997ETH     CH 8967   3.570   4.933   0.245  0.5408 -0.3007  0.0380
  997ETH     HO 8968   3.736   5.126   0.226 -0.0498 -2.7602 -0.3741
  997ETH     HC 8969   3.539   5.141   0.299 -1.1517  0.5356  0.0460
  997ETH     HC 8970   3.472   5.083   0.131  1.2833 -3.3158 -0.9693
  997ETH     HC 8971   3.479   4.874   0.253 -0.3074  1.2668  2.1425
  997ETH     HC 8972   3.624   4.879   0.166 -1.2920  0.2022 -1.5998
  997ETH     HC 8973   3.632   4.921   0.334  1.4588  0.3526 -0.4977
  998ETH     OH 8974   5.490   3.498   1.270  0.7921 -0.2393  0.0407
  998ETH     CH 8975   5.583   3.394   1.290  0.7831 -0.2685 -0.0643
  998ETH     CH 8976   5.544   3.303   1.406  0.9720 -0.0240  0.1950
  998ETH     HO 8977   5.504   3.556   1.342 -0.3250  0.3169 -0.1691
  998ETH     HC 8978   5.597   3.326   1.207 -1.4736  0.9321 -1.4702
  998ETH     HC 8979   5.678   3.449   1.295 -1.1271  3.2024 -0.1293
  998ETH     HC 8980   5.435   3.288   1.405  1.0444 -0.6725 -2.3522
  998ETH     HC 8981   5.597   3.208   1.403 -0.4370 -0.8173 -0.0278
  998ETH     HC 8982   5.584   3.348   1.496 -2.3164  0.5252  1.4458
  999ETH     OH 8983   3.997   1.041   1.821 -0.4157  0.1578 -0.3371
  999ETH     CH 8984   4.019   0.903   1.801  0.0279  0.0742  0.6944
  999ETH     CH 8985   4.123   0.875   1.692 -0.6877 -0.1930  0.0709
  999ETH     HO 8986   3.908   1.038   1.852 -0.6799 -3.1036 -1.2409
  999ETH     HC 8987   4.064   0.851   1.885  1.0355 -1.6168 -0.8557
  999ETH     HC 8988   3.931   0.839   1.786  0.7765 -0.8906  0.3660
  999ETH     HC 8989   4.217   0.903   1.739 -0.9638  1.8472 -0.5741
  999ETH     HC 8990   4.134   0.770   1.663 -0.1608 -0.4884  1.2789
  999ETH     HC 8991   4.103   0.936   1.604 -1.1791 -0.5224 -0.0491
 1000ETH     OH 8992   2.292   4.963   6.226 -0.5822  0.1559 -0.5946
 1000ETH     CH 8993   2.396   4.939   6.134  0.1201 -0.4843  0.3620
 1000ETH     CH 8994   2.362   4.823   6.040  0.6413 -0.3687  0.0303
 1000ETH     HO 8995   2.339   4.994   6.302  2.1785  0.9826 -2.5516
 1000ETH     HC 8996   2.404   5.024   6.067 -0.6271 -0.2005  0.6292
 1000ETH     HC 8997   2.488   4.939   6.192  1.6196  4.4974 -1.7696
 1000ETH     HC 8998   2.360   4.727   6.091 -1.0635 -0.1386  0.4006
 1000ETH     HC 8999   2.266   4.829   5.988 -0.5823 -1.3046  2.1200
 1000ETH     HC 9000   2.436   4.809   5.960 -0.0644  0.8420 -0.8575
 1001ETH     OH 9001   0.294   2.988   5.963  0.2994  0.3625 -0.0919
 1001ETH     CH 9002   0.303   3.005   5.824 -0.3764  0.0184 -0.1820
 1001ETH     CH 9003   0.343   2.873   5.758 -0.3671 -0.0601 -0.0195
 1001ETH     HO 9004   0.221   3.040   5.994  1.8677  2.6379 -0.1086
 1001ETH     HC 9005   0.209   3.040   5.781 -1.9325 -0.0134  3.0649
 1001ETH     HC 9006   0.368   3.086   5.790  0.5976 -0.3132  0.8541
 1001ETH     HC 9007   0.446   2.841   5.774  0.0507  0.8390 -0.8527
 1001ETH     HC 9008   0.284   2.789   5.796 -3.9562  2.3285 -0.0013
 1001ETH     HC 9009   0.330   2.882   5.651 -0.4783  0.6567  0.0563
 1002ETH     OH 9010   0.595   3.794   0.640 -0.3235 -0.0562  0.2278
 1002ETH     CH 9011   0.477   3.869   0.659  0.2193  0.7768  0.3397
 1002ETH     CH 9012   0.399   3.846   0.788  0.4460 -0.3344  0.2799
 1002ETH     HO 9013   0.638   3.827   0.563 -0.0314  0.0507  0.4330
 1002ETH     HC 9014   0.491   3.977   0.649 -1.8341  1.0509  0.2824
 1002ETH     HC 9015   0.414   3.847   0.572  0.6270 -0.4101  0.3422
 1002ETH     HC 9016   0.328   3.928   0.796 -0.1327 -0.9202  1.2376
 1002ETH     HC 9017   0.354   3.747   0.788 -1.4370  0.4934  1.3917
 1002ETH     HC 9018   0.470   3.852   0.871  1.2520 -0.4184 -0.4010
 1003ETH     OH 9019   4.903   1.671   2.358  0.1420  0.3884 -0.5525
 1003ETH     CH 9020   5.004   1.576   2.333  0.4397  0.3898  0.6222
 1003ETH     CH 9021   5.142   1.641   2.320  0.3837  0.3898  0.0428
 1003ETH     HO 9022   4.821   1.623   2.365  0.4862 -0.1382 -0.0655
 1003ETH     HC 9023   5.001   1.503   2.414 -3.4077 -0.4183 -0.1632
 1003ETH     HC 9024   4.994   1.532   2.234 -2.8547  1.3991  0.4693
 1003ETH     HC 9025   5.215   1.567   2.287 -1.7214 -1.4497 -0.6999
 1003ETH     HC 9026   5.142   1.719   2.244  1.5264  1.6964  1.3765
 1003ETH     HC 9027   5.169   1.683   2.417  0.9624 -0.8419  0.4279
 1004ETH     OH 9028   3.370   4.890   1.353 -0.2059  0.1168  0.2379
 1004ETH     CH 9029   3.506   4.885   1.317 -0.1904  0.2333  0.2781
 1004ETH     CH 9030   3.527   4.981   1.200 -0.1497 -0.0676  0.0359
 1004ETH     HO 9031   3.357   4.822   1.418 -1.4754  0.1557  0.0360
 1004ETH     HC 9032   3.560   4.925   1.403  0.8673 -2.0172  0.6955
 1004ETH     HC 9033   3.548   4.786   1.301 -1.8538 -0.4175 -0.1315
 1004ETH     HC 9034   3.475   4.962   1.106 -0.5247 -2.5933  0.7232
 1004ETH     HC 9035   3.494   5.079   1.235  0.9531  0.1776  0.3978
 1004ETH     HC 9036   3.632   5.000   1.178  0.4264 -1.4043  1.5640
 1005ETH     OH 9037   3.906   1.830   5.525  0.7607  0.0135 -0.3744
 1005ETH     CH 9038   3.976   1.715   5.568 -0.0399 -0.2295  0.3052
 1005ETH     CH 9039   4.098   1.702   5.476 -0.1769 -0.1812  0.1180
 1005ETH     HO 9040   3.850   1.837   5.601  1.5305  0.7477  0.1447
 1005ETH     HC 9041   4.016   1.721   5.669 -1.2342  1.0265  0.6999
 1005ETH     HC 9042   3.918   1.624   5.552 -0.8077  0.2111  0.6140
 1005ETH     HC 9043   4.062   1.671   5.377 -2.0473  0.3426  0.6094
 1005ETH     HC 9044   4.154   1.793   5.455  0.3490 -0.4974  0.1557
 1005ETH     HC 9045   4.173   1.630   5.507  0.5808  0.9166  0.8779
 1006ETH     OH 9046   0.319   0.765   1.386  0.0393 -0.0051  0.2409
 1006ETH     CH 9047   0.371   0.639   1.350 -0.0447  0.0397 -0.0354
 1006ETH     CH 9048   0.481   0.595   1.446 -0.2272  0.3340  0.3083
 1006ETH     HO 9049   0.254   0.781   1.320  0.5773 -0.8711 -0.5050
 1006ETH     HC 9050   0.289   0.569   1.331 -0.5637  1.0119 -1.5202
 1006ETH     HC 9051   0.409   0.667   1.252 -1.4259 -0.1609 -0.6345
 1006ETH     HC 9052   0.560   0.670   1.450  1.4701 -1.4512  1.4175
 1006ETH     HC 9053   0.442   0.567   1.544 -1.6432  1.4718  0.0935
 1006ETH     HC 9054   0.525   0.502   1.411 -0.4622  0.2065  0.3526
 1007ETH     OH 9055   0.095   5.080   3.270 -0.0660  0.2359 -0.5243
 1007ETH     CH 9056   0.104   4.947   3.222 -0.0854  0.0554 -0.0231
 1007ETH     CH 9057  -0.021   4.870   3.266 -0.1731  0.1099 -0.1773
 1007ETH     HO 9058   0.049   5.136   3.210 -1.1169 -0.7566 -0.6744
 1007ETH     HC 9059   0.122   4.953   3.115  2.7850 -1.0623  0.3583
 1007ETH     HC 9060   0.191   4.902   3.270 -1.0352 -0.6747  1.0655
 1007ETH     HC 9061  -0.113   4.904   3.219 -0.5740 -0.1506  0.4106
 1007ETH     HC 9062  -0.019   4.763   3.244  1.4614 -0.1452  1.0893
 1007ETH     HC 9063  -0.034   4.891   3.373 -0.1130 -3.3523  0.5837
 1008ETH     OH 9064   5.968   2.658   5.050 -0.0491  0.0708 -0.3736
 1008ETH     CH 9065   6.061   2.568   5.105  0.0250  0.1019 -0.4471
 1008ETH     CH 9066   6.199   2.633   5.117 -0.0959  0.2841 -0.0100
 1008ETH     HO 9067   5.938   2.618   4.970  1.9196 -0.6323 -0.7828
 1008ETH     HC 9068   6.025   2.535   5.203 -0.5739  4.2350  0.8292
 1008ETH     HC 9069   6.051   2.472   5.055  0.6610 -2.3179  3.8390
 1008ETH     HC 9070   6.271   2.572   5.171 -0.9306  2.5635  3.7950
 1008ETH     HC 9071   6.251   2.641   5.021  0.4201  0.2379  0.2665
 1008ETH     HC 9072   6.204   2.729   5.168  0.5846  0.7690 -0.9685
 1009ETH     OH 9073   4.571   3.560   2.500  0.3362  0.1541 -0.1111
 1009ETH     CH 9074   4.678   3.469   2.491  0.2726  0.0324  0.3343
 1009ETH     CH 9075   4.647   3.352   2.584 -0.4935  0.0694  0.1320
 1009ETH     HO 9076   4.565   3.604   2.417  0.6129  0.7529  0.1805
 1009ETH     HC 9077   4.697   3.440   2.387 -1.2466  0.4629 -0.0716
 1009ETH     HC 9078   4.770   3.519   2.521 -1.0299  1.0744  2.7586
 1009ETH     HC 9079   4.557   3.299   2.554  0.1489 -1.0411  0.1108
 1009ETH     HC 9080   4.727   3.278   2.584 -0.9214 -0.4163  1.9464
 1009ETH     HC 9081   4.626   3.391   2.684 -0.0562 -0.3981  0.4091
 1010ETH     OH 9082   1.071   1.194   5.128  0.1175  0.2522 -0.1789
 1010ETH     CH 9083   1.140   1.083   5.076 -0.5788 -0.2400 -0.0608
 1010ETH     CH 9084   1.042   0.987   5.010 -0.1659 -0.3670 -0.5004
 1010ETH     HO 9085   1.053   1.181   5.220  1.8707 -0.5922  0.0784
 1010ETH     HC 9086   1.222   1.107   5.008 -1.2528  0.0191 -0.7852
 1010ETH     HC 9087   1.178   1.035   5.166 -2.2030 -0.2784  0.6100
 1010ETH     HC 9088   0.954   0.967   5.072 -0.2294  0.2915 -0.3720
 1010ETH     HC 9089   1.012   1.031   4.915 -2.8846  2.7040  1.6664
 1010ETH     HC 9090   1.094   0.892   4.996  0.2516  0.0005 -1.4121
 1011ETH     OH 9091   1.404   2.259   5.539  0.1925 -0.1521  0.4176
 1011ETH     CH 9092   1.544   2.241   5.543  0.2189  0.0084  0.2320
 1011ETH     CH 9093   1.613   2.304   5.422 -0.1546 -0.0865 -0.0294
 1011ETH     HO 9094   1.373   2.193   5.480  0.9136 -1.4982  1.5280
 1011ETH     HC 9095   1.561   2.294   5.637 -0.7396 -0.0646  0.4543
 1011ETH     HC 9096   1.575   2.138   5.563 -3.5510 -1.1248  0.6438
 1011ETH     HC 9097   1.699   2.240   5.404 -1.1732 -1.7237  0.7649
 1011ETH     HC 9098   1.544   2.294   5.338  1.8475  0.1113 -1.7204
 1011ETH     HC 9099   1.639   2.409   5.429 -0.3925 -0.1537  2.2816
 1012ETH     OH 9100   3.391   0.536   4.643  0.0288  0.8721  0.5441
 1012ETH     CH 9101   3.276   0.569   4.568  0.1196  0.1394  0.0843
 1012ETH     CH 9102   3.318   0.678   4.470 -0.3072 -0.3048 -0.5979
 1012ETH     HO 9103   3.410   0.615   4.693 -1.9007  2.7869 -1.6216
 1012ETH     HC 9104   3.242   0.479   4.517 -1.8914  1.4568 -0.9707
 1012ETH     HC 9105   3.199   0.597   4.640  1.5658  3.0522  0.5525
 1012ETH     HC 9106   3.248   0.706   4.391  0.5616 -0.2053 -1.3345
 1012ETH     HC 9107   3.332   0.772   4.523  0.3130 -0.5548 -0.3188
 1012ETH     HC 9108   3.423   0.670   4.441 -0.2008 -0.7840 -0.0797
 1013ETH     OH 9109   5.939   0.892   3.788 -0.6592 -0.3990 -0.1504
 1013ETH     CH 9110   5.997   0.773   3.740  0.0849 -0.3852  0.7060
 1013ETH     CH 9111   6.146   0.765   3.774  0.2819  0.2069  0.0012
 1013ETH     HO 9112   5.942   0.892   3.882  0.5474  0.6315 -0.1828
 1013ETH     HC 9113   5.943   0.683   3.769 -0.8388 -0.8662 -2.2890
 1013ETH     HC 9114   5.991   0.773   3.631 -1.3587  0.5475  0.7731
 1013ETH     HC 9115   6.206   0.853   3.752  0.4144  0.3276  0.8122
 1013ETH     HC 9116   6.159   0.748   3.881  2.1070  0.7808 -0.1284
 1013ETH     HC 9117   6.195   0.682   3.724 -1.2914  0.2388 -1.6236
 1014ETH     OH 9118   1.962   4.523   2.911  0.4923 -0.4828 -0.0159
 1014ETH     CH 9119   2.025   4.642   2.872  0.1016 -0.1070  0.4997
 1014ETH     CH 9120   2.045   4.722   3.001 -0.4013  0.0761  0.4657
 1014ETH     HO 9121   1.995   4.459   2.849  0.4338 -0.7637  0.2379
 1014ETH     HC 9122   2.119   4.625   2.819 -0.1806 -0.9189  0.2667
 1014ETH     HC 9123   1.955   4.702   2.814  0.7390 -0.7137 -0.9090
 1014ETH     HC 9124   2.105   4.813   2.993 -0.9558  0.5233  1.3050
 1014ETH     HC 9125   1.952   4.755   3.048 -0.1110 -0.1620  1.2099
 1014ETH     HC 9126   2.093   4.666   3.081  0.3403 -2.8280 -1.8984
 1015ETH     OH 9127   2.534   3.697   3.429 -0.5779  0.1733  0.1501
 1015ETH     CH 9128   2.647   3.775   3.396 -0.2188 -0.1921  0.5027
 1015ETH     CH 9129   2.640   3.918   3.451  0.4400  0.1236 -0.2364
 1015ETH     HO 9130   2.462   3.747   3.394  2.1479  2.8020 -1.9922
 1015ETH     HC 9131   2.740   3.733   3.434 -0.3342 -1.0549 -0.1564
 1015ETH     HC 9132   2.646   3.782   3.288 -0.5429  0.3845  0.5397
 1015ETH     HC 9133   2.607   3.930   3.554 -2.7372  1.0091 -1.3067
 1015ETH     HC 9134   2.739   3.964   3.452  0.9827 -1.0410 -0.0565
 1015ETH     HC 9135   2.580   3.988   3.392  1.9531  2.2310  0.6579
 1016ETH     OH 9136   5.300   1.265   5.315  0.7644 -0.6444  0.0615
 1016ETH     CH 9137   5.384   1.259   5.201  0.1654  0.3629 -0.4404
 1016ETH     CH 9138   5.493   1.363   5.226  0.2139  0.0908  0.5247
 1016ETH     HO 9139   5.213   1.242   5.286  0.7163 -0.0999 -0.2271
 1016ETH     HC 9140   5.424   1.159   5.185 -0.3624  0.1439 -0.4346
 1016ETH     HC 9141   5.325   1.280   5.112 -2.1594 -0.0490  0.9524
 1016ETH     HC 9142   5.540   1.398   5.134 -0.0350  2.9607  1.4380
 1016ETH     HC 9143   5.466   1.450   5.287  2.3825  2.2163 -1.4269
 1016ETH     HC 9144   5.563   1.301   5.281 -0.2064 -0.4802  0.4127
 1017ETH     OH 9145   5.873   2.458   3.144 -0.2614  0.1362 -0.3499
 1017ETH     CH 9146   5.746   2.419   3.191 -0.2104 -0.1735 -0.4641
 1017ETH     CH 9147   5.645   2.534   3.177  0.6434  0.7103  0.5483
 1017ETH     HO 9148   5.904   2.513   3.214 -0.0248 -0.7649  0.2557
 1017ETH     HC 9149   5.746   2.391   3.296 -0.7266  0.4963 -0.2807
 1017ETH     HC 9150   5.714   2.331   3.135 -0.7849  1.1972 -2.3440
 1017ETH     HC 9151   5.684   2.622   3.227 -0.2299  0.9701  0.7661
 1017ETH     HC 9152   5.640   2.557   3.071 -0.4159 -0.5554  0.3097
 1017ETH     HC 9153   5.548   2.497   3.211  2.0196 -1.4786  2.2873
 1018ETH     OH 9154   6.214   3.306   4.340 -0.2307 -0.0709 -0.6387
 1018ETH     CH 9155   6.203   3.170   4.376 -0.3267 -0.0218 -0.4823
 1018ETH     CH 9156   6.304   3.098   4.287  0.1556 -0.0231  0.0678
 1018ETH     HO 9157   6.143   3.330   4.283  0.4274 -1.8293 -2.2412
 1018ETH     HC 9158   6.213   3.150   4.483  1.5174 -2.6544 -1.0884
 1018ETH     HC 9159   6.104   3.133   4.348 -1.2589  1.8105  0.2747
 1018ETH     HC 9160   6.276   3.097   4.182  0.7079 -1.3465 -0.0805
 1018ETH     HC 9161   6.399   3.151   4.290  1.0319 -1.4481 -1.7110
 1018ETH     HC 9162   6.326   2.997   4.323 -1.9623  0.7499  3.8191
 1019ETH     OH 9163   0.918   0.687   5.670  0.3546  0.3952  0.1140
 1019ETH     CH 9164   0.886   0.772   5.778 -0.2797  0.1661  0.1033
 1019ETH     CH 9165   0.770   0.865   5.740 -0.4896 -0.1086  0.0678
 1019ETH     HO 9166   0.940   0.743   5.597 -0.3454 -0.2691 -0.6181
 1019ETH     HC 9167   0.848   0.718   5.865 -2.0221  0.9535 -0.1344
 1019ETH     HC 9168   0.975   0.830   5.801  1.3703 -2.5602  0.8272
 1019ETH     HC 9169   0.688   0.803   5.705  0.0556  0.0399 -1.5144
 1019ETH     HC 9170   0.736   0.927   5.822 -0.7401  1.5998 -1.3006
 1019ETH     HC 9171   0.800   0.922   5.652  1.6705 -2.1816 -0.5954
 1020ETH     OH 9172   0.722   4.519   2.508  0.0015 -0.2549  0.3290
 1020ETH     CH 9173   0.760   4.393   2.457 -0.5297 -0.3942  0.2786
 1020ETH     CH 9174   0.908   4.381   2.493 -0.5105 -0.4625  0.1781
 1020ETH     HO 9175   0.757   4.535   2.594  0.1480  2.7536 -0.2191
 1020ETH     HC 9176   0.720   4.310   2.516  1.4501 -1.3424  0.3191
 1020ETH     HC 9177   0.742   4.376   2.351  0.9506  0.8944 -0.1890
 1020ETH     HC 9178   0.923   4.398   2.600 -0.2661 -2.1068  0.4162
 1020ETH     HC 9179   0.941   4.281   2.466  0.1655  0.0683 -0.9681
 1020ETH     HC 9180   0.969   4.446   2.431 -0.4462 -1.7914 -1.1719
 1021ETH     OH 9181   0.067   3.043   1.829  0.0649 -0.3895  0.9042
 1021ETH     CH 9182   0.168   3.125   1.884 -0.4169  0.4642  0.5096
 1021ETH     CH 9183   0.174   3.248   1.793 -0.4524 -0.1610 -0.3500
 1021ETH     HO 9184   0.051   2.980   1.898  0.7598  0.7953  2.1704
 1021ETH     HC 9185   0.149   3.146   1.989 -1.8445 -1.2945  0.6320
 1021ETH     HC 9186   0.267   3.085   1.862 -1.6822 -3.4161  1.4484
 1021ETH     HC 9187   0.169   3.217   1.689 -1.2443  0.9734 -0.6576
 1021ETH     HC 9188   0.084   3.308   1.804  1.6908  3.1765 -0.2342
 1021ETH     HC 9189   0.258   3.314   1.818 -1.0068  0.5241 -0.2747
 1022ETH     OH 9190   1.998   0.427   1.789  0.1447  0.2270  0.0081
 1022ETH     CH 9191   1.871   0.472   1.829  0.1776  0.5040 -0.1973
 1022ETH     CH 9192   1.808   0.574   1.734 -0.9529  0.1587  0.1749
 1022ETH     HO 9193   2.054   0.408   1.863  3.0869  2.2963 -1.5724
 1022ETH     HC 9194   1.808   0.389   1.861  1.3309  0.3303  1.7322
 1022ETH     HC 9195   1.893   0.522   1.924  2.4987  0.9728 -0.9554
 1022ETH     HC 9196   1.745   0.528   1.658  0.4921  0.2344 -1.0869
 1022ETH     HC 9197   1.737   0.630   1.795 -0.8798  0.0006  0.4038
 1022ETH     HC 9198   1.883   0.643   1.694  0.4001 -2.4406 -1.9310
 1023ETH     OH 9199   5.146   5.025   0.636 -0.0813 -0.0274  0.0580
 1023ETH     CH 9200   5.286   5.033   0.623 -0.0266 -0.3964  0.4159
 1023ETH     CH 9201   5.322   5.171   0.568 -0.4006 -0.5377 -0.1845
 1023ETH     HO 9202   5.123   4.954   0.694 -0.8347  1.3163  1.4510
 1023ETH     HC 9203   5.325   5.034   0.725  1.2825  0.4871 -0.0783
 1023ETH     HC 9204   5.323   4.953   0.559 -0.2896  1.4002 -2.0387
 1023ETH     HC 9205   5.266   5.254   0.611 -1.8437 -1.1054 -0.9431
 1023ETH     HC 9206   5.429   5.185   0.585 -0.4622 -1.3126  0.8755
 1023ETH     HC 9207   5.316   5.172   0.459  1.9856 -1.2006 -0.3525
 1024ETH     OH 9208   5.339   5.423   4.592  0.1651  0.0557  0.6617
 1024ETH     CH 9209   5.367   5.559   4.614  0.3248  0.1561 -0.1438
 1024ETH     CH 9210   5.482   5.569   4.715  0.2659 -0.1680 -0.0466
 1024ETH     HO 9211   5.260   5.426   4.539 -0.3307  0.7669  1.4385
 1024ETH     HC 9212   5.395   5.610   4.521 -0.5753 -3.3246 -2.3823
 1024ETH     HC 9213   5.280   5.604   4.661  1.1957  0.4266  1.2321
 1024ETH     HC 9214   5.544   5.656   4.693 -0.8188  0.5553 -0.2868
 1024ETH     HC 9215   5.442   5.580   4.815 -2.1925  0.1673 -1.0281
 1024ETH     HC 9216   5.543   5.479   4.713 -1.4233 -1.3382 -1.4131
 1025ETH     OH 9217   0.539   1.410   3.152 -0.3236  0.3394 -0.3782
 1025ETH     CH 9218   0.618   1.473   3.053 -0.0294  0.0989 -0.2958
 1025ETH     CH 9219   0.541   1.561   2.954 -0.5418  0.1696  0.1620
 1025ETH     HO 9220   0.592   1.338   3.181 -0.1822  0.3531 -0.5990
 1025ETH     HC 9221   0.693   1.531   3.106 -2.5049  0.7344  2.6907
 1025ETH     HC 9222   0.679   1.401   2.999  1.6328  1.3625 -0.1344
 1025ETH     HC 9223   0.614   1.607   2.888 -2.7778  1.4654 -1.4511
 1025ETH     HC 9224   0.476   1.511   2.883  1.8442  0.0648 -1.9988
 1025ETH     HC 9225   0.478   1.628   3.013 -3.4446 -2.0477 -0.3597
 1026ETH     OH 9226   4.160   3.812   4.925 -0.1647 -0.1246 -0.3670
 1026ETH     CH 9227   4.054   3.723   4.899 -0.3582 -0.0413  0.1454
 1026ETH     CH 9228   4.007   3.672   5.036 -0.4072 -0.0868  0.1120
 1026ETH     HO 9229   4.138   3.861   5.002 -0.6403 -3.0515  1.4122
 1026ETH     HC 9230   3.971   3.762   4.841 -1.6814 -2.3451  0.4148
 1026ETH     HC 9231   4.101   3.642   4.844  0.9056  1.7530 -1.4776
 1026ETH     HC 9232   3.957   3.746   5.099 -1.7038  1.5592 -2.7509
 1026ETH     HC 9233   3.929   3.598   5.018  0.4245 -0.2796 -3.0857
 1026ETH     HC 9234   4.091   3.634   5.095  0.5489 -0.2380 -1.3080
 1027ETH     OH 9235   1.082   3.584   4.782 -0.2031 -0.5479 -0.5363
 1027ETH     CH 9236   0.969   3.538   4.853  0.1826 -0.5757  0.0647
 1027ETH     CH 9237   0.869   3.468   4.761 -0.3119 -0.0897  0.2325
 1027ETH     HO 9238   1.103   3.669   4.817  1.7257 -1.0321 -0.4309
 1027ETH     HC 9239   0.993   3.475   4.939  0.5712 -2.1131 -1.1655
 1027ETH     HC 9240   0.913   3.623   4.892 -3.0131 -1.1203 -3.1230
 1027ETH     HC 9241   0.908   3.376   4.718  2.0678 -0.0416  2.1743
 1027ETH     HC 9242   0.773   3.449   4.808  0.8329  2.2057  3.7429
 1027ETH     HC 9243   0.852   3.541   4.682 -1.8967 -0.7201 -0.0091
 1028ETH     OH 9244   3.180   2.834   2.498  0.2985  0.5221  0.0034
 1028ETH     CH 9245   3.226   2.719   2.430 -0.4943  0.3523 -0.2470
 1028ETH     CH 9246   3.378   2.717   2.414 -0.5110 -0.2924 -0.3485
 1028ETH     HO 9247   3.171   2.908   2.440  0.4127  0.8713  0.4321
 1028ETH     HC 9248   3.193   2.629   2.483 -0.9304  0.5589 -0.1630
 1028ETH     HC 9249   3.183   2.718   2.330 -0.7517 -0.6857 -0.1347
 1028ETH     HC 9250   3.431   2.707   2.509 -1.5619  0.1187  0.2913
 1028ETH     HC 9251   3.403   2.624   2.363  0.5594 -0.6368  0.7657
 1028ETH     HC 9252   3.417   2.798   2.353  1.1203  0.8938  2.1774
 1029ETH     OH 9253   1.791   0.058   0.701  0.6347 -0.2881 -0.3682
 1029ETH     CH 9254   1.829   0.099   0.831 -0.4720  0.5433 -0.2963
 1029ETH     CH 9255   1.955   0.185   0.822 -0.4456  0.4762 -0.5923
 1029ETH     HO 9256   1.728  -0.011   0.712 -0.2652  0.6813  0.8336
 1029ETH     HC 9257   1.752   0.141   0.895  0.5524 -0.3703  1.5595
 1029ETH     HC 9258   1.847   0.003   0.880 -2.6952 -1.0448 -2.4327
 1029ETH     HC 9259   2.033   0.133   0.767  0.8922 -0.8971  2.4534
 1029ETH     HC 9260   1.926   0.284   0.788 -1.0874  0.9507  1.2429
 1029ETH     HC 9261   2.000   0.203   0.920  1.2469  0.0811 -1.2844
 1030ETH     OH 9262   6.093   5.193   4.742 -0.0141  0.0680  0.3843
 1030ETH     CH 9263   6.078   5.188   4.601  0.5029  0.0011  0.3312
 1030ETH     CH 9264   6.208   5.214   4.524  0.0434  0.4737 -0.2823
 1030ETH     HO 9265   6.001   5.187   4.763  0.1763  2.2266  1.9726
 1030ETH     HC 9266   6.043   5.089   4.571 -1.7564  0.3999  1.5687
 1030ETH     HC 9267   6.005   5.268   4.588  1.0746  0.5744  0.6100
 1030ETH     HC 9268   6.199   5.204   4.416  1.8923 -1.2646 -0.2964
 1030ETH     HC 9269   6.236   5.319   4.536 -0.1083  0.4803  0.0229
 1030ETH     HC 9270   6.297   5.158   4.552 -1.3217 -0.7678  1.7085
 1031ETH     OH 9271   4.299   0.053   6.043  0.0685  0.7143 -0.1778
 1031ETH     CH 9272   4.249   0.027   5.914 -0.3550 -0.2067  0.1661
 1031ETH     CH 9273   4.140   0.128   5.882 -0.7558 -0.5491  0.4393
 1031ETH     HO 9274   4.391   0.035   6.039 -0.4306 -2.1435 -0.1231
 1031ETH     HC 9275   4.336   0.037   5.849 -0.3570 -1.3780 -0.0306
 1031ETH     HC 9276   4.219  -0.078   5.923 -0.9594  0.0327  0.9530
 1031ETH     HC 9277   4.063   0.099   5.810 -0.9615  1.8668 -0.3786
 1031ETH     HC 9278   4.072   0.136   5.967 -1.2880  0.1266 -0.0340
 1031ETH     HC 9279   4.177   0.225   5.847 -1.1592 -0.7365 -0.5396
 1032ETH     OH 9280   5.796   1.127   2.095  0.2439  0.6711  0.3020
 1032ETH     CH 9281   5.746   1.259   2.091 -0.8092  0.2725  0.0098
 1032ETH     CH 9282   5.842   1.349   2.170  0.2256 -0.3177 -0.5586
 1032ETH     HO 9283   5.745   1.080   2.030 -0.0412 -1.5072  2.0185
 1032ETH     HC 9284   5.729   1.299   1.991 -0.1985  2.6951  0.8503
 1032ETH     HC 9285   5.652   1.268   2.144 -0.5384 -4.0536  1.4489
 1032ETH     HC 9286   5.865   1.296   2.262 -2.6913 -2.3038 -0.8844
 1032ETH     HC 9287   5.924   1.372   2.101  0.1268 -1.2155 -0.9901
 1032ETH     HC 9288   5.787   1.441   2.187  0.6183 -0.1299 -0.3067
 1033ETH     OH 9289   6.010   4.277   2.109  0.5984  0.0061 -0.3210
 1033ETH     CH 9290   6.064   4.377   2.025  0.3444  0.2640 -0.1801
 1033ETH     CH 9291   6.050   4.336   1.879 -0.0478  0.0304 -0.0783
 1033ETH     HO 9292   5.924   4.259   2.075  0.4084  0.5861 -0.1628
 1033ETH     HC 9293   6.014   4.472   2.043  3.1167  1.2687  2.7104
 1033ETH     HC 9294   6.166   4.387   2.064  0.2020 -0.4960  0.3891
 1033ETH     HC 9295   6.092   4.411   1.812  1.9356 -0.8464  0.1354
 1033ETH     HC 9296   6.108   4.246   1.856 -1.3620 -0.6603 -0.7215
 1033ETH     HC 9297   5.949   4.307   1.851  0.0219 -1.2578  0.9582
 1034ETH     OH 9298   2.696   3.237   2.833  0.1535 -0.0434  0.5436
 1034ETH     CH 9299   2.736   3.116   2.771  0.3462  0.2019  0.1903
 1034ETH     CH 9300   2.621   3.017   2.790 -0.3270  1.1098  0.9089
 1034ETH     HO 9301   2.760   3.250   2.902 -0.8751  1.0630  1.3030
 1034ETH     HC 9302   2.746   3.127   2.663  0.4088  1.6687  0.3240
 1034ETH     HC 9303   2.833   3.075   2.799 -0.4172 -1.9438 -0.2798
 1034ETH     HC 9304   2.628   2.944   2.709 -1.7039  1.2212  0.6717
 1034ETH     HC 9305   2.630   2.951   2.876 -0.4047  1.0841  0.8971
 1034ETH     HC 9306   2.521   3.061   2.782 -0.5396  0.0990 -2.9403
 1035ETH     OH 9307   2.126   5.559   5.331  0.0822  0.3863  0.7955
 1035ETH     CH 9308   2.028   5.632   5.260  0.4214  0.2686  0.2071
 1035ETH     CH 9309   2.063   5.618   5.111  0.3510  0.2986  0.1880
 1035ETH     HO 9310   2.128   5.597   5.417  0.9284 -2.3092  2.0181
 1035ETH     HC 9311   1.926   5.598   5.281  0.7411 -1.3694 -0.7144
 1035ETH     HC 9312   2.046   5.732   5.297  0.6988  0.2887  0.0237
 1035ETH     HC 9313   2.156   5.673   5.097 -1.1285  2.3126 -2.2927
 1035ETH     HC 9314   2.083   5.519   5.070 -0.3334  0.5114 -0.6777
 1035ETH     HC 9315   1.982   5.665   5.055 -0.7152 -1.4687  0.2359
 1036ETH     OH 9316   3.263   3.440   4.653 -0.1268 -0.3096 -0.0344
 1036ETH     CH 9317   3.389   3.386   4.686  0.1370  0.3903  0.1048
 1036ETH     CH 9318   3.497   3.456   4.603  0.0604 -0.0454 -0.3695
 1036ETH     HO 9319   3.198   3.417   4.718 -1.2820 -2.8267 -1.9599
 1036ETH     HC 9320   3.401   3.398   4.793 -1.6822  3.1349  0.0513
 1036ETH     HC 9321   3.402   3.281   4.662 -2.0540 -0.4185  2.2345
 1036ETH     HC 9322   3.484   3.442   4.496  1.7512  0.5655 -0.6707
 1036ETH     HC 9323   3.501   3.565   4.614  0.2916 -0.0391 -0.5146
 1036ETH     HC 9324   3.592   3.413   4.634 -0.1632 -0.4000 -0.1815
 1037ETH     OH 9325   4.676   4.188   3.968 -0.7440  0.0148  0.1114
 1037ETH     CH 9326   4.586   4.089   3.926 -0.4199 -0.1675 -0.1561
 1037ETH     CH 9327   4.550   4.003   4.047  0.7518 -0.0387  0.2840
 1037ETH     HO 9328   4.636   4.226   4.044 -1.3815  1.7545 -1.0723
 1037ETH     HC 9329   4.498   4.130   3.876 -1.1303  1.9862  2.7505
 1037ETH     HC 9330   4.627   4.028   3.845 -1.9096 -0.5701 -0.6396
 1037ETH     HC 9331   4.543   4.067   4.135 -1.8601  1.5049 -1.0189
 1037ETH     HC 9332   4.455   3.953   4.030  0.6233  0.2843  0.0570
 1037ETH     HC 9333   4.622   3.928   4.081  0.6261 -0.8896 -1.2834
 1038ETH     OH 9334   4.532   0.168   4.000  0.4901 -0.1304  0.6583
 1038ETH     CH 9335   4.637   0.151   3.908  0.0344  0.4571  0.0224
 1038ETH     CH 9336   4.581   0.139   3.767 -0.3707 -0.7185  0.2762
 1038ETH     HO 9337   4.569   0.133   4.080  2.7446 -0.8465 -0.6529
 1038ETH     HC 9338   4.689   0.063   3.947  1.1035  1.8000  1.7298
 1038ETH     HC 9339   4.705   0.236   3.920 -0.2971  0.6358  0.6578
 1038ETH     HC 9340   4.551   0.236   3.727 -2.1167 -0.2677  2.5517
 1038ETH     HC 9341   4.667   0.100   3.712 -0.9508 -0.5014 -0.8061
 1038ETH     HC 9342   4.505   0.066   3.739 -0.3209  0.5785 -3.5454
 1039ETH     OH 9343   5.315   0.370   1.939  0.0690 -0.1847 -0.0223
 1039ETH     CH 9344   5.406   0.422   2.034  0.0625  0.2572 -0.2578
 1039ETH     CH 9345   5.544   0.442   1.971  0.4284  0.0820  0.4821
 1039ETH     HO 9346   5.303   0.278   1.953  1.4470 -0.5939 -1.3612
 1039ETH     HC 9347   5.363   0.518   2.063 -0.1828  0.0958 -0.0904
 1039ETH     HC 9348   5.396   0.355   2.119 -1.2225  0.0891 -0.5280
 1039ETH     HC 9349   5.544   0.492   1.873  0.7034  0.1650  0.5246
 1039ETH     HC 9350   5.618   0.492   2.033 -0.3011 -0.4422  1.7772
 1039ETH     HC 9351   5.570   0.340   1.944 -0.6258 -0.3643  1.1187
 1040ETH     OH 9352   4.621   3.779   3.588 -0.0071  0.2044  0.6758
 1040ETH     CH 9353   4.558   3.715   3.696 -0.2579 -0.1511  0.3213
 1040ETH     CH 9354   4.450   3.617   3.649  0.0821 -0.1581 -0.4441
 1040ETH     HO 9355   4.706   3.810   3.615 -0.7632  2.4094  0.6264
 1040ETH     HC 9356   4.640   3.659   3.741  1.9933  1.5444 -1.5472
 1040ETH     HC 9357   4.520   3.788   3.768  1.8065 -1.0852  2.4204
 1040ETH     HC 9358   4.501   3.540   3.590 -2.8032 -0.1125 -3.1255
 1040ETH     HC 9359   4.407   3.573   3.739 -0.1985 -0.2114 -0.6043
 1040ETH     HC 9360   4.366   3.668   3.603 -0.6237 -1.4428 -0.6094
 1041ETH     OH 9361   3.698   1.410   0.568  0.4756  0.4068  0.1866
 1041ETH     CH 9362   3.752   1.308   0.649 -0.2770 -0.1678 -0.0329
 1041ETH     CH 9363   3.726   1.359   0.791 -0.2334 -0.4990  0.0934
 1041ETH     HO 9364   3.644   1.363   0.507  0.5317 -2.1563  2.0291
 1041ETH     HC 9365   3.690   1.222   0.626 -0.4637 -0.1490  0.3922
 1041ETH     HC 9366   3.856   1.284   0.628 -0.7643 -0.6097 -2.0500
 1041ETH     HC 9367   3.786   1.444   0.821  1.7496 -1.8853  0.1124
 1041ETH     HC 9368   3.618   1.373   0.802 -0.3134 -0.2318 -0.9459
 1041ETH     HC 9369   3.757   1.278   0.857  0.9157 -0.4489 -0.3710
 1042ETH     OH 9370   4.323   5.436   4.093  0.3483 -0.3586  0.2629
 1042ETH     CH 9371   4.193   5.460   4.043  0.4013 -0.3068  0.1515
 1042ETH     CH 9372   4.200   5.450   3.890  0.0450 -0.0241  0.1180
 1042ETH     HO 9373   4.313   5.427   4.187 -0.7069  2.2411  0.4430
 1042ETH     HC 9374   4.129   5.379   4.077  1.1287 -0.4043  1.2958
 1042ETH     HC 9375   4.145   5.552   4.074 -1.5233 -1.3359  0.3098
 1042ETH     HC 9376   4.246   5.355   3.864 -0.6407 -0.1142 -0.7823
 1042ETH     HC 9377   4.097   5.457   3.855  0.7486  0.9620 -1.8290
 1042ETH     HC 9378   4.259   5.531   3.848 -1.8972  0.8666 -0.9887
 1043ETH     OH 9379   1.941   5.845   4.860 -0.0707 -0.1412 -0.2900
 1043ETH     CH 9380   2.024   5.848   4.746  0.0112  0.4474 -0.2179
 1043ETH     CH 9381   2.157   5.906   4.794  0.0297  0.0370  0.2289
 1043ETH     HO 9382   1.948   5.936   4.886 -1.4294  0.3058 -1.4214
 1043ETH     HC 9383   2.039   5.743   4.720  0.1671 -0.1984  2.4182
 1043ETH     HC 9384   1.969   5.903   4.669 -1.0611  2.5490  1.9953
 1043ETH     HC 9385   2.237   5.911   4.720  0.3569 -0.5093  0.5442
 1043ETH     HC 9386   2.146   6.007   4.833 -1.1668 -0.3314  0.8982
 1043ETH     HC 9387   2.209   5.843   4.866  0.5328  0.1696 -0.0228
 1044ETH     OH 9388   4.517   0.695   6.225  0.7948  0.6266 -0.0432
 1044ETH     CH 9389   4.414   0.768   6.162  0.1704 -0.1926  0.0134
 1044ETH     CH 9390   4.470   0.854   6.048 -0.5767  0.3075  0.0199
 1044ETH     HO 9391   4.480   0.655   6.302  1.2855  0.2292 -0.0130
 1044ETH     HC 9392   4.333   0.704   6.128  0.1585  0.5152 -1.3153
 1044ETH     HC 9393   4.361   0.821   6.241 -0.2665 -1.3263  0.4842
 1044ETH     HC 9394   4.503   0.797   5.961 -1.1268  1.1053 -0.7180
 1044ETH     HC 9395   4.393   0.926   6.021  0.5368  0.3506 -3.2691
 1044ETH     HC 9396   4.552   0.914   6.088 -0.0970  0.0100 -0.5152
 1045ETH     OH 9397   2.566   5.121   2.316  0.2634 -0.0435  0.0839
 1045ETH     CH 9398   2.543   5.235   2.397 -0.1223 -0.0599  0.0007
 1045ETH     CH 9399   2.580   5.359   2.315 -0.3838  0.1315  0.1722
 1045ETH     HO 9400   2.550   5.039   2.359 -1.8512  0.8091  1.0423
 1045ETH     HC 9401   2.447   5.241   2.449  0.9037  0.2590  1.8765
 1045ETH     HC 9402   2.618   5.220   2.475 -1.9845 -0.4835  1.7575
 1045ETH     HC 9403   2.562   5.450   2.372  1.8046  0.5540  0.2315
 1045ETH     HC 9404   2.684   5.372   2.285  0.0242  0.0452  1.5333
 1045ETH     HC 9405   2.510   5.376   2.233  1.1550 -0.1851 -1.2154
 1046ETH     OH 9406   4.343   3.419   4.558 -0.3461  0.2152  0.0629
 1046ETH     CH 9407   4.279   3.488   4.663 -0.6459  0.6511 -0.4092
 1046ETH     CH 9408   4.371   3.512   4.782 -0.6464  0.3828 -0.3558
 1046ETH     HO 9409   4.365   3.330   4.581 -0.3949 -0.3094 -1.8341
 1046ETH     HC 9410   4.241   3.586   4.633 -1.7061 -0.0160 -1.3096
 1046ETH     HC 9411   4.188   3.433   4.688  0.7563 -0.6260  1.9788
 1046ETH     HC 9412   4.407   3.430   4.844  0.1735  0.9827 -0.0224
 1046ETH     HC 9413   4.460   3.570   4.759  2.4513 -3.4870  1.2675
 1046ETH     HC 9414   4.318   3.575   4.853  0.8092  1.3463 -0.0940
 1047ETH     OH 9415   1.762   3.186   0.455  0.0378  0.6784 -0.8339
 1047ETH     CH 9416   1.874   3.162   0.537 -0.4806 -0.1583 -0.3604
 1047ETH     CH 9417   1.999   3.170   0.449 -0.1605  0.4685  0.1472
 1047ETH     HO 9418   1.687   3.162   0.507 -0.2647 -0.5222 -1.7715
 1047ETH     HC 9419   1.882   3.226   0.625  0.0259 -3.0046  1.7580
 1047ETH     HC 9420   1.869   3.060   0.576 -0.1060  0.0177  0.1496
 1047ETH     HC 9421   2.003   3.088   0.377  0.6145  0.1152  0.5863
 1047ETH     HC 9422   2.002   3.263   0.392  0.9547 -1.2179 -2.6547
 1047ETH     HC 9423   2.096   3.167   0.499 -0.8216  0.4303  1.4557
 1048ETH     OH 9424   2.041   2.800   1.767 -0.1279  0.2775  0.2461
 1048ETH     CH 9425   1.939   2.894   1.792 -0.2344  0.2524 -0.0890
 1048ETH     CH 9426   1.974   3.016   1.707 -0.5361  0.0892 -0.4481
 1048ETH     HO 9427   2.051   2.793   1.673  1.8192 -0.8453  0.4987
 1048ETH     HC 9428   1.841   2.855   1.765 -1.5084  0.7164  3.6492
 1048ETH     HC 9429   1.933   2.920   1.897  0.1442 -0.6244  0.1584
 1048ETH     HC 9430   1.901   3.096   1.713 -0.9949 -0.2970 -0.8119
 1048ETH     HC 9431   2.067   3.065   1.735 -1.0373 -0.9794  3.3920
 1048ETH     HC 9432   1.971   2.984   1.602 -1.3753  1.2087 -0.7703
 1049ETH     OH 9433   4.621   1.089   3.150 -0.3407  0.0890 -0.5310
 1049ETH     CH 9434   4.750   1.143   3.171 -0.5841  0.4261  0.1013
 1049ETH     CH 9435   4.783   1.260   3.078 -0.0880  0.3318  0.1615
 1049ETH     HO 9436   4.581   1.061   3.231 -1.8752  1.3385 -0.8450
 1049ETH     HC 9437   4.759   1.183   3.272 -0.2914  1.0273 -0.1588
 1049ETH     HC 9438   4.812   1.054   3.156 -0.8024  0.0428  1.4445
 1049ETH     HC 9439   4.759   1.251   2.972  1.3819 -0.5099 -0.1200
 1049ETH     HC 9440   4.739   1.351   3.118 -1.4999 -1.1978  2.2069
 1049ETH     HC 9441   4.890   1.281   3.081 -0.6962  3.7357  0.1432
 1050ETH     OH 9442   3.789   1.387   1.835  0.1357 -0.1025 -0.8908
 1050ETH     CH 9443   3.929   1.393   1.822  0.2281  0.2768  0.2300
 1050ETH     CH 9444   3.977   1.537   1.800 -0.0661  0.3724  0.2196
 1050ETH     HO 9445   3.767   1.300   1.864 -0.4277  0.4001  0.2258
 1050ETH     HC 9446   3.981   1.340   1.902 -1.3445 -0.8343  0.5363
 1050ETH     HC 9447   3.959   1.335   1.735 -0.9468 -3.1542  2.0086
 1050ETH     HC 9448   3.938   1.586   1.711  1.6462 -0.3879 -0.9694
 1050ETH     HC 9449   3.943   1.601   1.882 -1.2352  2.5028 -1.8700
 1050ETH     HC 9450   4.085   1.539   1.807 -0.0687  0.3540  0.2625
 1051ETH     OH 9451   2.607   1.728   3.477  0.3067 -0.4216  0.0686
 1051ETH     CH 9452   2.588   1.721   3.616 -0.0931 -0.0985  0.0314
 1051ETH     CH 9453   2.654   1.594   3.669  0.0506  0.0707  0.2629
 1051ETH     HO 9454   2.699   1.712   3.464  1.0404  2.4581  1.3242
 1051ETH     HC 9455   2.636   1.808   3.661 -1.5442 -0.5535  2.5779
 1051ETH     HC 9456   2.485   1.744   3.642 -0.1006 -0.7780  0.6328
 1051ETH     HC 9457   2.585   1.512   3.691 -0.3353  0.2251 -0.3614
 1051ETH     HC 9458   2.719   1.553   3.591 -1.5308  1.5789 -1.9231
 1051ETH     HC 9459   2.705   1.609   3.764 -0.6316  1.9074  0.3580
 1052ETH     OH 9460   2.092   3.775   1.970 -0.0864 -0.1624 -0.1539
 1052ETH     CH 9461   2.097   3.669   1.877  0.4057 -0.1091 -0.1895
 1052ETH     CH 9462   2.126   3.541   1.957  0.3597 -0.1366 -0.2167
 1052ETH     HO 9463   2.110   3.858   1.928  3.8836 -0.8835 -0.0885
 1052ETH     HC 9464   2.007   3.671   1.817  1.4748  0.4206 -1.8141
 1052ETH     HC 9465   2.170   3.695   1.801  3.0972 -1.2654  1.9034
 1052ETH     HC 9466   2.027   3.506   1.989  0.9041 -0.2021  1.4105
 1052ETH     HC 9467   2.170   3.469   1.888 -0.5595 -0.9567  0.0296
 1052ETH     HC 9468   2.195   3.539   2.041 -0.7792 -1.4321  0.7148
 1053ETH     OH 9469   0.974   3.895   5.134 -0.0095  0.1794  0.2534
 1053ETH     CH 9470   0.929   4.001   5.215  0.1259 -0.1042  0.7001
 1053ETH     CH 9471   1.001   4.127   5.167 -0.4846  0.0429  0.1580
 1053ETH     HO 9472   0.913   3.823   5.142  1.7684 -1.3617  0.2472
 1053ETH     HC 9473   0.821   4.006   5.200  0.2842  0.5039 -0.2287
 1053ETH     HC 9474   0.952   3.986   5.321  1.5411 -1.1043  0.2630
 1053ETH     HC 9475   0.988   4.149   5.062 -2.3853  1.8735  0.7502
 1053ETH     HC 9476   0.965   4.214   5.221  1.4336  0.4032  0.8875
 1053ETH     HC 9477   1.107   4.125   5.192 -0.2946  0.9065 -0.5752
 1054ETH     OH 9478   5.781   5.531   2.764 -0.1059  0.0145 -0.2546
 1054ETH     CH 9479   5.687   5.528   2.659  0.0468 -0.4376 -0.3791
 1054ETH     CH 9480   5.743   5.607   2.541  0.3834 -0.3087 -0.1330
 1054ETH     HO 9481   5.761   5.477   2.839 -2.3625  1.4412  0.2285
 1054ETH     HC 9482   5.589   5.565   2.688  1.1487  1.8049  0.5758
 1054ETH     HC 9483   5.669   5.427   2.622  0.9302  0.1543 -2.5151
 1054ETH     HC 9484   5.844   5.570   2.525 -0.5462 -2.9685 -0.0165
 1054ETH     HC 9485   5.687   5.600   2.447 -1.1390  0.2556  0.7169
 1054ETH     HC 9486   5.757   5.714   2.561  0.5963  0.6027 -4.5231
 1055ETH     OH 9487   4.500   2.457   1.904  0.1779  0.3578 -0.0948
 1055ETH     CH 9488   4.359   2.462   1.901  0.1782  0.4409  0.0606
 1055ETH     CH 9489   4.317   2.592   1.833  0.0888  0.1454 -0.4493
 1055ETH     HO 9490   4.537   2.520   1.963 -1.1395 -0.2661  1.4530
 1055ETH     HC 9491   4.319   2.372   1.855 -0.8983  0.7481  0.3697
 1055ETH     HC 9492   4.316   2.461   2.001 -2.7744 -0.2109 -1.1693
 1055ETH     HC 9493   4.363   2.591   1.734 -0.8626  1.4989 -0.9264
 1055ETH     HC 9494   4.209   2.604   1.818  0.2612  0.1795 -1.7720
 1055ETH     HC 9495   4.351   2.674   1.896 -0.1019 -0.4713  0.4616
 1056ETH     OH 9496   1.030   0.950   2.037  0.1654 -0.4574 -0.5960
 1056ETH     CH 9497   1.115   0.862   2.107 -0.2569 -0.6870 -0.3697
 1056ETH     CH 9498   1.214   0.809   2.004  0.1454 -0.4624 -0.0967
 1056ETH     HO 9499   0.994   0.903   1.963  0.4880 -0.9613 -0.4323
 1056ETH     HC 9500   1.170   0.918   2.182 -2.5180  0.2506  0.6434
 1056ETH     HC 9501   1.063   0.783   2.162  0.5055 -1.6959 -1.0683
 1056ETH     HC 9502   1.159   0.747   1.933 -0.0118 -0.5102  0.0692
 1056ETH     HC 9503   1.262   0.886   1.943  1.0659 -1.5840 -0.8184
 1056ETH     HC 9504   1.296   0.749   2.044  0.6368 -0.2621 -0.7871
 1057ETH     OH 9505   6.095   1.214   0.487 -0.5186 -0.1574 -0.3050
 1057ETH     CH 9506   6.023   1.330   0.523 -0.2500 -0.0716 -0.0451
 1057ETH     CH 9507   6.021   1.335   0.675 -0.1127 -0.3417 -0.0349
 1057ETH     HO 9508   6.185   1.235   0.470 -0.6728  2.0092  1.3633
 1057ETH     HC 9509   6.065   1.424   0.486  2.1967 -0.9810  0.3134
 1057ETH     HC 9510   5.921   1.325   0.486 -0.2617  0.1631 -0.0462
 1057ETH     HC 9511   6.117   1.359   0.720  0.2577 -1.7721 -0.0145
 1057ETH     HC 9512   5.963   1.422   0.706  0.0462  0.4251 -1.8239
 1057ETH     HC 9513   5.978   1.244   0.719 -1.9622  0.2148 -0.6760
 1058ETH     OH 9514   4.045   3.097   0.700  0.4244  0.2239 -0.1856
 1058ETH     CH 9515   3.928   3.079   0.624  0.2850  0.1933  0.0348
 1058ETH     CH 9516   3.823   3.154   0.705  0.3366  0.3051 -0.0008
 1058ETH     HO 9517   4.069   3.188   0.691 -0.2839  0.2830 -1.4912
 1058ETH     HC 9518   3.937   3.128   0.527 -0.0951  0.1251 -0.0354
 1058ETH     HC 9519   3.897   2.975   0.618 -0.5472  0.2093  3.0978
 1058ETH     HC 9520   3.820   3.132   0.812 -0.9757 -2.3297 -0.5251
 1058ETH     HC 9521   3.834   3.262   0.706  1.6440  0.2150 -1.6513
 1058ETH     HC 9522   3.730   3.114   0.663  1.0820  0.7049 -2.1094
 1059ETH     OH 9523   5.169   4.996   1.737 -0.4299 -0.6207  0.9221
 1059ETH     CH 9524   5.150   4.859   1.766 -0.1400 -0.8994 -0.1680
 1059ETH     CH 9525   5.230   4.823   1.891  0.1139  0.4104  0.0598
 1059ETH     HO 9526   5.139   5.057   1.803  0.9581  2.1443 -0.9269
 1059ETH     HC 9527   5.047   4.874   1.797  0.0143  1.7564 -0.7846
 1059ETH     HC 9528   5.157   4.797   1.677 -1.1170 -0.0215 -0.8648
 1059ETH     HC 9529   5.184   4.745   1.953 -0.4599  0.8173  0.1453
 1059ETH     HC 9530   5.332   4.798   1.860  0.9696  1.9224  1.5525
 1059ETH     HC 9531   5.230   4.909   1.958  0.6543 -0.1526  0.7990
 1060ETH     OH 9532   0.951   1.537   4.821  0.2334 -0.0790 -0.4348
 1060ETH     CH 9533   1.027   1.418   4.827  0.2383 -0.0418  0.2139
 1060ETH     CH 9534   1.138   1.417   4.723  0.2012  0.1843  0.1719
 1060ETH     HO 9535   0.860   1.524   4.843  0.9823  0.9092  3.5414
 1060ETH     HC 9536   1.047   1.408   4.934  1.1344  1.0413  0.1615
 1060ETH     HC 9537   0.970   1.325   4.819  0.6938 -0.2865 -0.1771
 1060ETH     HC 9538   1.164   1.313   4.702 -1.1413  0.1482 -1.3761
 1060ETH     HC 9539   1.097   1.460   4.632  1.4383 -1.1042 -1.0157
 1060ETH     HC 9540   1.220   1.480   4.759 -0.3175  1.4652 -0.8434
 1061ETH     OH 9541   5.019   2.248   4.034  0.2150 -0.4968 -0.1164
 1061ETH     CH 9542   5.117   2.290   3.942  0.0727  0.8082  0.3182
 1061ETH     CH 9543   5.084   2.428   3.884 -0.2747  0.5506 -0.1026
 1061ETH     HO 9544   5.044   2.160   4.060  3.2562 -0.0213 -1.1884
 1061ETH     HC 9545   5.216   2.301   3.984  0.2390  1.3556 -0.2016
 1061ETH     HC 9546   5.139   2.216   3.864  2.5711 -0.7119  2.3854
 1061ETH     HC 9547   5.092   2.503   3.962  0.6423  0.6368 -0.2743
 1061ETH     HC 9548   5.146   2.456   3.799 -0.4515  0.4777 -0.2551
 1061ETH     HC 9549   4.982   2.422   3.846  0.5649  0.4454 -2.4669
 1062ETH     OH 9550   5.592   5.187   0.772 -0.4171  0.2431  0.1637
 1062ETH     CH 9551   5.617   5.324   0.797 -0.2684  0.3323 -0.4782
 1062ETH     CH 9552   5.623   5.347   0.948 -0.5418 -0.2855 -0.3723
 1062ETH     HO 9553   5.646   5.168   0.697  0.4113  1.4901  0.4150
 1062ETH     HC 9554   5.708   5.355   0.746  0.3295  0.5784  0.7189
 1062ETH     HC 9555   5.534   5.380   0.755 -1.4100 -0.0556  1.2413
 1062ETH     HC 9556   5.524   5.324   0.987 -1.1431  2.2001 -0.3556
 1062ETH     HC 9557   5.704   5.290   0.994 -0.6313 -0.1429 -0.0390
 1062ETH     HC 9558   5.629   5.451   0.980 -2.3947 -0.3792  0.3561
 1063ETH     OH 9559   2.220   2.129   0.207  0.0413 -0.1713  0.1921
 1063ETH     CH 9560   2.159   2.251   0.171 -0.0938 -0.2927  0.0045
 1063ETH     CH 9561   2.182   2.277   0.022  0.1672 -0.0949  0.0791
 1063ETH     HO 9562   2.198   2.119   0.298  1.5813  1.4100  0.7529
 1063ETH     HC 9563   2.053   2.241   0.196 -0.0769  1.0359  0.6709
 1063ETH     HC 9564   2.192   2.338   0.229 -0.6938 -0.5805  0.7986
 1063ETH     HC 9565   2.113   2.357  -0.002 -0.4375 -0.1907  1.4250
 1063ETH     HC 9566   2.281   2.314  -0.002  0.2102 -0.4578 -0.3060
 1063ETH     HC 9567   2.142   2.196  -0.038  0.5801 -0.3372  0.1283
 1064ETH     OH 9568   1.721   3.629   1.484 -0.2823 -0.1043 -0.0615
 1064ETH     CH 9569   1.612   3.599   1.400 -0.1954  0.7044 -0.4675
 1064ETH     CH 9570   1.652   3.612   1.253  0.4256 -0.1512 -0.3793
 1064ETH     HO 9571   1.724   3.555   1.542  1.6691 -1.6393 -1.9901
 1064ETH     HC 9572   1.567   3.503   1.427 -2.3959  1.9459  0.4138
 1064ETH     HC 9573   1.536   3.674   1.422 -0.0426 -0.0350  2.9327
 1064ETH     HC 9574   1.574   3.587   1.180  0.8395 -0.2295 -0.7928
 1064ETH     HC 9575   1.681   3.714   1.230  1.8010 -0.5031 -0.2240
 1064ETH     HC 9576   1.734   3.545   1.227  1.7547  1.5197 -0.5074
 1065ETH     OH 9577   2.015   0.972   1.924 -0.1313 -0.3035 -0.2813
 1065ETH     CH 9578   1.927   0.863   1.923 -0.4844 -0.0201 -0.3265
 1065ETH     CH 9579   1.862   0.838   2.060  0.0181  0.2278 -0.0414
 1065ETH     HO 9580   2.067   0.968   1.846 -1.1822 -0.5689 -0.9783
 1065ETH     HC 9581   1.851   0.877   1.846  0.2781  1.2573 -0.8462
 1065ETH     HC 9582   1.980   0.772   1.896  2.0532  1.1746  0.5235
 1065ETH     HC 9583   1.786   0.914   2.076 -0.4668 -0.2841  0.1205
 1065ETH     HC 9584   1.821   0.738   2.075 -3.1853  1.3661 -0.8280
 1065ETH     HC 9585   1.937   0.840   2.138  1.4670 -1.1692 -1.3582
 1066ETH     OH 9586   5.565   0.961   5.618 -0.2668  0.4114 -0.2810
 1066ETH     CH 9587   5.683   0.975   5.543  0.0547  0.1382  0.1695
 1066ETH     CH 9588   5.665   0.894   5.414  0.0484  0.2781  0.0831
 1066ETH     HO 9589   5.485   0.987   5.574 -0.2751 -2.3946 -2.0620
 1066ETH     HC 9590   5.713   1.079   5.528 -1.3132  0.1980 -2.3733
 1066ETH     HC 9591   5.751   0.924   5.611  0.7672 -1.4213 -1.6655
 1066ETH     HC 9592   5.620   0.965   5.344  0.3365 -0.1634 -0.5546
 1066ETH     HC 9593   5.763   0.857   5.386  1.7449  3.2349  1.7648
 1066ETH     HC 9594   5.589   0.817   5.421 -1.2718  1.3315 -2.1893
 1067ETH     OH 9595   4.861   1.147   2.318  0.1341 -0.2043 -0.3498
 1067ETH     CH 9596   4.976   1.179   2.394 -0.1005 -0.2480  0.0229
 1067ETH     CH 9597   4.938   1.190   2.542 -0.1513 -0.9482  0.0678
 1067ETH     HO 9598   4.875   1.171   2.228 -1.3091  1.9748 -0.0297
 1067ETH     HC 9599   5.048   1.097   2.396 -1.0954 -1.1518 -0.3538
 1067ETH     HC 9600   5.019   1.270   2.354  0.3990 -1.0785 -1.3593
 1067ETH     HC 9601   5.013   1.236   2.606 -2.4715  2.0414  0.8157
 1067ETH     HC 9602   4.857   1.264   2.550 -0.6187 -1.3723 -0.6916
 1067ETH     HC 9603   4.896   1.093   2.568 -0.2629 -0.7476  0.6492
 1068ETH     OH 9604   2.261   5.603   2.791  0.1439 -0.0442 -0.4045
 1068ETH     CH 9605   2.236   5.675   2.672 -0.0160  0.1742 -0.2395
 1068ETH     CH 9606   2.152   5.608   2.563  0.2225 -0.0272 -0.2999
 1068ETH     HO 9607   2.317   5.530   2.770  0.0971  0.1045 -1.0390
 1068ETH     HC 9608   2.196   5.774   2.695 -2.3477 -0.3889 -1.6799
 1068ETH     HC 9609   2.329   5.702   2.624  1.0684 -1.1163  1.0823
 1068ETH     HC 9610   2.072   5.555   2.614  0.0211 -0.1316 -0.7233
 1068ETH     HC 9611   2.125   5.687   2.492 -1.5177 -0.4188 -0.0743
 1068ETH     HC 9612   2.197   5.534   2.497 -0.6441  1.0329 -2.1213
 1069ETH     OH 9613   2.407   2.842   4.739 -0.4993 -0.0089  0.1783
 1069ETH     CH 9614   2.529   2.893   4.786 -0.3461 -0.4121  0.2158
 1069ETH     CH 9615   2.658   2.839   4.725 -0.3573 -0.3219  0.1129
 1069ETH     HO 9616   2.341   2.858   4.805 -0.6221  0.1631  0.0166
 1069ETH     HC 9617   2.530   3.001   4.775 -0.2079 -0.6113 -1.8901
 1069ETH     HC 9618   2.525   2.867   4.892 -0.3707  2.3239  0.9178
 1069ETH     HC 9619   2.651   2.842   4.616 -1.1706 -2.4081  0.0906
 1069ETH     HC 9620   2.751   2.894   4.737 -1.2795  1.4131 -0.5321
 1069ETH     HC 9621   2.674   2.733   4.746 -0.9840 -0.6741 -1.1058
 1070ETH     OH 9622   3.987   4.221   2.096  0.1895 -0.0160 -0.3823
 1070ETH     CH 9623   3.958   4.312   1.992  0.4226  0.2003 -0.2598
 1070ETH     CH 9624   3.844   4.403   2.039 -0.1985 -0.6330 -0.1321
 1070ETH     HO 9625   4.018   4.274   2.168  1.7108 -0.1297 -0.9243
 1070ETH     HC 9626   4.051   4.361   1.965  0.2262  0.9025  0.3120
 1070ETH     HC 9627   3.923   4.270   1.898 -2.3563 -0.7132  1.1114
 1070ETH     HC 9628   3.749   4.355   2.063  0.0188 -0.7110  0.6061
 1070ETH     HC 9629   3.864   4.470   2.123  0.7019 -1.3220  0.2171
 1070ETH     HC 9630   3.826   4.476   1.961  0.0416  0.7167  1.0460
 1071ETH     OH 9631   5.758   4.060   5.857 -0.1122 -0.6415 -0.0610
 1071ETH     CH 9632   5.685   4.169   5.908  0.4335 -0.3705  0.1436
 1071ETH     CH 9633   5.552   4.202   5.840  0.4505 -0.2943  0.1485
 1071ETH     HO 9634   5.850   4.081   5.864 -0.0630 -1.3788  1.6769
 1071ETH     HC 9635   5.685   4.175   6.017 -0.6878 -2.8597  0.3210
 1071ETH     HC 9636   5.742   4.257   5.879 -1.5944  0.9989  0.1857
 1071ETH     HC 9637   5.572   4.221   5.735 -1.2708  1.3789  0.0915
 1071ETH     HC 9638   5.493   4.112   5.852  0.1358 -0.4016 -2.1087
 1071ETH     HC 9639   5.511   4.291   5.889 -0.9765  0.1927 -1.8889
 1072ETH     OH 9640   5.998   5.992   2.586  0.6162  0.1782 -0.2187
 1072ETH     CH 9641   5.896   6.074   2.638  0.4185 -0.3746  0.2693
 1072ETH     CH 9642   5.884   6.217   2.584  0.4452 -0.3899  0.2226
 1072ETH     HO 9643   5.982   5.912   2.632  1.4551  0.8408  1.2500
 1072ETH     HC 9644   5.797   6.031   2.625  0.7282 -1.0885  0.2461
 1072ETH     HC 9645   5.906   6.076   2.746 -1.8108  1.8630  0.4933
 1072ETH     HC 9646   5.877   6.213   2.475 -0.4679  1.8121  0.1903
 1072ETH     HC 9647   5.797   6.273   2.618  1.9449  2.6333 -0.8164
 1072ETH     HC 9648   5.976   6.270   2.608  1.1503 -1.2403 -0.5467
 1073ETH     OH 9649   0.374   5.362   5.308 -0.2942 -0.3083 -0.7229
 1073ETH     CH 9650   0.449   5.273   5.387 -0.4646  0.0481 -0.1555
 1073ETH     CH 9651   0.530   5.352   5.490 -0.6814 -0.2055  0.2121
 1073ETH     HO 9652   0.430   5.418   5.256  0.4543  0.3333  0.7408
 1073ETH     HC 9653   0.395   5.188   5.429 -0.4480  0.2623  0.2968
 1073ETH     HC 9654   0.516   5.229   5.313  0.9348  0.3305  0.9312
 1073ETH     HC 9655   0.601   5.286   5.540 -1.5071 -0.0716  1.5859
 1073ETH     HC 9656   0.585   5.421   5.426  1.4318 -0.8479  1.2931
 1073ETH     HC 9657   0.478   5.412   5.565  0.1497  1.0313 -0.1894
 1074ETH     OH 9658   3.973   5.466   4.516 -0.2608  0.0491 -0.0484
 1074ETH     CH 9659   3.918   5.459   4.386 -0.1719  0.5106 -0.1114
 1074ETH     CH 9660   3.970   5.336   4.311  0.0252  0.1869  0.5483
 1074ETH     HO 9661   3.945   5.548   4.554  1.5669 -0.1736  1.8958
 1074ETH     HC 9662   3.809   5.457   4.382 -0.1420  0.6787 -0.9867
 1074ETH     HC 9663   3.942   5.548   4.329  1.0039  0.4482  0.2831
 1074ETH     HC 9664   4.078   5.327   4.320  0.2879  2.2009 -0.1815
 1074ETH     HC 9665   3.912   5.250   4.345 -0.4207 -0.3613 -1.5518
 1074ETH     HC 9666   3.941   5.336   4.206  0.9207  0.9058  0.2940
 1075ETH     OH 9667   3.437   3.279   6.147 -0.6733 -0.0233 -0.0274
 1075ETH     CH 9668   3.514   3.210   6.052 -0.7003 -0.1808  0.0642
 1075ETH     CH 9669   3.519   3.305   5.932  0.3242 -0.0803  0.1855
 1075ETH     HO 9670   3.458   3.237   6.229  0.2875  0.8515  0.1954
 1075ETH     HC 9671   3.619   3.204   6.081 -0.3176 -0.1065 -1.2387
 1075ETH     HC 9672   3.483   3.106   6.035 -1.5683  0.2230 -0.9260
 1075ETH     HC 9673   3.561   3.393   5.981  0.7964 -0.8233  1.1332
 1075ETH     HC 9674   3.593   3.268   5.861  0.7779  0.6869  0.2449
 1075ETH     HC 9675   3.423   3.330   5.888  1.8251 -0.8931 -3.7968
 1076ETH     OH 9676   4.995   3.415   1.673 -0.0870  0.2062  0.0271
 1076ETH     CH 9677   5.102   3.462   1.595  0.0101 -0.6271 -0.3450
 1076ETH     CH 9678   5.209   3.515   1.690  0.0923  0.5839 -1.0874
 1076ETH     HO 9679   4.916   3.396   1.625 -1.7848  2.2919  1.8568
 1076ETH     HC 9680   5.127   3.384   1.523 -2.8998 -2.3043  0.4021
 1076ETH     HC 9681   5.057   3.545   1.540 -0.7154  0.3667  1.7082
 1076ETH     HC 9682   5.169   3.574   1.773  1.9442 -1.2993  1.2372
 1076ETH     HC 9683   5.275   3.435   1.725 -1.1476  0.4615  1.0696
 1076ETH     HC 9684   5.280   3.566   1.626  1.8169 -0.0841  0.2187
 1077ETH     OH 9685   3.896   3.325   4.331 -0.0856 -0.0350 -0.3244
 1077ETH     CH 9686   3.817   3.391   4.427  0.1462 -0.0627 -0.1149
 1077ETH     CH 9687   3.883   3.376   4.564  0.0409 -0.5434 -0.1127
 1077ETH     HO 9688   3.976   3.374   4.320 -0.5383  0.5941 -0.8252
 1077ETH     HC 9689   3.798   3.493   4.395  2.2266  0.2772 -0.3243
 1077ETH     HC 9690   3.721   3.339   4.424  1.4710 -2.5542 -0.7583
 1077ETH     HC 9691   3.890   3.273   4.597  0.3284 -0.7163 -0.7287
 1077ETH     HC 9692   3.983   3.419   4.561 -0.7490  1.6247  2.0963
 1077ETH     HC 9693   3.832   3.424   4.648  1.0239  0.3852 -0.0424
 1078ETH     OH 9694   3.127   3.307   2.364  0.2312  0.2316  1.0287
 1078ETH     CH 9695   3.011   3.384   2.342  0.3364  0.0509 -0.1973
 1078ETH     CH 9696   2.948   3.403   2.480  0.3239  0.2877 -0.2342
 1078ETH     HO 9697   3.195   3.343   2.309 -0.4569 -2.5649 -1.7720
 1078ETH     HC 9698   3.028   3.483   2.300  1.7625 -0.5413 -1.0644
 1078ETH     HC 9699   2.942   3.347   2.266 -0.0911  1.2531 -0.4152
 1078ETH     HC 9700   2.892   3.314   2.510  2.2570 -0.8629  0.1133
 1078ETH     HC 9701   3.016   3.436   2.560 -0.1156  0.1109  0.2155
 1078ETH     HC 9702   2.867   3.475   2.481 -2.4773 -2.6942 -1.6772
 1079ETH     OH 9703   4.167   3.089   5.109 -0.1825  0.0714  0.1649
 1079ETH     CH 9704   4.073   3.184   5.156  0.4040  0.6483  0.1805
 1079ETH     CH 9705   4.038   3.269   5.034 -0.5751  0.1901  0.1381
 1079ETH     HO 9706   4.139   3.064   5.022  1.5898 -0.7095 -0.2153
 1079ETH     HC 9707   3.988   3.124   5.190  0.6139  0.6858  0.7708
 1079ETH     HC 9708   4.107   3.241   5.242 -0.8471 -1.2375  1.9814
 1079ETH     HC 9709   4.134   3.313   5.008 -0.3092  0.7449  1.9539
 1079ETH     HC 9710   4.019   3.198   4.954 -0.6486  0.5355 -0.1551
 1079ETH     HC 9711   3.965   3.345   5.065 -1.4314 -0.7467  0.4295
 1080ETH     OH 9712   5.383   2.466   5.439  0.1549 -0.1137  0.4046
 1080ETH     CH 9713   5.344   2.397   5.322  0.6456  0.7653 -0.2819
 1080ETH     CH 9714   5.253   2.472   5.225 -0.1402 -0.3560 -0.4165
 1080ETH     HO 9715   5.306   2.495   5.486  0.6040 -2.1150  2.4528
 1080ETH     HC 9716   5.434   2.369   5.267  0.3556 -0.5255 -0.1125
 1080ETH     HC 9717   5.292   2.306   5.352 -1.0344  1.5798 -0.7062
 1080ETH     HC 9718   5.167   2.508   5.282  0.5413 -2.4483  2.0127
 1080ETH     HC 9719   5.301   2.556   5.175  1.6915 -2.2370 -1.8962
 1080ETH     HC 9720   5.216   2.402   5.151 -1.6044  0.1792 -0.2121
 1081ETH     OH 9721   2.918   5.847   4.147  0.2509  0.0123 -0.1735
 1081ETH     CH 9722   2.923   5.924   4.029 -0.7823 -0.0056 -0.2385
 1081ETH     CH 9723   2.916   6.075   4.047 -0.1300  0.0464 -0.3887
 1081ETH     HO 9724   2.950   5.761   4.126 -1.1418 -0.9637  1.5194
 1081ETH     HC 9725   3.018   5.888   3.988 -0.7608 -0.8185  0.5015
 1081ETH     HC 9726   2.848   5.894   3.956 -1.1647 -1.6981  0.8139
 1081ETH     HC 9727   2.999   6.113   4.107 -1.7004  2.1701  0.5132
 1081ETH     HC 9728   2.895   6.135   3.959  1.6795 -2.4762 -2.6026
 1081ETH     HC 9729   2.832   6.097   4.113  1.8515  2.0656  1.5799
 1082ETH     OH 9730   5.495   2.761   0.610  0.0690 -0.4317 -0.6005
 1082ETH     CH 9731   5.496   2.689   0.732 -0.4071 -0.1196 -0.4097
 1082ETH     CH 9732   5.548   2.549   0.697 -0.6988 -0.0985 -0.9322
 1082ETH     HO 9733   5.445   2.840   0.624  1.8119  0.5619  0.1496
 1082ETH     HC 9734   5.549   2.738   0.814  0.7501  2.3145 -2.5293
 1082ETH     HC 9735   5.395   2.672   0.768  0.9764 -0.2832  3.6526
 1082ETH     HC 9736   5.518   2.506   0.602 -0.1523 -0.6496 -0.8562
 1082ETH     HC 9737   5.656   2.548   0.701 -0.6728 -0.6627 -1.7600
 1082ETH     HC 9738   5.517   2.468   0.763 -2.7028  0.4935 -1.1101
 1083ETH     OH 9739   0.692   1.003   0.732  0.3705 -0.2005  0.3871
 1083ETH     CH 9740   0.781   1.031   0.837  0.0170  0.3522  0.5413
 1083ETH     CH 9741   0.797   1.177   0.877 -0.2683  0.4893  0.1558
 1083ETH     HO 9742   0.699   0.915   0.698  1.1097 -0.1760  0.4746
 1083ETH     HC 9743   0.757   0.966   0.921  4.4151  0.3377  1.9417
 1083ETH     HC 9744   0.882   0.999   0.810 -0.0769  2.1263 -2.1238
 1083ETH     HC 9745   0.696   1.209   0.904 -0.6833 -0.1947 -0.5610
 1083ETH     HC 9746   0.877   1.182   0.951  0.5782 -2.0237 -0.5507
 1083ETH     HC 9747   0.832   1.218   0.783  1.4364  2.7074  1.7105
 1084ETH     OH 9748   4.872   4.130   1.260  0.0070  0.2107  0.4482
 1084ETH     CH 9749   4.814   4.116   1.133  0.4361  0.5874  0.2075
 1084ETH     CH 9750   4.932   4.071   1.047 -0.2298 -0.5454 -0.1364
 1084ETH     HO 9751   4.812   4.137   1.332 -0.7738 -2.0655  0.0546
 1084ETH     HC 9752   4.738   4.037   1.140 -0.0894  0.9333 -1.2339
 1084ETH     HC 9753   4.761   4.204   1.096  0.8845  0.6885 -0.1915
 1084ETH     HC 9754   4.899   4.060   0.944 -2.1517 -1.9135  0.6046
 1084ETH     HC 9755   5.003   4.153   1.033  0.6154 -1.1980  0.2734
 1084ETH     HC 9756   4.979   3.981   1.089  0.7517  0.2933  0.6097
 1085ETH     OH 9757   6.084   1.032   3.581  0.0604  0.0730 -0.5104
 1085ETH     CH 9758   5.988   1.111   3.514  0.0380  0.1507 -0.3878
 1085ETH     CH 9759   6.045   1.170   3.385 -0.2430  0.5042 -0.3484
 1085ETH     HO 9760   6.039   1.001   3.658 -0.4832 -1.8966 -1.5755
 1085ETH     HC 9761   5.904   1.045   3.493 -2.0005  1.6975  2.6282
 1085ETH     HC 9762   5.939   1.187   3.574 -0.3970 -0.1115 -0.4130
 1085ETH     HC 9763   6.112   1.253   3.409  0.3009  0.1652 -0.6903
 1085ETH     HC 9764   6.109   1.098   3.334  0.3279 -0.2292  1.3754
 1085ETH     HC 9765   5.979   1.218   3.311 -0.9079 -0.3501 -0.3160
 1086ETH     OH 9766   2.177   5.492   6.248  0.1684 -0.3443 -0.3552
 1086ETH     CH 9767   2.257   5.430   6.150  1.0462  0.2539 -0.0190
 1086ETH     CH 9768   2.316   5.299   6.202  0.6597 -0.0667 -0.3877
 1086ETH     HO 9769   2.143   5.575   6.217 -1.7134 -1.3507 -1.1174
 1086ETH     HC 9770   2.191   5.420   6.065 -1.8124 -2.3664  2.3795
 1086ETH     HC 9771   2.338   5.501   6.129  2.8205 -1.2814  1.4082
 1086ETH     HC 9772   2.235   5.234   6.234  0.4591  0.3754 -0.0005
 1086ETH     HC 9773   2.367   5.239   6.127 -0.4243 -1.0438 -0.3516
 1086ETH     HC 9774   2.384   5.320   6.285  0.0866  0.1804  0.0236
 1087ETH     OH 9775   1.798   4.968   2.275  0.3163  0.2746 -0.2155
 1087ETH     CH 9776   1.691   5.059   2.277 -0.0800 -0.1907  0.1042
 1087ETH     CH 9777   1.558   4.998   2.233 -0.3342  0.4126  0.0181
 1087ETH     HO 9778   1.806   4.937   2.186  0.2282 -0.8834  0.1732
 1087ETH     HC 9779   1.687   5.089   2.381  0.3831  0.2284  0.0075
 1087ETH     HC 9780   1.718   5.142   2.211  1.6682 -0.1603  0.8136
 1087ETH     HC 9781   1.516   4.924   2.301  1.2827 -0.6574 -0.1018
 1087ETH     HC 9782   1.486   5.077   2.219 -0.6266  0.4424  1.6070
 1087ETH     HC 9783   1.578   4.949   2.137  1.1166  0.0183  0.4981
 1088ETH     OH 9784   1.144   5.710   0.617 -0.2350  0.1545 -0.0447
 1088ETH     CH 9785   1.016   5.681   0.565 -0.1404  0.2442 -0.3293
 1088ETH     CH 9786   0.925   5.783   0.635 -0.1465  0.0793 -0.0965
 1088ETH     HO 9787   1.205   5.687   0.549 -2.4476  0.3736 -2.1976
 1088ETH     HC 9788   1.011   5.698   0.458 -0.3077 -0.4806 -0.4345
 1088ETH     HC 9789   0.984   5.578   0.574 -3.1911  1.1445 -0.3252
 1088ETH     HC 9790   0.825   5.781   0.592  0.7487  0.1289 -2.2432
 1088ETH     HC 9791   0.922   5.753   0.740 -0.0588 -0.0915 -0.1419
 1088ETH     HC 9792   0.963   5.884   0.628  0.5485 -0.1568  0.2190
 1089ETH     OH 9793   0.003   3.613   3.422 -0.0115  0.2551  0.2515
 1089ETH     CH 9794  -0.102   3.571   3.505 -0.0311  0.5522  0.3806
 1089ETH     CH 9795  -0.050   3.561   3.648  0.5814  0.0378  0.1243
 1089ETH     HO 9796   0.050   3.533   3.405 -1.4353 -0.5229 -0.1249
 1089ETH     HC 9797  -0.183   3.644   3.498 -0.8779 -0.1503  2.5614
 1089ETH     HC 9798  -0.153   3.483   3.465  0.7852  0.4326 -0.3955
 1089ETH     HC 9799   0.041   3.501   3.653 -0.1439 -1.0960 -0.2286
 1089ETH     HC 9800  -0.022   3.661   3.682  2.5876 -0.3808 -0.2091
 1089ETH     HC 9801  -0.127   3.528   3.717  0.3357  1.4548  0.5611
 1090ETH     OH 9802   5.917   5.603   3.612  0.1326 -0.1276  0.3946
 1090ETH     CH 9803   5.877   5.672   3.727 -0.1167  0.2611  0.0749
 1090ETH     CH 9804   5.747   5.750   3.701  0.4477  0.9149 -0.7826
 1090ETH     HO 9805   5.929   5.659   3.537  1.0803  0.7326  1.1709
 1090ETH     HC 9806   5.872   5.612   3.818  0.6969  2.3423  1.5502
 1090ETH     HC 9807   5.961   5.739   3.748 -0.7374  1.1781 -0.3125
 1090ETH     HC 9808   5.712   5.809   3.785 -0.3397 -0.1553 -0.3523
 1090ETH     HC 9809   5.743   5.814   3.612  1.9502 -0.8706 -2.2047
 1090ETH     HC 9810   5.671   5.675   3.680 -0.0328  0.9365  0.8742
 1091ETH     OH 9811   0.105   2.146   4.248  0.0465  0.0178  0.0861
 1091ETH     CH 9812   0.210   2.159   4.341 -0.1244 -0.2765  0.3223
 1091ETH     CH 9813   0.288   2.289   4.318 -0.4920 -0.0818  0.1666
 1091ETH     HO 9814   0.055   2.226   4.249  0.6981  0.4176  2.9510
 1091ETH     HC 9815   0.176   2.160   4.445 -0.6324  1.4428  0.1505
 1091ETH     HC 9816   0.262   2.064   4.335 -1.0352 -0.6983 -1.3232
 1091ETH     HC 9817   0.380   2.297   4.375 -0.2244  0.0917 -0.2894
 1091ETH     HC 9818   0.307   2.306   4.212 -1.4111 -0.7141 -0.1091
 1091ETH     HC 9819   0.224   2.373   4.346 -0.1455 -0.6687  2.9099
 1092ETH     OH 9820   1.122   5.619   5.888 -0.3746  0.0210  0.2059
 1092ETH     CH 9821   1.147   5.751   5.931  0.1578 -0.1147  0.3107
 1092ETH     CH 9822   1.140   5.843   5.809 -0.0270 -0.5745 -0.0254
 1092ETH     HO 9823   1.034   5.605   5.856  0.2623 -0.4075 -1.3797
 1092ETH     HC 9824   1.078   5.774   6.012 -1.1883  0.9009 -1.1117
 1092ETH     HC 9825   1.242   5.761   5.984 -0.7174 -0.7288  2.0449
 1092ETH     HC 9826   1.139   5.946   5.844 -1.2249 -0.5299 -0.1525
 1092ETH     HC 9827   1.220   5.827   5.737  0.0982 -0.4806  0.0942
 1092ETH     HC 9828   1.043   5.829   5.760  0.2412 -0.7317 -0.5053
 1093ETH     OH 9829   4.674   0.086   4.233 -0.0924 -0.5838 -0.6337
 1093ETH     CH 9830   4.605  -0.002   4.318 -0.2808  0.3392  0.1751
 1093ETH     CH 9831   4.509  -0.085   4.232 -0.3557  0.1123  0.4718
 1093ETH     HO 9832   4.711   0.158   4.280 -3.4299 -0.4070  1.8956
 1093ETH     HC 9833   4.684  -0.063   4.363 -1.8424 -2.1449 -0.3275
 1093ETH     HC 9834   4.552   0.055   4.395 -0.1416  3.4272 -1.9336
 1093ETH     HC 9835   4.568  -0.144   4.162 -0.6117  1.0339 -0.5472
 1093ETH     HC 9836   4.470  -0.166   4.293  0.2392  0.1018  0.8419
 1093ETH     HC 9837   4.416  -0.047   4.187  0.0827  0.2524 -0.3257
 1094ETH     OH 9838   2.542   4.402   6.051 -0.4572 -0.1027  0.2883
 1094ETH     CH 9839   2.643   4.474   6.117 -0.0010 -0.6439  0.1884
 1094ETH     CH 9840   2.771   4.445   6.039  0.4280  0.1075  0.6090
 1094ETH     HO 9841   2.465   4.426   6.101 -0.4658  1.1354 -0.2925
 1094ETH     HC 9842   2.613   4.578   6.130 -1.4001 -1.0063 -0.0128
 1094ETH     HC 9843   2.650   4.429   6.216 -0.6198 -1.5962 -0.1882
 1094ETH     HC 9844   2.777   4.492   5.940  2.4762  0.7024  1.0009
 1094ETH     HC 9845   2.857   4.487   6.091 -0.0496 -0.8957  2.2457
 1094ETH     HC 9846   2.789   4.340   6.019 -2.1582 -0.1771 -0.5278
 1095ETH     OH 9847   5.410   2.962   1.100  0.4448 -0.2303 -0.1016
 1095ETH     CH 9848   5.426   2.931   1.237 -0.2087  0.6706  0.1812
 1095ETH     CH 9849   5.285   2.900   1.288  0.2091 -0.2303  0.7982
 1095ETH     HO 9850   5.495   2.983   1.064 -0.1523 -0.2342 -1.5147
 1095ETH     HC 9851   5.473   2.833   1.248 -1.4788  0.1715  1.2585
 1095ETH     HC 9852   5.480   3.010   1.289 -0.6241  0.8692  0.3054
 1095ETH     HC 9853   5.275   2.884   1.395 -3.1814  1.7717  0.8387
 1095ETH     HC 9854   5.222   2.986   1.267  1.3710  0.8231  1.5611
 1095ETH     HC 9855   5.236   2.814   1.243 -1.6674 -0.2427  2.8309
 1096ETH     OH 9856   3.396   1.050   4.571  0.3122 -0.0829  0.1401
 1096ETH     CH 9857   3.270   1.074   4.513  0.4502  1.0270  0.2827
 1096ETH     CH 9858   3.266   1.207   4.437  0.2153  0.7403 -0.2152
 1096ETH     HO 9859   3.461   1.055   4.503 -1.4217  1.9158 -1.4196
 1096ETH     HC 9860   3.238   0.990   4.450 -1.1308  0.2423  2.0753
 1096ETH     HC 9861   3.198   1.070   4.595  0.9797  3.0393  0.8554
 1096ETH     HC 9862   3.272   1.289   4.508  0.8481  0.7611 -0.2959
 1096ETH     HC 9863   3.351   1.222   4.371  1.0454 -1.1986  0.3782
 1096ETH     HC 9864   3.177   1.222   4.376  0.0673  1.3881  0.1534
 1097ETH     OH 9865   5.505   6.180   2.542 -0.0952  0.4006  0.6277
 1097ETH     CH 9866   5.500   6.320   2.556  0.1588  0.4542  0.1883
 1097ETH     CH 9867   5.492   6.342   2.707 -0.5085 -0.3624  0.2780
 1097ETH     HO 9868   5.545   6.161   2.458  0.6950 -0.0736  1.1099
 1097ETH     HC 9869   5.589   6.372   2.520  0.4322  0.6915  1.2116
 1097ETH     HC 9870   5.409   6.367   2.518 -1.1140 -2.2621 -0.2568
 1097ETH     HC 9871   5.510   6.448   2.727 -1.4516  0.4190 -2.6582
 1097ETH     HC 9872   5.397   6.312   2.750 -0.4206 -1.0699 -0.0239
 1097ETH     HC 9873   5.569   6.287   2.761  0.0595  1.3772  1.2808
 1098ETH     OH 9874   1.490   5.291   0.214  0.5090  0.3307  0.2605
 1098ETH     CH 9875   1.515   5.217   0.331  0.1315  0.7658  0.6160
 1098ETH     CH 9876   1.642   5.134   0.313 -0.1454  0.4673  0.0429
 1098ETH     HO 9877   1.540   5.371   0.207 -1.9251  1.9288  0.8901
 1098ETH     HC 9878   1.528   5.290   0.411  0.7642 -0.9489  2.1261
 1098ETH     HC 9879   1.434   5.149   0.355 -0.6959  0.9200 -1.7019
 1098ETH     HC 9880   1.639   5.065   0.229  0.9140  1.0137 -0.4574
 1098ETH     HC 9881   1.727   5.195   0.281  0.2977 -1.2405 -2.1610
 1098ETH     HC 9882   1.665   5.061   0.392  0.8815 -0.0702 -0.7350
 1099ETH     OH 9883   2.504   2.566   2.519 -0.0385  0.0378 -0.1978
 1099ETH     CH 9884   2.401   2.581   2.615  0.3046  0.0347  0.1700
 1099ETH     CH 9885   2.437   2.695   2.710 -0.2361 -0.0796  0.5137
 1099ETH     HO 9886   2.583   2.538   2.562 -0.6396 -3.5182 -1.2928
 1099ETH     HC 9887   2.319   2.616   2.553 -0.6806 -0.7255  1.0376
 1099ETH     HC 9888   2.359   2.492   2.663 -1.5294  1.9046  2.1333
 1099ETH     HC 9889   2.341   2.723   2.752 -1.2277  0.8954 -2.2865
 1099ETH     HC 9890   2.513   2.665   2.783 -0.3392 -1.4616  0.0818
 1099ETH     HC 9891   2.456   2.790   2.661  0.9805 -0.4859  0.1825
 1100ETH     OH 9892   3.238   2.718   5.972 -0.0270  0.0230  0.7063
 1100ETH     CH 9893   3.124   2.647   6.016 -0.0660 -0.2734  0.1300
 1100ETH     CH 9894   3.072   2.684   6.155 -0.0011  0.0177  0.0777
 1100ETH     HO 9895   3.231   2.808   6.001  1.8930  0.4760 -0.1871
 1100ETH     HC 9896   3.051   2.677   5.941  0.5327 -0.4812 -0.5393
 1100ETH     HC 9897   3.129   2.541   5.991 -1.7856 -0.2616 -0.3454
 1100ETH     HC 9898   2.982   2.629   6.182 -0.0935  0.2726  0.2922
 1100ETH     HC 9899   3.145   2.665   6.232  0.9241 -0.3819 -0.8847
 1100ETH     HC 9900   3.041   2.789   6.163 -2.7806 -0.9887  3.5515
 1101ETH     OH 9901   0.161   0.087   1.484  0.5110  0.1829 -0.2848
 1101ETH     CH 9902   0.135   0.208   1.416 -0.4079  0.2688  0.2151
 1101ETH     CH 9903   0.031   0.194   1.305 -0.0544 -0.3902 -0.0357
 1101ETH     HO 9904   0.085   0.057   1.531  0.1474  1.2232 -0.2014
 1101ETH     HC 9905   0.108   0.287   1.486  1.2821  1.3200 -0.2767
 1101ETH     HC 9906   0.227   0.244   1.370 -2.2903  3.2127 -1.3637
 1101ETH     HC 9907   0.067   0.122   1.232 -1.0466  0.4625 -1.3781
 1101ETH     HC 9908  -0.067   0.165   1.342  0.1905 -0.4177  0.6021
 1101ETH     HC 9909   0.021   0.289   1.254  0.5925 -2.0481 -3.3881
 1102ETH     OH 9910   0.319   5.677   4.346  0.0854 -0.5195  0.1572
 1102ETH     CH 9911   0.215   5.606   4.281  0.1183  0.0044 -0.4757
 1102ETH     CH 9912   0.082   5.659   4.334  0.0010 -0.7206 -0.0373
 1102ETH     HO 9913   0.393   5.618   4.343  0.0643 -0.5456  0.1369
 1102ETH     HC 9914   0.211   5.629   4.175  1.1009 -0.5728 -0.6418
 1102ETH     HC 9915   0.223   5.497   4.280  1.8251  0.1128 -0.0665
 1102ETH     HC 9916  -0.003   5.605   4.293  0.1559 -0.5508 -0.5902
 1102ETH     HC 9917   0.073   5.670   4.442  0.0992 -0.4559 -0.0567
 1102ETH     HC 9918   0.080   5.764   4.305  4.6144 -0.2956  0.7756
 1103ETH     OH 9919   0.556   1.941   0.155 -0.3133  0.6921 -0.0720
 1103ETH     CH 9920   0.590   2.064   0.095 -0.2182  0.5646 -0.2788
 1103ETH     CH 9921   0.688   2.124   0.196 -0.0861 -0.4097  0.1727
 1103ETH     HO 9922   0.500   1.901   0.091  0.2165  0.3979 -0.3612
 1103ETH     HC 9923   0.629   2.044  -0.005  0.9053  1.7288 -0.0854
 1103ETH     HC 9924   0.505   2.131   0.083 -1.0248 -0.5702 -0.9923
 1103ETH     HC 9925   0.659   2.147   0.299  0.1500 -1.1814  0.4217
 1103ETH     HC 9926   0.770   2.054   0.211  1.6850  2.0597  2.3786
 1103ETH     HC 9927   0.751   2.202   0.155 -1.0847  1.4965  2.1514
 1104ETH     OH 9928   4.896   6.006   0.216  0.5058 -0.0506 -0.0241
 1104ETH     CH 9929   5.016   5.958   0.272  0.2189 -0.4840  0.2222
 1104ETH     CH 9930   5.094   5.867   0.176  0.0144 -0.2545 -0.1667
 1104ETH     HO 9931   4.843   5.932   0.190 -0.5413  0.1383  1.5495
 1104ETH     HC 9932   5.084   6.037   0.301  1.5672 -0.6510 -2.3527
 1104ETH     HC 9933   4.997   5.901   0.363  1.4441  3.1013  2.7876
 1104ETH     HC 9934   5.176   5.813   0.223 -1.2433 -0.3772  1.9764
 1104ETH     HC 9935   5.031   5.792   0.128  2.1176 -2.2766  0.1552
 1104ETH     HC 9936   5.139   5.911   0.088 -0.9730  0.0991 -0.5021
 1105ETH     OH 9937   2.308   2.862   1.734 -0.3356  0.4801 -0.0759
 1105ETH     CH 9938   2.399   2.754   1.730 -0.5376  0.3104 -0.0960
 1105ETH     CH 9939   2.543   2.804   1.711 -0.3063 -0.5178 -0.5430
 1105ETH     HO 9940   2.222   2.824   1.735  0.3780 -1.1525 -0.0589
 1105ETH     HC 9941   2.384   2.692   1.818 -0.7549 -0.3485 -0.5945
 1105ETH     HC 9942   2.373   2.686   1.649  1.4007 -1.2108  0.5309
 1105ETH     HC 9943   2.610   2.722   1.686 -2.5429 -3.3566  2.2483
 1105ETH     HC 9944   2.550   2.874   1.628  0.7523  1.6190  1.2997
 1105ETH     HC 9945   2.584   2.863   1.793  1.9379  0.0100 -2.0023
 1106ETH     OH 9946   3.283   6.238   1.027 -0.1864  0.0264  0.3921
 1106ETH     CH 9947   3.348   6.155   0.933  0.2692  0.6933  0.1155
 1106ETH     CH 9948   3.300   6.010   0.929  0.3357  0.6890 -0.7040
 1106ETH     HO 9949   3.193   6.239   0.999 -0.5179  1.4473  1.4437
 1106ETH     HC 9950   3.341   6.194   0.832  0.0858 -1.2914 -0.6536
 1106ETH     HC 9951   3.450   6.150   0.972  0.2126  0.7043  0.2650
 1106ETH     HC 9952   3.192   6.010   0.912 -0.1965  1.9017  2.2721
 1106ETH     HC 9953   3.344   5.938   0.861 -1.4800 -3.2446  2.1046
 1106ETH     HC 9954   3.322   5.968   1.027  0.4506 -1.7250 -1.7360
 1107ETH     OH 9955   6.102   1.174   2.256  0.1076  0.1383 -0.3695
 1107ETH     CH 9956   6.154   1.050   2.298  0.0266  0.2721  0.1276
 1107ETH     CH 9957   6.233   0.995   2.179  0.2752  0.7205  0.0845
 1107ETH     HO 9958   6.018   1.153   2.217 -0.1698 -1.7288  1.1677
 1107ETH     HC 9959   6.222   1.059   2.383  2.3980 -2.4934 -1.3672
 1107ETH     HC 9960   6.068   0.991   2.330  1.8061 -2.0843  0.7357
 1107ETH     HC 9961   6.268   0.894   2.200  0.0891  0.7257  0.4224
 1107ETH     HC 9962   6.174   0.974   2.089 -0.9075 -0.3633  1.0816
 1107ETH     HC 9963   6.319   1.055   2.149  1.1895 -1.5627 -2.0484
 1108ETH     OH 9964   4.271   2.383   5.466 -0.2633  0.0017  0.6751
 1108ETH     CH 9965   4.317   2.326   5.586 -0.1216 -0.3510  0.4542
 1108ETH     CH 9966   4.200   2.326   5.684  0.0563  0.5285  0.6678
 1108ETH     HO 9967   4.324   2.455   5.436 -0.8931  0.5682  0.9205
 1108ETH     HC 9968   4.352   2.228   5.553  1.0310  0.2269 -0.0798
 1108ETH     HC 9969   4.400   2.382   5.627  1.0602 -0.9456 -1.0844
 1108ETH     HC 9970   4.178   2.432   5.698  0.9016  0.8619 -0.4735
 1108ETH     HC 9971   4.104   2.293   5.643  1.1001 -1.3834 -0.3252
 1108ETH     HC 9972   4.224   2.279   5.780  0.3112 -0.2364  0.2341
 1109ETH     OH 9973   1.832   1.519   1.171  0.0652 -0.6652 -0.6322
 1109ETH     CH 9974   1.832   1.629   1.082 -0.1039  0.2195  0.4553
 1109ETH     CH 9975   1.727   1.736   1.112 -0.3153  0.1382 -0.0032
 1109ETH     HO 9976   1.786   1.445   1.136 -0.5208  0.3749 -2.1144
 1109ETH     HC 9977   1.928   1.680   1.079  0.1060 -0.2328 -0.5816
 1109ETH     HC 9978   1.812   1.587   0.984 -0.3041  0.9594  0.1721
 1109ETH     HC 9979   1.629   1.691   1.098  0.0929 -0.2185 -1.8400
 1109ETH     HC 9980   1.726   1.780   1.211  1.8377 -0.1825  0.1763
 1109ETH     HC 9981   1.744   1.817   1.041  0.0342  1.1894  1.2606
 1110ETH     OH 9982   4.348   1.839   1.862 -0.1269  0.3555  0.2159
 1110ETH     CH 9983   4.430   1.881   1.969  0.2289  0.4783 -0.0999
 1110ETH     CH 9984   4.348   1.958   2.073  0.0492 -0.2066  0.2717
 1110ETH     HO 9985   4.402   1.774   1.818  0.6308  0.8362  0.4282
 1110ETH     HC 9986   4.470   1.784   2.000 -0.3674 -0.0454 -0.9535
 1110ETH     HC 9987   4.510   1.937   1.922  0.6517  1.1866  1.4288
 1110ETH     HC 9988   4.258   1.905   2.103 -0.1123 -0.1528 -0.1203
 1110ETH     HC 9989   4.413   1.998   2.151 -0.9932 -1.0702  1.6065
 1110ETH     HC 9990   4.309   2.053   2.037  2.3514  0.5773 -0.2676
 1111ETH     OH 9991   0.329   1.944   3.159  0.2902  0.3163  0.0370
 1111ETH     CH 9992   0.206   1.957   3.091  0.2746  0.4745  0.0948
 1111ETH     CH 9993   0.197   2.092   3.021 -1.0907  0.0937 -0.4745
 1111ETH     HO 9994   0.312   1.886   3.232 -0.2035 -0.1523 -0.4448
 1111ETH     HC 9995   0.207   1.886   3.008 -2.1898 -2.1440  2.1828
 1111ETH     HC 9996   0.129   1.939   3.166  1.8667 -2.7340  1.0462
 1111ETH     HC 9997   0.184   2.167   3.099  1.3236  0.3608 -0.2928
 1111ETH     HC 9998   0.289   2.104   2.965 -1.6398  0.0466 -1.4035
 1111ETH     HC 9999   0.112   2.101   2.953 -0.8621 -0.6827 -0.8736
 1112ETH     OH10000   1.099   1.783   4.814  0.0565 -0.1577 -0.2987
 1112ETH     CH10001   1.126   1.828   4.683  0.1098 -0.1010 -0.2677
 1112ETH     CH10002   1.115   1.981   4.692 -0.2973 -0.1264 -0.3060
 1112ETH     HO10003   1.054   1.700   4.810 -2.7119  1.2331  1.1125
 1112ETH     HC10004   1.229   1.798   4.664  0.6185 -0.0866  2.3095
 1112ETH     HC10005   1.054   1.796   4.607 -0.2928 -0.9395  0.4598
 1112ETH     HC10006   1.178   2.016   4.773  1.0018 -1.4382 -0.7178
 1112ETH     HC10007   1.149   2.039   4.606 -1.3094  3.3431  1.5488
 1112ETH     HC10008   1.015   2.021   4.709  0.6352  1.9171  0.4774
 1113ETH     OH10009   1.282   5.006   0.668 -0.3440 -0.6056  0.3134
 1113ETH     CH10010   1.198   5.119   0.676  0.3213 -0.0695 -0.2245
 1113ETH     CH10011   1.051   5.082   0.692  0.2388 -0.1269 -1.0958
 1113ETH     HO10012   1.363   5.036   0.707 -0.0467  1.4330 -1.7062
 1113ETH     HC10013   1.234   5.183   0.756  1.6917 -0.2794 -0.6565
 1113ETH     HC10014   1.224   5.183   0.591  0.6708 -0.2320 -0.2399
 1113ETH     HC10015   0.989   5.164   0.728  1.9992 -0.1620  2.2103
 1113ETH     HC10016   1.024   5.045   0.593 -0.8870  0.5110 -1.0363
 1113ETH     HC10017   1.052   4.997   0.759  2.8210  0.7538  0.0483
 1114ETH     OH10018   4.799   2.417   3.412  0.3030  0.0587  0.1310
 1114ETH     CH10019   4.786   2.362   3.541 -0.2518 -0.1682 -0.0167
 1114ETH     CH10020   4.703   2.447   3.638  0.0535  0.0758  0.0312
 1114ETH     HO10021   4.870   2.382   3.361  0.9859  3.1087 -1.1060
 1114ETH     HC10022   4.733   2.268   3.533 -2.3237  1.0089 -0.5130
 1114ETH     HC10023   4.886   2.347   3.582 -0.6851  0.3101  1.2426
 1114ETH     HC10024   4.693   2.412   3.741 -1.4591  4.1487  1.3683
 1114ETH     HC10025   4.743   2.548   3.644 -1.8798  0.7604  1.9164
 1114ETH     HC10026   4.602   2.454   3.597  0.0062  2.1378  0.4236
 1115ETH     OH10027   2.299   0.305   5.306 -0.0801  0.2277  0.7996
 1115ETH     CH10028   2.319   0.199   5.215 -0.4895  0.7132  0.1403
 1115ETH     CH10029   2.263   0.240   5.079 -0.0868 -0.1489 -0.2864
 1115ETH     HO10030   2.206   0.321   5.313 -0.3683 -1.0726  0.0857
 1115ETH     HC10031   2.424   0.172   5.210 -0.1741  1.8821  0.3059
 1115ETH     HC10032   2.264   0.120   5.265  0.9055 -0.4069 -0.0752
 1115ETH     HC10033   2.157   0.267   5.082  0.0971  0.4575  1.5523
 1115ETH     HC10034   2.330   0.312   5.030 -0.1196  0.3603  0.4101
 1115ETH     HC10035   2.261   0.149   5.019  0.7230 -0.9798  0.9388
 1116ETH     OH10036   0.898   4.378   5.629 -0.2530  0.3966 -0.4292
 1116ETH     CH10037   0.971   4.480   5.565  0.6512  0.1818  0.2386
 1116ETH     CH10038   1.005   4.438   5.422  0.4308  0.4796  0.0977
 1116ETH     HO10039   0.854   4.420   5.701  0.5891  0.1928  0.2199
 1116ETH     HC10040   0.907   4.569   5.565  0.0020 -0.2612 -1.2545
 1116ETH     HC10041   1.055   4.521   5.621  1.4442  1.3099 -1.7337
 1116ETH     HC10042   1.062   4.347   5.437 -1.2787 -0.5526  0.4253
 1116ETH     HC10043   0.912   4.413   5.371  0.9557 -1.3870  0.0177
 1116ETH     HC10044   1.053   4.522   5.371  0.2216  0.0950 -0.7414
 1117ETH     OH10045   5.503   0.160   4.718  0.2762 -0.3852 -0.0997
 1117ETH     CH10046   5.366   0.180   4.748  0.4086 -0.1028  0.3135
 1117ETH     CH10047   5.321   0.066   4.838 -0.9112  0.1484 -0.0253
 1117ETH     HO10048   5.543   0.212   4.650 -0.4227  2.2039  1.4019
 1117ETH     HC10049   5.359   0.278   4.796  0.1062 -0.1451  0.3509
 1117ETH     HC10050   5.309   0.183   4.655 -1.5143 -1.0473  1.4558
 1117ETH     HC10051   5.345  -0.036   4.809  0.4907 -0.7579  3.9371
 1117ETH     HC10052   5.361   0.077   4.939 -2.1313  0.8570  0.3981
 1117ETH     HC10053   5.212   0.073   4.841 -0.8988  0.6547 -0.8350
 1118ETH     OH10054   3.406   1.717   3.295  0.2771  0.2241  0.2485
 1118ETH     CH10055   3.420   1.707   3.434 -0.1965  0.5020  0.3177
 1118ETH     CH10056   3.377   1.571   3.488 -0.1579  0.4411  0.1937
 1118ETH     HO10057   3.466   1.786   3.269 -1.8525  2.4281  0.9216
 1118ETH     HC10058   3.524   1.723   3.462  0.3354 -0.7558 -0.9288
 1118ETH     HC10059   3.362   1.782   3.488  1.7547  3.2359 -1.2349
 1118ETH     HC10060   3.388   1.572   3.596  0.7486  3.2319  0.1105
 1118ETH     HC10061   3.272   1.549   3.466  0.3714  0.8229 -3.0136
 1118ETH     HC10062   3.433   1.491   3.439 -0.9602 -0.2849  0.4331
 1119ETH     OH10063   0.608   2.045   4.390 -0.2352 -0.0586 -0.5939
 1119ETH     CH10064   0.690   2.093   4.287  0.1336  0.2763 -0.1494
 1119ETH     CH10065   0.830   2.125   4.339  0.0818 -0.2296  0.3012
 1119ETH     HO10066   0.660   1.992   4.449 -2.8367 -1.1229  0.8260
 1119ETH     HC10067   0.698   2.022   4.204 -0.7120  0.3314 -0.2751
 1119ETH     HC10068   0.650   2.188   4.251  0.1691 -0.1295 -1.2821
 1119ETH     HC10069   0.886   2.036   4.370  0.4612 -0.9569 -2.3793
 1119ETH     HC10070   0.891   2.169   4.260  0.9360  0.4566  1.3159
 1119ETH     HC10071   0.821   2.196   4.421  0.1015  0.8941 -0.6499
 1120ETH     OH10072   6.010   3.290   5.837 -0.4192 -0.5584 -0.0180
 1120ETH     CH10073   6.097   3.345   5.741 -0.3901 -0.4524  0.0686
 1120ETH     CH10074   6.172   3.227   5.679  0.3246  0.1538 -0.2315
 1120ETH     HO10075   5.968   3.361   5.883 -1.5155 -0.6114 -0.9252
 1120ETH     HC10076   6.042   3.392   5.659 -0.1157  0.8166  0.5989
 1120ETH     HC10077   6.171   3.412   5.785  0.1127 -2.1465  1.8602
 1120ETH     HC10078   6.239   3.170   5.743 -1.7278  0.4280  2.2434
 1120ETH     HC10079   6.103   3.163   5.623  0.3976  1.0974 -1.4185
 1120ETH     HC10080   6.237   3.266   5.601  0.6911 -0.4658 -0.2421
 1121ETH     OH10081   1.927   3.596   3.111 -0.0319  0.1076 -0.4849
 1121ETH     CH10082   1.896   3.475   3.176  0.4129  0.0539 -0.3694
 1121ETH     CH10083   1.755   3.430   3.139  0.1640  0.2439  0.3346
 1121ETH     HO10084   1.911   3.581   3.020  0.9440  0.7665 -0.7715
 1121ETH     HC10085   1.965   3.396   3.145 -1.1596 -0.3806 -2.8836
 1121ETH     HC10086   1.893   3.481   3.285  0.3222  0.5032 -0.3988
 1121ETH     HC10087   1.715   3.355   3.208  1.7122  0.2924  1.2961
 1121ETH     HC10088   1.685   3.514   3.138  0.0862  0.2057  1.9610
 1121ETH     HC10089   1.749   3.390   3.037 -0.9441 -0.8269  0.8073
 1122ETH     OH10090   4.930   1.618   0.175  0.0067 -0.7328  0.1423
 1122ETH     CH10091   4.861   1.620   0.298  0.1925 -0.2226  0.2427
 1122ETH     CH10092   4.710   1.633   0.275  0.2452  0.0403  0.0443
 1122ETH     HO10093   5.013   1.657   0.199  0.2769  0.1276 -2.0588
 1122ETH     HC10094   4.885   1.525   0.346  0.4722 -1.0313 -1.4267
 1122ETH     HC10095   4.899   1.709   0.347 -0.7065 -0.8625  2.1642
 1122ETH     HC10096   4.670   1.726   0.233  0.8157 -0.6583 -2.0666
 1122ETH     HC10097   4.666   1.546   0.228  0.9817 -0.4490  0.2489
 1122ETH     HC10098   4.668   1.635   0.376  0.7029 -0.4287  0.2469
 1123ETH     OH10099   0.119   6.181   5.848  0.4435 -0.1833  0.1082
 1123ETH     CH10100   0.022   6.118   5.929 -0.3028 -0.0024 -0.6429
 1123ETH     CH10101  -0.046   6.224   6.015  0.1530 -0.1347 -0.1201
 1123ETH     HO10102   0.148   6.125   5.778  0.4490 -0.5934  0.4369
 1123ETH     HC10103  -0.039   6.077   5.848  0.3137  0.5314 -1.3884
 1123ETH     HC10104   0.067   6.035   5.983 -2.2996  0.6106  2.0778
 1123ETH     HC10105  -0.129   6.201   6.082  0.7646 -1.0035  0.3448
 1123ETH     HC10106   0.027   6.259   6.089 -0.6593  1.1240  0.1119
 1123ETH     HC10107  -0.070   6.308   5.950  0.3844  0.4873  0.5903
 1124ETH     OH10108   2.089   4.382   5.088 -0.0491 -0.3849  0.5095
 1124ETH     CH10109   1.975   4.336   5.158 -0.0633  0.1858  0.8657
 1124ETH     CH10110   1.864   4.440   5.161  0.1508  0.4599 -0.1798
 1124ETH     HO10111   2.151   4.310   5.092  1.1938  0.3484 -3.6016
 1124ETH     HC10112   1.940   4.249   5.103  0.5983 -1.1403  2.5113
 1124ETH     HC10113   1.996   4.301   5.259 -0.3604  0.7575  1.1242
 1124ETH     HC10114   1.907   4.522   5.218 -1.7592 -0.4980  2.7781
 1124ETH     HC10115   1.842   4.469   5.059  2.5381  0.0157 -0.8403
 1124ETH     HC10116   1.772   4.406   5.210  0.0468 -0.5194 -1.0506
 1125ETH     OH10117   4.513   4.578   2.842  0.5467 -0.2432 -0.8571
 1125ETH     CH10118   4.619   4.665   2.809  0.2424  0.3868 -0.1898
 1125ETH     CH10119   4.680   4.730   2.933 -0.1365 -0.7843  0.6090
 1125ETH     HO10120   4.547   4.490   2.841  4.0671  0.8389  4.4174
 1125ETH     HC10121   4.693   4.605   2.758 -0.2078 -1.3339  1.1455
 1125ETH     HC10122   4.577   4.743   2.745 -0.9768 -1.4334 -1.6640
 1125ETH     HC10123   4.601   4.788   2.982 -0.8664 -0.9569 -0.3536
 1125ETH     HC10124   4.726   4.655   2.998  1.6447  1.2819  1.8006
 1125ETH     HC10125   4.757   4.803   2.909 -0.6406  0.0918  1.6027
 1126ETH     OH10126   1.198   5.952   0.100  0.2480  0.4792 -0.0502
 1126ETH     CH10127   1.180   5.954  -0.040  0.0970 -0.4752 -0.0444
 1126ETH     CH10128   1.310   5.973  -0.118  0.2541 -0.2794  0.2664
 1126ETH     HO10129   1.236   6.036   0.123 -1.8352  0.9423  2.0028
 1126ETH     HC10130   1.134   5.858  -0.062 -2.2253  1.0832 -2.2572
 1126ETH     HC10131   1.104   6.025  -0.072  1.0185 -0.1867 -1.5947
 1126ETH     HC10132   1.355   6.065  -0.081 -1.1770  0.0582  1.2172
 1126ETH     HC10133   1.375   5.893  -0.083  1.2790  0.2899 -0.3079
 1126ETH     HC10134   1.300   5.968  -0.226 -1.0845 -0.6191  0.3926
 1127ETH     OH10135   2.496   4.969   2.550  0.2625  0.4778  0.5067
 1127ETH     CH10136   2.582   4.944   2.659  0.6509  0.0760  0.1104
 1127ETH     CH10137   2.727   4.964   2.614  0.5648  1.1305  0.2824
 1127ETH     HO10138   2.406   4.951   2.574 -0.0368  1.3799  0.0740
 1127ETH     HC10139   2.563   5.020   2.736  2.8558  0.5859  0.1900
 1127ETH     HC10140   2.555   4.848   2.703 -1.6949 -0.3957 -2.2305
 1127ETH     HC10141   2.761   5.057   2.569  1.5393  0.0212 -1.2911
 1127ETH     HC10142   2.788   4.934   2.699  1.4392  0.6350 -0.5108
 1127ETH     HC10143   2.744   4.886   2.540 -0.7143  0.7628  0.3557
 1128ETH     OH10144   2.729   0.932   5.800 -0.3643 -0.4530  0.7632
 1128ETH     CH10145   2.816   1.037   5.836 -0.4418 -0.1287  0.0095
 1128ETH     CH10146   2.791   1.091   5.977 -0.5347  0.1494 -0.1134
 1128ETH     HO10147   2.713   0.929   5.707 -0.9810  0.9636  0.8069
 1128ETH     HC10148   2.919   1.002   5.834 -0.4515 -0.1348 -0.3986
 1128ETH     HC10149   2.817   1.109   5.754 -0.8216 -1.2794 -1.0250
 1128ETH     HC10150   2.874   1.161   5.992 -1.1646  1.2635 -1.7155
 1128ETH     HC10151   2.693   1.136   5.988 -1.0245 -1.2138  1.2115
 1128ETH     HC10152   2.801   1.015   6.054 -0.9274 -1.0733 -1.2520
 1129ETH     OH10153   3.043   4.845   3.904  0.0732  0.2608  0.4135
 1129ETH     CH10154   2.967   4.759   3.985 -0.6023  0.1739 -0.3010
 1129ETH     CH10155   3.019   4.775   4.128  0.2338 -0.6670 -0.5041
 1129ETH     HO10156   3.008   4.931   3.921  2.1921  1.0527  0.9721
 1129ETH     HC10157   2.862   4.785   3.980 -0.0588  2.1762 -1.7522
 1129ETH     HC10158   2.989   4.657   3.951 -0.4605  0.6959 -1.8136
 1129ETH     HC10159   3.126   4.752   4.126  0.6240  1.1761 -2.3427
 1129ETH     HC10160   3.018   4.878   4.164 -1.5758 -0.6042 -0.7134
 1129ETH     HC10161   2.977   4.709   4.204  0.4070  1.4357  1.4472
 1130ETH     OH10162   5.838   0.707   3.280  0.4097 -0.2465 -0.1042
 1130ETH     CH10163   5.959   0.757   3.226  0.3712  0.0058  0.0423
 1130ETH     CH10164   5.981   0.690   3.090  0.4449  0.0259  0.0441
 1130ETH     HO10165   5.791   0.778   3.322  0.1284 -0.4311 -0.1127
 1130ETH     HC10166   5.941   0.862   3.203 -0.8729 -0.4401 -1.0504
 1130ETH     HC10167   6.042   0.756   3.297 -1.0364 -2.4310  1.7178
 1130ETH     HC10168   6.040   0.758   3.029 -1.5201 -0.1817 -2.1909
 1130ETH     HC10169   6.037   0.597   3.093  0.8752  0.3184  2.7689
 1130ETH     HC10170   5.885   0.675   3.039  1.7689 -1.5918 -2.0185
 1131ETH     OH10171   5.540   6.239   5.692  0.1667  0.0195 -0.2359
 1131ETH     CH10172   5.466   6.347   5.744 -0.3941 -0.3956 -0.1794
 1131ETH     CH10173   5.562   6.465   5.757  0.0982 -0.7911 -0.2212
 1131ETH     HO10174   5.476   6.179   5.656  1.3198 -2.6084  1.8667
 1131ETH     HC10175   5.389   6.373   5.671  0.5684 -1.3681 -1.5740
 1131ETH     HC10176   5.415   6.319   5.836 -2.7807 -3.6394 -2.3432
 1131ETH     HC10177   5.598   6.492   5.658  0.2533 -0.6607 -0.1288
 1131ETH     HC10178   5.510   6.553   5.795  1.2260 -0.2588  0.1191
 1131ETH     HC10179   5.642   6.448   5.829  1.0353  2.9804 -0.2849
 1132ETH     OH10180   4.001   5.177   6.106 -0.3499  0.1366  0.0090
 1132ETH     CH10181   4.105   5.192   6.200 -0.3912  0.1684  0.0492
 1132ETH     CH10182   4.206   5.296   6.149 -0.4758  0.1813 -0.0935
 1132ETH     HO10183   3.934   5.244   6.111 -2.2708 -1.7372  0.1769
 1132ETH     HC10184   4.064   5.204   6.300 -1.6831 -1.8757 -0.2111
 1132ETH     HC10185   4.162   5.101   6.216  1.5213  1.1943 -0.8004
 1132ETH     HC10186   4.296   5.290   6.211 -0.3333 -0.4610 -0.3590
 1132ETH     HC10187   4.225   5.274   6.044  0.4080 -1.8601  0.4594
 1132ETH     HC10188   4.166   5.397   6.147  0.4590  0.6153  1.8400
 1133ETH     OH10189   0.180   3.106   1.293 -0.1054  0.1446  0.1053
 1133ETH     CH10190   0.181   3.238   1.244 -0.4984 -0.0483 -0.4354
 1133ETH     CH10191   0.185   3.351   1.348  0.2074  0.1177 -0.6410
 1133ETH     HO10192   0.152   3.100   1.383  0.6283 -0.6443  0.2933
 1133ETH     HC10193   0.253   3.268   1.168  0.8388  1.5350  1.3763
 1133ETH     HC10194   0.083   3.249   1.198 -0.6505 -2.1498 -0.6610
 1133ETH     HC10195   0.282   3.362   1.397 -0.9116  0.7159  1.4658
 1133ETH     HC10196   0.156   3.447   1.305  0.3480  0.3301 -0.2646
 1133ETH     HC10197   0.117   3.324   1.429  2.7064 -0.6872  1.2562
 1134ETH     OH10198   3.673   1.680   5.127  0.0823 -0.1235 -0.0495
 1134ETH     CH10199   3.624   1.738   5.008  0.2947 -0.4298 -0.2881
 1134ETH     CH10200   3.478   1.701   4.977  0.1647 -0.4610  0.3520
 1134ETH     HO10201   3.715   1.742   5.184 -1.0842  0.2026  0.4724
 1134ETH     HC10202   3.637   1.846   5.020 -1.1642 -0.3880  1.0406
 1134ETH     HC10203   3.691   1.720   4.924  1.8632 -2.1812  1.3086
 1134ETH     HC10204   3.442   1.753   4.888  0.0131  0.5481  0.9878
 1134ETH     HC10205   3.484   1.596   4.948  1.3446 -0.0867 -0.8743
 1134ETH     HC10206   3.407   1.720   5.057 -2.1617  2.1379 -2.2194
 1135ETH     OH10207   4.138   1.966   2.860 -0.2762  0.4707  0.2343
 1135ETH     CH10208   4.066   1.883   2.948  0.5710 -0.2431  0.2608
 1135ETH     CH10209   4.150   1.760   2.982 -0.0164 -0.8333 -0.4262
 1135ETH     HO10210   4.194   2.025   2.909  1.9450 -1.2832 -0.1249
 1135ETH     HC10211   4.042   1.941   3.037  1.8248  2.2190 -0.9223
 1135ETH     HC10212   3.977   1.845   2.899  1.6263 -1.8016 -0.4924
 1135ETH     HC10213   4.160   1.702   2.890  2.2949  0.3951 -0.9795
 1135ETH     HC10214   4.249   1.785   3.020 -0.8702  1.8408  0.1507
 1135ETH     HC10215   4.100   1.706   3.063  2.2844  0.4378  1.9283
 1136ETH     OH10216   6.207   3.667   1.774 -0.7014  0.1758  0.2953
 1136ETH     CH10217   6.148   3.573   1.861  0.2446 -0.6063  0.0989
 1136ETH     CH10218   6.153   3.632   2.003  0.6458 -0.6910  0.1210
 1136ETH     HO10219   6.295   3.665   1.809 -0.7217  0.0969  0.3422
 1136ETH     HC10220   6.050   3.545   1.823 -0.3852 -0.5484  1.6297
 1136ETH     HC10221   6.206   3.481   1.863  1.3885  0.0196 -2.6403
 1136ETH     HC10222   6.077   3.710   2.009 -0.5836 -1.9470  0.9917
 1136ETH     HC10223   6.130   3.565   2.086 -0.6600  0.1134  0.4269
 1136ETH     HC10224   6.246   3.682   2.030  0.9279  0.1629 -2.2607
 1137ETH     OH10225   4.403   2.413   3.002  0.6785  0.1670 -0.6578
 1137ETH     CH10226   4.488   2.452   3.108  0.8259  0.2041 -0.7873
 1137ETH     CH10227   4.513   2.339   3.209 -0.1100  0.8414  0.1787
 1137ETH     HO10228   4.420   2.478   2.935 -0.6651  0.3081 -0.8765
 1137ETH     HC10229   4.585   2.487   3.075  0.8417  1.2452  0.3369
 1137ETH     HC10230   4.454   2.537   3.167  2.2316  0.5558 -0.4820
 1137ETH     HC10231   4.424   2.337   3.271  0.6197  1.6732  1.2633
 1137ETH     HC10232   4.518   2.242   3.160  0.6329  0.6857  0.5518
 1137ETH     HC10233   4.608   2.352   3.262  0.3908  0.9618 -0.7345
 1138ETH     OH10234   0.888   1.804   3.530  0.1196 -0.0080 -0.1405
 1138ETH     CH10235   0.748   1.809   3.542  0.0865  0.1614 -0.6068
 1138ETH     CH10236   0.688   1.757   3.411  0.1713 -0.3793 -0.4344
 1138ETH     HO10237   0.926   1.817   3.616 -1.7658  0.0594  0.7162
 1138ETH     HC10238   0.724   1.739   3.622 -0.2454  0.7760 -0.1668
 1138ETH     HC10239   0.711   1.909   3.562  2.0466  1.1858 -1.9136
 1138ETH     HC10240   0.735   1.667   3.373 -0.3177 -1.0604  0.5487
 1138ETH     HC10241   0.581   1.737   3.420  0.6674 -2.4999  0.8419
 1138ETH     HC10242   0.704   1.835   3.335  2.3679  0.3399  0.7339
 1139ETH     OH10243   1.204   6.285   1.573 -0.1892  0.1211  0.0068
 1139ETH     CH10244   1.298   6.182   1.555 -0.2534  0.0361  0.1577
 1139ETH     CH10245   1.218   6.061   1.505  0.2049  0.0034 -0.5185
 1139ETH     HO10246   1.161   6.280   1.657 -1.1933  1.8683 -0.3605
 1139ETH     HC10247   1.379   6.205   1.486 -0.7622  0.6755 -0.2265
 1139ETH     HC10248   1.349   6.157   1.648  1.2867  1.7254 -0.2276
 1139ETH     HC10249   1.166   6.019   1.592  0.2621  1.4026  0.2141
 1139ETH     HC10250   1.153   6.095   1.424  0.7589 -0.8003 -1.2947
 1139ETH     HC10251   1.273   5.983   1.453 -0.6529  0.4535 -2.1375
 1140ETH     OH10252   5.366   5.031   0.141 -0.2515 -0.2563 -0.0585
 1140ETH     CH10253   5.372   4.931   0.042  0.6265  0.0939 -0.3629
 1140ETH     CH10254   5.368   4.793   0.108  0.9890  0.0532 -0.4253
 1140ETH     HO10255   5.277   5.063   0.145 -0.3222 -0.3138 -1.1131
 1140ETH     HC10256   5.295   4.944  -0.033 -0.0426 -4.7095 -0.6874
 1140ETH     HC10257   5.469   4.928  -0.008 -0.2399  1.6134 -2.1889
 1140ETH     HC10258   5.274   4.784   0.163  1.0449  2.4319  0.0980
 1140ETH     HC10259   5.368   4.702   0.048  2.5667 -1.6917  2.0763
 1140ETH     HC10260   5.447   4.776   0.182  0.8808  0.9734 -0.0886
 1141ETH     OH10261   0.642   3.568   0.801  0.0765 -0.0348 -0.1300
 1141ETH     CH10262   0.769   3.512   0.778  0.0374 -0.1625 -0.0374
 1141ETH     CH10263   0.778   3.370   0.835 -0.2441 -0.3899 -0.5597
 1141ETH     HO10264   0.640   3.655   0.765 -0.9859  0.3377  0.8123
 1141ETH     HC10265   0.793   3.513   0.672  1.5534  0.9499  0.2939
 1141ETH     HC10266   0.845   3.572   0.829  1.5888 -0.2060 -2.1990
 1141ETH     HC10267   0.881   3.336   0.828  0.0076  0.4533 -1.1413
 1141ETH     HC10268   0.740   3.378   0.937  1.9747  0.9444  0.1944
 1141ETH     HC10269   0.719   3.303   0.772 -1.3820  0.8008 -0.7933
 1142ETH     OH10270   0.958   4.694   4.688 -0.3662 -0.2036 -0.0523
 1142ETH     CH10271   1.056   4.599   4.654 -0.7993 -0.5492 -0.3423
 1142ETH     CH10272   1.091   4.616   4.506  0.1059 -0.2490 -0.0967
 1142ETH     HO10273   0.933   4.697   4.779 -1.3047 -0.5964 -0.2989
 1142ETH     HC10274   1.151   4.602   4.708 -0.0121  1.5010 -1.7690
 1142ETH     HC10275   1.010   4.502   4.671  1.0239 -0.9278  2.8915
 1142ETH     HC10276   0.999   4.605   4.450 -1.2303 -2.0536  2.3696
 1142ETH     HC10277   1.114   4.721   4.494  0.8173 -0.2885  0.8363
 1142ETH     HC10278   1.173   4.553   4.470  0.4638 -0.5059  1.1362
 1143ETH     OH10279   4.533   2.017   5.025  0.0032 -0.4914 -0.0077
 1143ETH     CH10280   4.408   2.031   5.088 -0.0602 -0.4494 -0.1432
 1143ETH     CH10281   4.291   2.038   4.990 -0.1280 -0.1442 -0.0426
 1143ETH     HO10282   4.594   2.017   5.098  0.3748  2.6644 -0.2693
 1143ETH     HC10283   4.381   1.943   5.147  0.6615  0.7563  2.0743
 1143ETH     HC10284   4.409   2.118   5.154 -0.4991 -0.7856  0.3081
 1143ETH     HC10285   4.198   2.002   5.034 -1.4231 -0.8677 -3.2042
 1143ETH     HC10286   4.275   2.143   4.966 -0.0468 -0.3144 -0.8562
 1143ETH     HC10287   4.303   1.975   4.902 -1.8136  0.7312 -0.9103
 1144ETH     OH10288   3.944   4.101   3.821  0.0835  0.2808  0.4913
 1144ETH     CH10289   3.844   4.019   3.763  0.2283  0.1791  0.3842
 1144ETH     CH10290   3.716   4.082   3.820 -0.0833  0.0288 -0.1478
 1144ETH     HO10291   4.028   4.078   3.785  0.1731 -3.4176  2.7938
 1144ETH     HC10292   3.857   4.023   3.655 -1.3341  5.0126  0.2103
 1144ETH     HC10293   3.868   3.919   3.797  0.2546  0.4982  1.3325
 1144ETH     HC10294   3.629   4.046   3.766 -0.0651  2.9960 -2.3231
 1144ETH     HC10295   3.706   4.071   3.928  0.4305  3.0409  0.2524
 1144ETH     HC10296   3.707   4.190   3.803 -0.2678  0.7344  4.0069
 1145ETH     OH10297   0.277   5.269   2.388  0.0458 -0.1104  0.3056
 1145ETH     CH10298   0.308   5.200   2.507 -0.1075  0.2663  0.5654
 1145ETH     CH10299   0.438   5.124   2.480  0.1843  0.7522  0.6109
 1145ETH     HO10300   0.185   5.288   2.376  0.3398 -0.6949 -3.4910
 1145ETH     HC10301   0.322   5.267   2.592  1.3817  0.7143 -0.0154
 1145ETH     HC10302   0.230   5.131   2.539  0.6145 -0.8803 -0.0766
 1145ETH     HC10303   0.437   5.091   2.376  1.7927 -0.3678  0.9401
 1145ETH     HC10304   0.523   5.193   2.483 -0.0314  1.1712 -1.5680
 1145ETH     HC10305   0.473   5.046   2.548  2.5715  0.3818 -0.9592
 1146ETH     OH10306   6.280   1.157   5.243 -0.1723  0.1707 -0.8104
 1146ETH     CH10307   6.380   1.136   5.145  0.2273 -0.2396 -0.3224
 1146ETH     CH10308   6.516   1.159   5.211 -0.2378  0.1938  0.5013
 1146ETH     HO10309   6.233   1.235   5.221 -0.7494  0.0666  0.0586
 1146ETH     HC10310   6.364   1.041   5.094  0.6835 -2.0717  2.7881
 1146ETH     HC10311   6.367   1.210   5.066 -0.0657 -0.7990 -0.7972
 1146ETH     HC10312   6.509   1.236   5.287 -1.4588  0.8763 -0.2762
 1146ETH     HC10313   6.554   1.067   5.254  2.4412  0.8234 -0.4443
 1146ETH     HC10314   6.584   1.183   5.129 -0.7614  0.7166  0.2169
 1147ETH     OH10315   0.449   5.643   0.964 -0.3027  0.2772  0.2320
 1147ETH     CH10316   0.491   5.750   0.882  0.7319 -0.4245 -0.1581
 1147ETH     CH10317   0.563   5.700   0.757 -0.0384 -0.5655 -0.5474
 1147ETH     HO10318   0.525   5.614   1.012  1.2050 -1.6675 -3.1370
 1147ETH     HC10319   0.405   5.808   0.852  1.7990  0.8616 -0.7508
 1147ETH     HC10320   0.552   5.822   0.936  0.3438  1.0860 -1.6962
 1147ETH     HC10321   0.599   5.780   0.692  0.8846 -0.7599 -0.2767
 1147ETH     HC10322   0.645   5.633   0.782 -0.0233 -1.0274 -1.8049
 1147ETH     HC10323   0.495   5.643   0.694  0.7572 -2.0062 -0.1035
 1148ETH     OH10324   1.279   1.077   5.791  0.1273 -0.3368 -0.4013
 1148ETH     CH10325   1.250   0.940   5.810 -0.0463 -0.1964  0.3823
 1148ETH     CH10326   1.241   0.921   5.961  0.4403 -0.8529  0.3293
 1148ETH     HO10327   1.373   1.079   5.805 -0.1606 -1.7949  2.1225
 1148ETH     HC10328   1.157   0.913   5.761  0.8143 -2.5598  0.0070
 1148ETH     HC10329   1.330   0.881   5.765 -0.7585 -1.9324  1.3557
 1148ETH     HC10330   1.339   0.951   5.999  1.1474 -2.6508 -0.0153
 1148ETH     HC10331   1.158   0.976   6.005 -0.7825 -1.2454 -1.4401
 1148ETH     HC10332   1.220   0.817   5.988  0.7224 -1.1398 -0.5478
 1149ETH     OH10333   4.507   0.219   1.019 -0.5936 -0.2985 -0.2943
 1149ETH     CH10334   4.636   0.169   0.991 -0.2849  0.4948 -0.2942
 1149ETH     CH10335   4.641   0.088   0.862 -0.4424  0.2273 -0.1338
 1149ETH     HO10336   4.449   0.144   1.020  0.0725 -0.8090  1.1589
 1149ETH     HC10337   4.716   0.242   0.998  3.4353 -3.5696  1.6563
 1149ETH     HC10338   4.657   0.102   1.074  1.3262  0.4717 -0.7063
 1149ETH     HC10339   4.628   0.158   0.780 -1.4513  0.5056  0.2593
 1149ETH     HC10340   4.738   0.039   0.858  0.7202  2.4915 -0.5119
 1149ETH     HC10341   4.571   0.005   0.846  0.0647 -0.1271 -0.5601
 1150ETH     OH10342   2.320   3.673   5.747  0.2164  0.1971  0.5727
 1150ETH     CH10343   2.199   3.616   5.789  0.2469 -0.3932 -0.1418
 1150ETH     CH10344   2.156   3.519   5.678 -0.6459 -0.3740  0.1794
 1150ETH     HO10345   2.347   3.749   5.797  0.9350  0.6024 -0.4167
 1150ETH     HC10346   2.219   3.558   5.879 -1.6818  1.9987  1.8832
 1150ETH     HC10347   2.122   3.690   5.810  0.0170 -0.5062 -0.5677
 1150ETH     HC10348   2.247   3.466   5.651  0.7392  2.1442 -0.3075
 1150ETH     HC10349   2.085   3.441   5.706 -1.2003 -0.2387 -0.8434
 1150ETH     HC10350   2.114   3.573   5.593 -0.0451  3.4706  2.2107
 1151ETH     OH10351   0.827   4.933   3.324 -0.1517 -0.0433  0.0218
 1151ETH     CH10352   0.907   4.952   3.210  0.1039 -0.0700  0.1951
 1151ETH     CH10353   0.975   5.089   3.208 -0.0450 -0.0013 -0.2243
 1151ETH     HO10354   0.761   4.871   3.296 -2.9769  2.1621  1.5451
 1151ETH     HC10355   0.979   4.870   3.210 -1.6014 -1.6478 -2.2920
 1151ETH     HC10356   0.854   4.943   3.115 -0.6844 -0.9762  0.7054
 1151ETH     HC10357   0.907   5.173   3.197  0.2036  0.0506 -1.4135
 1151ETH     HC10358   1.042   5.102   3.293  0.5276  2.9503 -1.0737
 1151ETH     HC10359   1.041   5.107   3.124 -2.7193  1.2844 -2.1013
 1152ETH     OH10360   6.205   5.715   0.801 -0.2784 -0.1822 -0.1367
 1152ETH     CH10361   6.172   5.842   0.750  0.5994  0.2433  0.3589
 1152ETH     CH10362   6.261   5.892   0.636  0.5613 -0.5932 -0.0387
 1152ETH     HO10363   6.136   5.685   0.859  0.9136 -0.8112  0.9826
 1152ETH     HC10364   6.084   5.834   0.687  1.0782  1.5656 -0.4986
 1152ETH     HC10365   6.155   5.916   0.829 -0.0283  1.2605 -0.7141
 1152ETH     HC10366   6.363   5.903   0.674  0.9316  0.7303 -1.3644
 1152ETH     HC10367   6.258   5.817   0.557 -1.9806  1.8618 -2.3805
 1152ETH     HC10368   6.226   5.990   0.603 -0.6426 -1.1502 -0.4174
 1153ETH     OH10369   5.399   0.054   5.298  0.0814  0.0908 -0.0365
 1153ETH     CH10370   5.534   0.016   5.276 -0.0168 -0.5525  0.4522
 1153ETH     CH10371   5.537  -0.087   5.163 -0.0053 -0.0595  0.0038
 1153ETH     HO10372   5.388   0.143   5.270 -2.0276 -0.8104 -2.1683
 1153ETH     HC10373   5.608   0.094   5.260  2.4058 -2.2053  3.0660
 1153ETH     HC10374   5.575  -0.020   5.371 -0.0387  2.6812  1.7562
 1153ETH     HC10375   5.640  -0.123   5.157  0.6938  1.8383  0.1788
 1153ETH     HC10376   5.486  -0.171   5.209  0.7407  0.0550  1.0742
 1153ETH     HC10377   5.494  -0.056   5.068  0.3004 -2.9557 -1.1158
 1154ETH     OH10378   0.706   4.767   2.079  0.0004  0.5535  0.2897
 1154ETH     CH10379   0.617   4.876   2.090 -0.0074  0.5612  0.1408
 1154ETH     CH10380   0.492   4.816   2.154 -0.0850  0.3604 -0.1948
 1154ETH     HO10381   0.746   4.750   2.163 -0.8265 -0.8892  0.4120
 1154ETH     HC10382   0.662   4.956   2.147 -1.8718  1.3050  0.6188
 1154ETH     HC10383   0.617   4.917   1.989  0.7909 -0.0875 -0.1284
 1154ETH     HC10384   0.504   4.757   2.245  0.9123  1.8965  0.6988
 1154ETH     HC10385   0.429   4.903   2.177 -0.3650 -0.1843  1.1680
 1154ETH     HC10386   0.435   4.755   2.084 -0.3790 -0.5116  0.7918
 1155ETH     OH10387   0.326   2.704   1.504 -0.3586  0.2271  0.1112
 1155ETH     CH10388   0.352   2.708   1.366 -0.3166  0.2309  0.1191
 1155ETH     CH10389   0.334   2.562   1.324 -0.9105  0.4320 -0.3327
 1155ETH     HO10390   0.355   2.789   1.535  0.4965 -0.4438  1.1892
 1155ETH     HC10391   0.280   2.767   1.309  0.9806  2.1590  0.4329
 1155ETH     HC10392   0.447   2.750   1.332 -0.5921  0.6649 -0.1239
 1155ETH     HC10393   0.239   2.512   1.347 -0.7976 -0.1975 -1.2525
 1155ETH     HC10394   0.353   2.553   1.218  1.8446 -1.1229  0.2397
 1155ETH     HC10395   0.412   2.504   1.372 -1.0743  0.2786 -0.2502
 1156ETH     OH10396   5.314   0.082   6.257 -0.1111  0.0204  0.1646
 1156ETH     CH10397   5.438   0.062   6.193 -0.2336 -0.3585  0.0436
 1156ETH     CH10398   5.494   0.178   6.111 -0.4553 -0.5052 -0.3156
 1156ETH     HO10399   5.306   0.161   6.308 -0.7271  1.3268 -1.8705
 1156ETH     HC10400   5.504   0.032   6.275 -0.7427  0.5088  0.7811
 1156ETH     HC10401   5.428  -0.026   6.129  2.0498 -0.5206 -0.1584
 1156ETH     HC10402   5.429   0.225   6.038 -1.2569 -1.6469 -0.3435
 1156ETH     HC10403   5.525   0.255   6.182  2.3036  0.0711 -2.0858
 1156ETH     HC10404   5.581   0.147   6.053  1.9348  0.7128  2.4784
 1157ETH     OH10405   2.503   4.801   1.428  0.3599  0.1909 -0.0206
 1157ETH     CH10406   2.578   4.697   1.368 -0.2433  0.2033 -0.8028
 1157ETH     CH10407   2.539   4.675   1.222  0.4674 -0.0250 -0.9609
 1157ETH     HO10408   2.548   4.820   1.508  1.4770  0.0894 -0.6092
 1157ETH     HC10409   2.683   4.730   1.370  0.1880 -1.2574  0.9656
 1157ETH     HC10410   2.572   4.611   1.433 -1.6771  2.5013  2.2106
 1157ETH     HC10411   2.443   4.627   1.203 -0.4139 -0.0799  3.1710
 1157ETH     HC10412   2.538   4.759   1.153 -0.4692 -0.1740 -1.1309
 1157ETH     HC10413   2.603   4.600   1.174  0.1027 -0.7842 -0.2600
 1158ETH     OH10414   3.070   5.139   6.117  0.4133  0.0299 -0.0177
 1158ETH     CH10415   3.160   5.038   6.157  0.9322  0.4059 -0.2347
 1158ETH     CH10416   3.198   5.076   6.301  0.0618  0.2418  0.0368
 1158ETH     HO10417   2.981   5.114   6.137 -0.6767  1.3310 -2.9892
 1158ETH     HC10418   3.119   4.938   6.143  0.2360  0.6734 -0.1271
 1158ETH     HC10419   3.243   5.054   6.088 -0.2918 -0.4917 -1.9574
 1158ETH     HC10420   3.116   5.035   6.360  0.1537 -0.1496 -0.1023
 1158ETH     HC10421   3.290   5.030   6.338 -1.5570 -3.3534 -0.1385
 1158ETH     HC10422   3.202   5.183   6.321  0.7909 -0.0955  1.7370
 1159ETH     OH10423   2.630   4.969   1.926 -0.1553 -0.5009 -0.4214
 1159ETH     CH10424   2.733   4.960   2.022  0.3038 -0.2526 -0.8929
 1159ETH     CH10425   2.718   4.832   2.103  0.8127  0.4257  0.2756
 1159ETH     HO10426   2.561   5.017   1.970  1.3772 -0.2735  1.8256
 1159ETH     HC10427   2.826   4.964   1.965  0.5843  1.7899 -0.3281
 1159ETH     HC10428   2.722   5.046   2.088 -2.2736  0.2283 -1.8842
 1159ETH     HC10429   2.809   4.800   2.155  0.2984 -3.0533 -0.8048
 1159ETH     HC10430   2.626   4.827   2.162  1.5739 -1.1646  1.3841
 1159ETH     HC10431   2.704   4.748   2.035  1.6721 -0.0555  0.6763
 1160ETH     OH10432   1.613   6.150   0.769 -0.0434  0.2372 -0.3451
 1160ETH     CH10433   1.607   6.014   0.731  0.9104  0.0478  0.1676
 1160ETH     CH10434   1.465   5.962   0.755  0.8481  0.2507  0.2359
 1160ETH     HO10435   1.611   6.143   0.863  2.6201 -0.8407 -0.3243
 1160ETH     HC10436   1.633   6.019   0.626  2.1269  0.3656  0.4736
 1160ETH     HC10437   1.681   5.953   0.783  1.6924  1.3805  0.6407
 1160ETH     HC10438   1.454   5.858   0.724 -0.6045 -0.0245  1.6088
 1160ETH     HC10439   1.448   5.966   0.863 -0.7468  0.2330  0.0033
 1160ETH     HC10440   1.396   6.025   0.699  1.0837  0.0841 -0.2480
 1161ETH     OH10441   1.115   1.847   3.924  0.2898  0.0511  0.1969
 1161ETH     CH10442   1.127   1.810   4.059  0.1802  0.1119  0.2220
 1161ETH     CH10443   1.018   1.864   4.152 -0.2243 -0.6708  0.2148
 1161ETH     HO10444   1.200   1.858   3.884  0.1756 -2.2178 -0.7513
 1161ETH     HC10445   1.135   1.702   4.071 -2.8841 -0.0239  1.5797
 1161ETH     HC10446   1.229   1.841   4.080  0.5165 -0.5619 -0.3791
 1161ETH     HC10447   1.014   1.805   4.243 -1.0803 -0.3325  0.4076
 1161ETH     HC10448   1.040   1.962   4.195 -2.2836 -0.7562  1.5415
 1161ETH     HC10449   0.920   1.868   4.105  1.0802  0.3785 -2.5089
 1162ETH     OH10450   5.300   2.369   6.187 -0.2606 -0.2030  0.0251
 1162ETH     CH10451   5.392   2.476   6.180 -0.1305 -0.3338 -0.2397
 1162ETH     CH10452   5.453   2.480   6.040 -0.1709 -0.0232 -0.2484
 1162ETH     HO10453   5.343   2.292   6.221  1.9484  0.7801 -0.4440
 1162ETH     HC10454   5.343   2.567   6.212 -0.6786 -0.5530 -0.4488
 1162ETH     HC10455   5.468   2.462   6.257 -0.8347 -2.0168  0.1789
 1162ETH     HC10456   5.494   2.384   6.009  0.2492 -0.1086  0.5631
 1162ETH     HC10457   5.386   2.513   5.961 -0.4197  0.0037 -0.0248
 1162ETH     HC10458   5.541   2.544   6.037  0.8249 -1.3474 -0.0212
 1163ETH     OH10459   4.041   5.707   3.080  0.3267 -0.3273  0.3199
 1163ETH     CH10460   4.012   5.843   3.103  0.3559 -0.2253 -0.2260
 1163ETH     CH10461   4.006   5.917   2.970 -0.3006  0.6478  0.2852
 1163ETH     HO10462   3.980   5.665   3.021 -0.4341  0.7019  0.3703
 1163ETH     HC10463   3.921   5.860   3.161  0.0850  0.8009 -0.9426
 1163ETH     HC10464   4.092   5.882   3.166  0.7497  0.2018 -0.9792
 1163ETH     HC10465   4.102   5.900   2.922 -1.5159 -0.4105 -1.8314
 1163ETH     HC10466   3.925   5.865   2.917 -0.2094  1.4779 -0.6806
 1163ETH     HC10467   3.997   6.025   2.984  1.3892  0.7355  0.7049
 1164ETH     OH10468   2.862   0.711   3.028  0.4929  0.8230  0.6170
 1164ETH     CH10469   2.732   0.755   2.995  0.1205 -0.0417  0.9232
 1164ETH     CH10470   2.715   0.742   2.844  0.6702  0.5575  0.8105
 1164ETH     HO10471   2.925   0.766   2.984  0.5737 -1.3485 -2.1584
 1164ETH     HC10472   2.669   0.693   3.059  0.1901  0.3174  1.3405
 1164ETH     HC10473   2.724   0.859   3.026  4.6363  0.3896  0.9072
 1164ETH     HC10474   2.795   0.778   2.779  0.7767 -0.7022  0.2208
 1164ETH     HC10475   2.698   0.637   2.821 -0.2626  0.8158  0.2797
 1164ETH     HC10476   2.628   0.801   2.816  1.1521  2.6399  3.4387
 1165ETH     OH10477   5.998   3.316   1.565  0.0720 -0.1794 -0.2115
 1165ETH     CH10478   6.007   3.317   1.424  0.2591 -0.1630 -0.1991
 1165ETH     CH10479   5.961   3.179   1.378 -1.0283  0.0006  0.5636
 1165ETH     HO10480   6.072   3.263   1.589  1.0807  0.8910 -0.8458
 1165ETH     HC10481   5.946   3.395   1.378  0.3826 -0.6509 -1.2050
 1165ETH     HC10482   6.108   3.326   1.383 -0.1864  0.3785 -1.1981
 1165ETH     HC10483   5.986   3.161   1.273  3.3222 -0.0142  1.4948
 1165ETH     HC10484   6.020   3.103   1.429 -0.5932  0.8787  1.3948
 1165ETH     HC10485   5.857   3.177   1.407 -1.4430  0.2205 -0.8385
 1166ETH     OH10486   0.659   3.855   0.229 -0.0241  0.6069 -0.3138
 1166ETH     CH10487   0.709   3.906   0.108  0.1880  0.2627 -0.3697
 1166ETH     CH10488   0.617   3.953  -0.005 -0.1434 -0.8054 -0.5497
 1166ETH     HO10489   0.624   3.771   0.204 -0.7392  0.3925  1.3290
 1166ETH     HC10490   0.779   3.985   0.135  0.9795  0.2048 -2.1183
 1166ETH     HC10491   0.778   3.827   0.078 -0.1839 -0.3465  0.3838
 1166ETH     HC10492   0.551   4.016   0.055 -1.2479  0.0831 -2.6564
 1166ETH     HC10493   0.669   4.008  -0.083 -2.7752 -0.0437 -1.8171
 1166ETH     HC10494   0.556   3.870  -0.041  2.2437 -2.6565 -0.4835
 1167ETH     OH10495   1.169   1.756   5.093 -0.1316 -0.2056  0.1458
 1167ETH     CH10496   1.219   1.625   5.102  0.3971 -0.0546 -0.5637
 1167ETH     CH10497   1.233   1.591   5.251  0.1302 -0.4150 -0.6202
 1167ETH     HO10498   1.146   1.766   5.002 -1.1623 -1.7513  0.2170
 1167ETH     HC10499   1.157   1.547   5.057  3.2504 -3.4565  1.1339
 1167ETH     HC10500   1.312   1.616   5.046  0.3020  1.1031 -0.9156
 1167ETH     HC10501   1.325   1.632   5.293  0.1420 -0.3593 -0.6978
 1167ETH     HC10502   1.143   1.622   5.304  1.7098  0.2159  1.7878
 1167ETH     HC10503   1.231   1.483   5.265  1.5500 -0.3346  0.2327
 1168ETH     OH10504   0.598   0.045   2.766  0.2734 -0.0331  0.4146
 1168ETH     CH10505   0.490  -0.044   2.751  0.0745  0.2301  0.2896
 1168ETH     CH10506   0.513  -0.173   2.830 -0.4384 -0.1860 -0.2328
 1168ETH     HO10507   0.660   0.028   2.697  0.2157 -0.9193  0.5749
 1168ETH     HC10508   0.402   0.007   2.791 -0.3434 -0.6775  0.5261
 1168ETH     HC10509   0.467  -0.051   2.645  0.4143 -0.1849  0.2436
 1168ETH     HC10510   0.605  -0.225   2.801  0.0602 -0.7246  2.1666
 1168ETH     HC10511   0.512  -0.141   2.935 -0.1890 -2.2500  0.4070
 1168ETH     HC10512   0.440  -0.253   2.824  0.1204 -0.6220 -1.2186
 1169ETH     OH10513   1.999   4.947   4.800 -0.2209 -0.6611 -0.2508
 1169ETH     CH10514   1.972   4.837   4.716 -0.9215 -0.1651 -0.6783
 1169ETH     CH10515   1.854   4.757   4.771 -0.4221 -0.0628  0.5631
 1169ETH     HO10516   2.008   4.924   4.892  0.4941 -1.5084 -0.5280
 1169ETH     HC10517   1.940   4.883   4.622  1.7850 -1.2030 -2.1607
 1169ETH     HC10518   2.063   4.782   4.690 -0.4694  0.3491 -0.2018
 1169ETH     HC10519   1.834   4.675   4.701  0.1185 -0.3700  0.7648
 1169ETH     HC10520   1.860   4.719   4.873 -1.8686  0.2928  0.7889
 1169ETH     HC10521   1.770   4.826   4.782 -1.7409 -1.3906 -0.8112
 1170ETH     OH10522   5.409   2.513   4.890  0.2698 -0.2063  0.0495
 1170ETH     CH10523   5.271   2.497   4.870  0.1217  0.6457  0.3773
 1170ETH     CH10524   5.251   2.570   4.737 -0.3352 -0.0022  0.0835
 1170ETH     HO10525   5.422   2.592   4.940  1.7595 -1.8986  2.4235
 1170ETH     HC10526   5.252   2.389   4.876 -0.2874  0.8463  3.2915
 1170ETH     HC10527   5.216   2.540   4.953  1.7307  1.6183  0.9550
 1170ETH     HC10528   5.269   2.677   4.748 -0.7913  0.2776 -1.6996
 1170ETH     HC10529   5.324   2.542   4.661 -1.8514  2.1137 -2.2546
 1170ETH     HC10530   5.152   2.550   4.695 -0.6047 -1.2484  1.2927
 1171ETH     OH10531   3.835   2.880   3.792 -0.1116 -0.3681  0.6400
 1171ETH     CH10532   3.707   2.828   3.763  0.0183 -0.3714  0.0814
 1171ETH     CH10533   3.693   2.687   3.820 -0.6880 -0.1036  0.5663
 1171ETH     HO10534   3.900   2.816   3.766  1.0047  1.0808 -0.2020
 1171ETH     HC10535   3.631   2.896   3.802 -1.8209 -1.3484 -1.7117
 1171ETH     HC10536   3.697   2.813   3.655  1.2596  1.0159 -0.2529
 1171ETH     HC10537   3.596   2.650   3.786 -0.8073  0.8987 -0.2350
 1171ETH     HC10538   3.760   2.613   3.776 -1.5223 -1.9943  2.4222
 1171ETH     HC10539   3.700   2.687   3.928 -1.2235 -2.4204  0.6294
 1172ETH     OH10540   2.043   2.858   5.221  0.9281 -0.1745 -0.2822
 1172ETH     CH10541   2.109   2.798   5.330  0.1646 -0.1077  0.2193
 1172ETH     CH10542   2.092   2.646   5.322  0.5302 -0.1328 -0.1052
 1172ETH     HO10543   1.956   2.890   5.243  1.2065  0.7643 -0.5375
 1172ETH     HC10544   2.213   2.826   5.314  0.6240 -0.5959  2.1925
 1172ETH     HC10545   2.063   2.837   5.421 -0.6199 -0.5163  0.0054
 1172ETH     HC10546   2.145   2.606   5.236 -0.0363  0.6809 -0.8486
 1172ETH     HC10547   2.133   2.599   5.411  0.0824  0.5631  0.4762
 1172ETH     HC10548   1.985   2.624   5.322 -0.0347  2.4360 -0.2008
 1173ETH     OH10549   4.841   3.928   3.699 -0.2237  0.0170  0.0931
 1173ETH     CH10550   4.836   4.050   3.629  0.7321 -0.0928 -0.1739
 1173ETH     CH10551   4.711   4.065   3.542  0.3779  0.2479  0.3885
 1173ETH     HO10552   4.926   3.914   3.738 -0.3778 -3.3908 -0.5587
 1173ETH     HC10553   4.854   4.134   3.696 -0.5347  0.5824 -0.6552
 1173ETH     HC10554   4.919   4.060   3.558  0.3266 -1.0030 -0.7811
 1173ETH     HC10555   4.697   3.999   3.456  1.8839 -0.4721  0.6729
 1173ETH     HC10556   4.627   4.041   3.607  0.3691 -3.2611 -0.8015
 1173ETH     HC10557   4.708   4.165   3.500  0.1155 -0.9875 -2.6708
 1174ETH     OH10558   5.134   0.927   1.705 -0.1693  0.0429 -0.2032
 1174ETH     CH10559   5.120   0.843   1.592 -0.2860  0.1065 -0.2369
 1174ETH     CH10560   4.974   0.805   1.568 -0.2183  0.1839 -0.7783
 1174ETH     HO10561   5.215   0.975   1.707 -0.8613  1.2018  0.4512
 1174ETH     HC10562   5.163   0.895   1.507  3.7338  0.1939  1.7317
 1174ETH     HC10563   5.177   0.751   1.607 -0.0711 -0.1509 -2.4801
 1174ETH     HC10564   4.918   0.883   1.516 -0.4355 -0.4969 -1.5683
 1174ETH     HC10565   4.969   0.719   1.502  0.2848 -1.0844  0.7926
 1174ETH     HC10566   4.934   0.781   1.667 -1.0647 -0.4385 -1.2657
 1175ETH     OH10567   2.144   0.271   0.509  0.1822  0.2583 -0.3034
 1175ETH     CH10568   2.173   0.365   0.408  0.5208  0.1843 -0.2760
 1175ETH     CH10569   2.277   0.467   0.456  0.0018  0.4638  0.2671
 1175ETH     HO10570   2.079   0.214   0.470  0.6988  0.7322 -1.8928
 1175ETH     HC10571   2.197   0.321   0.311  1.3510 -1.8370  0.8115
 1175ETH     HC10572   2.082   0.425   0.402  0.1274 -0.4912 -1.2786
 1175ETH     HC10573   2.262   0.506   0.556  1.4374 -0.1385  0.7158
 1175ETH     HC10574   2.378   0.428   0.447  0.2391  1.1591 -0.1703
 1175ETH     HC10575   2.285   0.550   0.386 -3.6756  0.3456 -0.4162
 1176ETH     OH10576   2.783   5.006   4.106 -0.1670 -0.3253 -0.3053
 1176ETH     CH10577   2.800   5.129   4.174 -0.1549 -0.3828 -0.2046
 1176ETH     CH10578   2.671   5.211   4.171  0.0150 -0.0828  0.7004
 1176ETH     HO10579   2.720   4.956   4.155 -1.2748  3.1570  2.0300
 1176ETH     HC10580   2.828   5.104   4.276  1.5121 -0.1666 -0.5943
 1176ETH     HC10581   2.888   5.180   4.135  0.4889 -0.4570  1.1296
 1176ETH     HC10582   2.674   5.305   4.227 -1.1504  0.1766  0.3388
 1176ETH     HC10583   2.642   5.244   4.071  1.2426  0.7906  0.6341
 1176ETH     HC10584   2.584   5.157   4.209  0.2485 -0.7298  0.3189
 1177ETH     OH10585   0.300   4.700   2.689 -0.4922  0.0894  0.0201
 1177ETH     CH10586   0.415   4.720   2.610 -0.0481 -0.5126  0.5158
 1177ETH     CH10587   0.526   4.778   2.699  0.3875  0.1993 -0.4872
 1177ETH     HO10588   0.233   4.671   2.628 -1.0538  0.5587  0.4012
 1177ETH     HC10589   0.452   4.630   2.561 -0.9845 -0.6043 -0.0205
 1177ETH     HC10590   0.386   4.799   2.541 -0.5449 -0.3126  0.9449
 1177ETH     HC10591   0.537   4.701   2.775 -2.3154 -1.9554 -2.1746
 1177ETH     HC10592   0.619   4.784   2.641 -0.1088  0.8110 -1.2391
 1177ETH     HC10593   0.503   4.875   2.743  0.2481  0.0927 -0.3275
 1178ETH     OH10594   1.975   1.132   5.932 -0.0342 -0.1021  0.0340
 1178ETH     CH10595   2.007   1.179   5.803  0.4734 -0.1006  0.1570
 1178ETH     CH10596   2.096   1.300   5.826  0.3528  0.0086  0.0513
 1178ETH     HO10597   2.057   1.104   5.971 -0.4157  0.1532  1.0195
 1178ETH     HC10598   2.057   1.102   5.744 -0.9719  0.6641 -2.1189
 1178ETH     HC10599   1.923   1.230   5.755 -0.9867 -1.6198  1.0211
 1178ETH     HC10600   2.024   1.378   5.849 -0.4435 -0.4125 -1.0177
 1178ETH     HC10601   2.158   1.290   5.915  0.6360 -1.3187 -0.2810
 1178ETH     HC10602   2.164   1.331   5.746  0.2622  1.7773  0.6394
 1179ETH     OH10603   3.666   0.934   2.075  0.1123 -0.1465 -0.7416
 1179ETH     CH10604   3.749   0.917   2.188 -0.2468  0.5649 -0.3700
 1179ETH     CH10605   3.889   0.872   2.150 -0.1493  0.1371  0.4766
 1179ETH     HO10606   3.623   0.853   2.054 -0.6274 -0.6855  2.5523
 1179ETH     HC10607   3.753   1.008   2.249  3.9941  0.5719 -0.5165
 1179ETH     HC10608   3.714   0.851   2.268 -0.5473  0.6531 -0.4244
 1179ETH     HC10609   3.951   0.853   2.237 -1.2840  1.4464  1.5864
 1179ETH     HC10610   3.873   0.775   2.103 -1.2824  1.3830 -1.7778
 1179ETH     HC10611   3.953   0.946   2.102  1.4683 -0.6435  1.3858
 1180ETH     OH10612   4.730   4.367   6.011 -0.0939 -0.2325  0.6086
 1180ETH     CH10613   4.831   4.316   6.095  0.3952  0.2968  0.3494
 1180ETH     CH10614   4.873   4.174   6.056  0.3535  0.4334 -0.1993
 1180ETH     HO10615   4.647   4.324   6.021  0.5384 -1.6674 -0.2737
 1180ETH     HC10616   4.917   4.377   6.070  1.0392 -0.0254  1.7333
 1180ETH     HC10617   4.801   4.328   6.200  1.3039  1.2754  0.4996
 1180ETH     HC10618   4.958   4.138   6.113  0.3571 -0.3817 -0.7176
 1180ETH     HC10619   4.793   4.105   6.083  0.9653  0.1520  0.9633
 1180ETH     HC10620   4.883   4.166   5.948  0.7019 -0.6015 -0.1024
 1181ETH     OH10621   2.970   4.838   0.432 -0.0070  0.2268  0.0536
 1181ETH     CH10622   3.034   4.953   0.482  0.0691 -0.0246  0.5300
 1181ETH     CH10623   3.036   4.967   0.635 -0.3613  0.3907  0.4994
 1181ETH     HO10624   2.931   4.864   0.350 -0.8125  0.3702  0.4739
 1181ETH     HC10625   3.136   4.944   0.445 -0.4462 -4.2722 -0.1076
 1181ETH     HC10626   2.982   5.036   0.435  0.2691  0.9221  1.9185
 1181ETH     HC10627   3.086   5.061   0.659 -1.8106  1.4898 -0.6579
 1181ETH     HC10628   2.938   4.977   0.681 -0.1660 -0.0594  1.0226
 1181ETH     HC10629   3.072   4.875   0.682 -3.3868 -2.1451 -1.8867
 1182ETH     OH10630   0.876   0.805   1.851  0.4501  0.5429 -0.1379
 1182ETH     CH10631   0.844   0.792   1.715  0.7025  0.8559 -0.2259
 1182ETH     CH10632   0.975   0.806   1.637  0.4246  0.2311 -0.8191
 1182ETH     HO10633   0.805   0.770   1.904  0.1874  2.8174  1.0682
 1182ETH     HC10634   0.805   0.694   1.689  0.5788  0.9105 -0.2433
 1182ETH     HC10635   0.775   0.868   1.681 -0.5838  0.5337  1.6288
 1182ETH     HC10636   0.997   0.911   1.660 -3.0069  1.0129 -0.8976
 1182ETH     HC10637   1.052   0.736   1.668  0.1207 -0.0243 -0.6429
 1182ETH     HC10638   0.952   0.786   1.533 -0.0052 -0.2047 -0.6412
 1183ETH     OH10639   4.294   0.338   0.063 -0.0665 -0.4235 -0.1414
 1183ETH     CH10640   4.277   0.366  -0.074 -0.0837 -0.3575 -0.1260
 1183ETH     CH10641   4.133   0.338  -0.119 -0.1778  0.3326 -0.2668
 1183ETH     HO10642   4.250   0.255   0.067 -1.4891  0.3326  0.0938
 1183ETH     HC10643   4.315   0.459  -0.116  1.6107 -1.7142 -1.6699
 1183ETH     HC10644   4.332   0.285  -0.121 -0.2661  0.8183 -2.4374
 1183ETH     HC10645   4.064   0.409  -0.074 -1.5247 -0.6023 -0.8469
 1183ETH     HC10646   4.133   0.343  -0.228  3.1961 -0.4927 -0.3684
 1183ETH     HC10647   4.085   0.244  -0.093 -2.0924  0.7032 -2.3279
 1184ETH     OH10648   3.326   4.369   2.760  0.2051  0.1237  0.2235
 1184ETH     CH10649   3.420   4.359   2.656 -0.0929 -0.1654 -0.0206
 1184ETH     CH10650   3.403   4.217   2.601  0.4902 -0.1887 -0.1437
 1184ETH     HO10651   3.341   4.299   2.822 -2.7830 -0.5231  0.2915
 1184ETH     HC10652   3.410   4.436   2.580  0.5606  0.1780  0.2293
 1184ETH     HC10653   3.526   4.372   2.680  0.4760 -2.1927 -1.3258
 1184ETH     HC10654   3.309   4.202   2.549 -0.2693 -0.4701  1.2788
 1184ETH     HC10655   3.487   4.182   2.541  0.8293 -0.7051  0.6122
 1184ETH     HC10656   3.401   4.152   2.689 -1.0963  0.2146  0.1311
 1185ETH     OH10657   5.502   6.117   0.387 -0.5511 -0.4897  0.2969
 1185ETH     CH10658   5.503   6.032   0.275 -0.3403 -0.2298  0.1015
 1185ETH     CH10659   5.442   5.897   0.311  0.2822 -0.4023  0.5205
 1185ETH     HO10660   5.499   6.203   0.349  1.9023  0.1042  1.2966
 1185ETH     HC10661   5.439   6.078   0.199 -2.0500 -1.4158  0.8098
 1185ETH     HC10662   5.607   6.028   0.241 -0.2449  1.5938  0.0973
 1185ETH     HC10663   5.509   5.839   0.374 -0.0933 -1.3570  0.0448
 1185ETH     HC10664   5.345   5.907   0.360 -0.6063  2.9303 -1.7825
 1185ETH     HC10665   5.424   5.840   0.220  0.3358  0.3233  0.0490
 1186ETH     OH10666   4.168   3.781   5.768  0.2877 -0.4228  0.3945
 1186ETH     CH10667   4.277   3.847   5.709  0.0273 -0.3770 -0.0352
 1186ETH     CH10668   4.344   3.753   5.609 -0.1915 -0.7753  0.1939
 1186ETH     HO10669   4.109   3.750   5.701 -0.0664 -1.9023  1.3665
 1186ETH     HC10670   4.238   3.931   5.650  1.5063 -0.1222 -0.6571
 1186ETH     HC10671   4.358   3.886   5.771 -1.6797 -0.4562  2.3117
 1186ETH     HC10672   4.365   3.656   5.655  0.6946 -0.9644 -0.6046
 1186ETH     HC10673   4.292   3.744   5.514  3.7496 -2.0167 -1.9225
 1186ETH     HC10674   4.439   3.794   5.575 -0.4007 -0.5400 -0.1078
 1187ETH     OH10675   0.709   1.929   4.632  0.5636  0.2567 -0.5056
 1187ETH     CH10676   0.757   1.797   4.634 -0.8859 -0.2711  0.3179
 1187ETH     CH10677   0.782   1.737   4.496  0.8476 -0.1360  0.5531
 1187ETH     HO10678   0.659   1.945   4.711 -0.8083 -3.1655 -0.6305
 1187ETH     HC10679   0.849   1.780   4.690  1.7875  0.9522 -3.5090
 1187ETH     HC10680   0.680   1.743   4.688 -2.2871  1.0545 -0.3170
 1187ETH     HC10681   0.815   1.633   4.490  0.9834 -0.0264 -0.9522
 1187ETH     HC10682   0.680   1.741   4.456 -0.0945 -3.5499  2.3740
 1187ETH     HC10683   0.845   1.797   4.431 -0.5906  1.2226  0.3715
 1188ETH     OH10684   3.385   5.176   0.586 -0.9723 -0.2863  0.3004
 1188ETH     CH10685   3.441   5.215   0.709  0.2910  0.0943 -0.3820
 1188ETH     CH10686   3.337   5.187   0.817 -0.1261  0.3516 -0.7152
 1188ETH     HO10687   3.369   5.246   0.524  3.0525 -1.6689 -2.5544
 1188ETH     HC10688   3.535   5.162   0.726  1.1537  1.6148 -0.2851
 1188ETH     HC10689   3.457   5.321   0.688  1.0286 -0.4855 -2.8921
 1188ETH     HC10690   3.300   5.084   0.822 -1.2155  0.8030  1.4511
 1188ETH     HC10691   3.385   5.205   0.913 -1.1911 -0.5079 -0.0059
 1188ETH     HC10692   3.250   5.253   0.814 -1.2639 -0.9673  1.4982
 1189ETH     OH10693   3.748   5.170   2.261  0.4980 -0.2311 -0.2031
 1189ETH     CH10694   3.704   5.071   2.351  0.2197  0.1062  0.0347
 1189ETH     CH10695   3.594   5.128   2.441 -0.2512  0.5978 -0.8448
 1189ETH     HO10696   3.824   5.133   2.218  2.2917  0.6744  2.0463
 1189ETH     HC10697   3.662   4.989   2.292  0.4431 -0.7436  1.0394
 1189ETH     HC10698   3.790   5.043   2.412  0.7111  2.7821  0.6001
 1189ETH     HC10699   3.506   5.142   2.378 -2.1846 -1.0948  1.4144
 1189ETH     HC10700   3.564   5.045   2.505 -1.7801  2.8368  1.3887
 1189ETH     HC10701   3.640   5.215   2.488 -0.1083  0.5987 -0.9858
 1190ETH     OH10702   6.030   5.960   4.112  0.1515 -0.2390 -0.0828
 1190ETH     CH10703   5.919   5.964   4.025 -0.1094  0.0530  0.2652
 1190ETH     CH10704   5.947   6.026   3.889 -0.5670  0.1031  0.1935
 1190ETH     HO10705   5.985   5.930   4.189  0.1913  0.5381  0.2447
 1190ETH     HC10706   5.885   5.861   4.014  1.9042 -0.4606 -1.3766
 1190ETH     HC10707   5.834   6.022   4.061 -1.0287 -0.7990 -0.4818
 1190ETH     HC10708   5.865   6.010   3.819 -1.2020  0.7665  0.7916
 1190ETH     HC10709   5.966   6.133   3.897  1.0335  0.1060 -2.6646
 1190ETH     HC10710   6.040   5.983   3.849 -1.0658 -1.6386  0.8317
 1191ETH     OH10711   4.509   2.682   1.087  0.2121 -0.2960  0.2258
 1191ETH     CH10712   4.593   2.795   1.103  0.0581 -0.2274  0.5622
 1191ETH     CH10713   4.530   2.913   1.176  0.2900  0.4408 -0.3109
 1191ETH     HO10714   4.488   2.667   0.997  1.5223  2.9072 -0.6898
 1191ETH     HC10715   4.692   2.773   1.145  0.1617 -1.4177 -0.2653
 1191ETH     HC10716   4.613   2.812   0.998  0.3495  1.0882  0.8257
 1191ETH     HC10717   4.592   3.002   1.169  0.3511  0.2423 -2.7219
 1191ETH     HC10718   4.431   2.944   1.143  1.2204  1.5387 -2.1184
 1191ETH     HC10719   4.519   2.895   1.283 -1.7417  1.6482 -0.2954
 1192ETH     OH10720   0.824   1.178   1.382  0.0590 -0.6821  0.5760
 1192ETH     CH10721   0.719   1.261   1.337  0.6205 -0.0712  0.3899
 1192ETH     CH10722   0.593   1.175   1.333  1.0577 -0.7085  0.2902
 1192ETH     HO10723   0.861   1.195   1.467  1.7757 -0.3790 -0.2084
 1192ETH     HC10724   0.715   1.352   1.398  0.0960  1.7358 -2.2333
 1192ETH     HC10725   0.741   1.298   1.237  0.6669  0.2534  0.5173
 1192ETH     HC10726   0.565   1.138   1.432 -0.3298 -1.6426 -0.4452
 1192ETH     HC10727   0.505   1.226   1.294  1.9715  0.6551 -0.0181
 1192ETH     HC10728   0.614   1.085   1.275 -0.2786 -1.7543  1.3987
 1193ETH     OH10729   1.781   4.500   3.163  0.4769  0.3237 -0.0252
 1193ETH     CH10730   1.705   4.405   3.091  0.3631  0.3046  0.1193
 1193ETH     CH10731   1.563   4.460   3.093 -0.0220 -0.6921  0.0422
 1193ETH     HO10732   1.831   4.550   3.100  1.0710  0.2541  0.3881
 1193ETH     HC10733   1.744   4.399   2.990 -3.2280 -0.1320 -1.2893
 1193ETH     HC10734   1.706   4.304   3.131 -1.4957  0.5644  0.8482
 1193ETH     HC10735   1.544   4.567   3.082 -0.8582 -0.8276  0.1106
 1193ETH     HC10736   1.500   4.404   3.023  0.3291 -3.4454  1.8583
 1193ETH     HC10737   1.522   4.440   3.192 -1.4015 -0.7282 -0.5153
 1194ETH     OH10738   2.782   2.993   1.406 -0.0903  0.1289 -0.3629
 1194ETH     CH10739   2.891   3.069   1.357  0.5765 -0.3137  0.4061
 1194ETH     CH10740   2.846   3.214   1.337  0.0499 -0.4880  0.3158
 1194ETH     HO10741   2.777   3.020   1.497 -2.0601 -0.2432 -0.3471
 1194ETH     HC10742   2.981   3.069   1.418 -0.9410  1.6848  2.7183
 1194ETH     HC10743   2.907   3.019   1.261 -0.6306 -1.7775  0.9397
 1194ETH     HC10744   2.935   3.273   1.315 -2.0985  2.2341 -1.4144
 1194ETH     HC10745   2.782   3.216   1.249 -0.5326 -1.7644  0.6900
 1194ETH     HC10746   2.792   3.261   1.420 -1.4823 -0.1144 -0.8733
 1195ETH     OH10747   2.763   1.979   0.722 -0.1343  0.2798 -0.4332
 1195ETH     CH10748   2.765   2.118   0.745  0.2866  0.1393  0.3950
 1195ETH     CH10749   2.844   2.196   0.640 -0.2802 -0.0137 -0.1477
 1195ETH     HO10750   2.843   1.947   0.761  0.4557  3.0007  0.7297
 1195ETH     HC10751   2.665   2.161   0.755 -0.0747 -0.4101 -0.7647
 1195ETH     HC10752   2.808   2.131   0.844  2.9985 -1.2188 -0.5431
 1195ETH     HC10753   2.796   2.194   0.542 -1.9505  0.5619  0.6506
 1195ETH     HC10754   2.854   2.300   0.669  0.4690 -0.3303  0.7319
 1195ETH     HC10755   2.948   2.164   0.638 -0.0479  0.5548  2.1557
 1196ETH     OH10756   2.627   4.430   5.376 -0.0947  0.2480 -0.9388
 1196ETH     CH10757   2.603   4.293   5.351 -0.2414  0.0656  0.1610
 1196ETH     CH10758   2.453   4.263   5.338 -0.1351 -0.3715 -0.0738
 1196ETH     HO10759   2.716   4.461   5.386 -0.4336  0.7209  0.7193
 1196ETH     HC10760   2.658   4.261   5.263  0.0883  0.4126  0.2388
 1196ETH     HC10761   2.646   4.227   5.426  1.7695 -0.8903 -1.7624
 1196ETH     HC10762   2.449   4.162   5.298  0.4269 -0.0773 -0.8735
 1196ETH     HC10763   2.399   4.266   5.433 -3.0666  0.1122 -1.7061
 1196ETH     HC10764   2.394   4.331   5.276  0.1203  0.1522  0.2492
 1197ETH     OH10765   2.910   3.675   1.664 -0.4637 -0.5515 -0.1897
 1197ETH     CH10766   2.945   3.542   1.633  0.2238 -0.3472 -0.3010
 1197ETH     CH10767   2.924   3.534   1.481  0.6138 -0.3793 -0.3530
 1197ETH     HO10768   2.906   3.676   1.759  0.1593 -2.1162 -0.1441
 1197ETH     HC10769   3.051   3.532   1.655  0.2409 -1.0990 -0.7306
 1197ETH     HC10770   2.886   3.466   1.684 -0.7467  1.7188  1.7494
 1197ETH     HC10771   2.885   3.434   1.463 -0.0250 -0.0900 -0.5683
 1197ETH     HC10772   2.843   3.600   1.452 -0.5546 -2.7238 -2.5653
 1197ETH     HC10773   3.015   3.551   1.424  1.1611  0.4019  0.7445
 1198ETH     OH10774   4.721   1.502   6.273 -0.6511 -0.4121 -0.0171
 1198ETH     CH10775   4.790   1.534   6.155 -0.9145  0.0506 -0.0467
 1198ETH     CH10776   4.815   1.685   6.146 -0.0226 -0.0674  0.4059
 1198ETH     HO10777   4.776   1.521   6.347 -1.3471 -2.2078  0.9998
 1198ETH     HC10778   4.882   1.476   6.145  0.2957  1.9416 -0.1128
 1198ETH     HC10779   4.731   1.504   6.068  1.8210 -2.0086 -1.2821
 1198ETH     HC10780   4.854   1.695   6.045 -0.7755  0.5802  0.1756
 1198ETH     HC10781   4.730   1.753   6.147 -1.1134 -1.3142 -2.5568
 1198ETH     HC10782   4.893   1.711   6.218 -0.6962 -1.9463  1.8636
 1199ETH     OH10783   3.703   1.223   3.412 -0.0545 -0.3080  0.1009
 1199ETH     CH10784   3.764   1.345   3.378  0.0451 -0.2349  0.5468
 1199ETH     CH10785   3.768   1.380   3.229 -0.5211 -0.2732  0.5216
 1199ETH     HO10786   3.612   1.219   3.387  0.2515 -0.2162 -1.0566
 1199ETH     HC10787   3.733   1.431   3.438 -0.0726  0.6977 -0.8401
 1199ETH     HC10788   3.866   1.328   3.411 -0.0614 -1.8743  0.0352
 1199ETH     HC10789   3.677   1.426   3.190 -1.1916 -1.4505  0.6711
 1199ETH     HC10790   3.848   1.440   3.187 -1.4071  0.0194 -0.7606
 1199ETH     HC10791   3.786   1.287   3.175  1.1000  0.5225 -0.3333
 1200ETH     OH10792   5.183   0.551   2.446 -0.0366 -0.5379  0.3315
 1200ETH     CH10793   5.315   0.532   2.492  0.1613  0.7604  0.3326
 1200ETH     CH10794   5.409   0.532   2.371 -0.7176 -0.4243 -0.3655
 1200ETH     HO10795   5.128   0.547   2.522 -0.4987  2.1621  0.1875
 1200ETH     HC10796   5.340   0.608   2.566  1.7465  0.8633 -0.2751
 1200ETH     HC10797   5.331   0.442   2.551  1.4200  0.6754 -0.1188
 1200ETH     HC10798   5.432   0.631   2.331  1.2290 -1.5960 -2.2187
 1200ETH     HC10799   5.509   0.494   2.395 -1.2797 -1.9499 -0.4113
 1200ETH     HC10800   5.354   0.469   2.302 -0.4319  0.5859 -1.5230
 1201ETH     OH10801   3.454   1.539   0.950 -0.2544 -0.1576 -0.0930
 1201ETH     CH10802   3.336   1.617   0.958 -0.1328  0.0241 -0.0645
 1201ETH     CH10803   3.257   1.597   0.829 -0.0041  0.2430 -0.1779
 1201ETH     HO10804   3.499   1.552   1.032 -3.1364  2.0926  1.2408
 1201ETH     HC10805   3.279   1.593   1.047 -0.2766 -1.7919 -0.6275
 1201ETH     HC10806   3.362   1.721   0.979 -1.2981  0.2223  0.4297
 1201ETH     HC10807   3.211   1.499   0.819  1.7728 -0.6301  0.0386
 1201ETH     HC10808   3.179   1.673   0.817 -1.0534 -0.8548 -0.4075
 1201ETH     HC10809   3.328   1.596   0.747  0.4797 -1.3348  0.2391
 1202ETH     OH10810   3.803   1.150   4.384 -0.1608  0.1549 -0.0699
 1202ETH     CH10811   3.776   1.265   4.308  0.1144  0.2321 -0.0506
 1202ETH     CH10812   3.803   1.384   4.400  0.3696  0.4324 -0.3816
 1202ETH     HO10813   3.816   1.174   4.474  0.2966 -1.0367  0.1961
 1202ETH     HC10814   3.832   1.265   4.214 -0.8428  1.0259 -0.6297
 1202ETH     HC10815   3.673   1.284   4.279  0.7863 -1.3396 -3.7896
 1202ETH     HC10816   3.779   1.473   4.341  1.2706  0.2065 -1.0941
 1202ETH     HC10817   3.743   1.373   4.490  1.5230 -1.4014  0.1759
 1202ETH     HC10818   3.906   1.395   4.433  0.6351 -2.8249  0.0602
 1203ETH     OH10819   2.383   5.451   4.691 -0.2465 -0.2675  0.1573
 1203ETH     CH10820   2.271   5.459   4.777  0.1692 -0.5236  0.7197
 1203ETH     CH10821   2.219   5.318   4.807 -0.2502 -0.4930  0.1463
 1203ETH     HO10822   2.388   5.536   4.650  1.1506  0.0989  1.0851
 1203ETH     HC10823   2.296   5.510   4.870 -1.6313 -3.0281  2.6138
 1203ETH     HC10824   2.191   5.520   4.736  0.8111  1.2145  1.9927
 1203ETH     HC10825   2.234   5.248   4.725  1.9251 -0.4024  0.4350
 1203ETH     HC10826   2.278   5.268   4.884  1.0978 -0.2144 -0.6791
 1203ETH     HC10827   2.115   5.306   4.838 -0.5315  0.0193 -0.5792
 1204ETH     OH10828   4.804   0.244   3.454 -0.1676 -0.3532 -0.0710
 1204ETH     CH10829   4.779   0.365   3.522  0.3302 -0.3182  0.0531
 1204ETH     CH10830   4.869   0.481   3.482  0.0376  0.1536  0.7497
 1204ETH     HO10831   4.729   0.241   3.397 -0.1574  0.3336 -0.1247
 1204ETH     HC10832   4.670   0.375   3.519  0.2082 -1.5663 -0.2286
 1204ETH     HC10833   4.804   0.348   3.627 -1.7014  2.0398  0.9625
 1204ETH     HC10834   4.976   0.456   3.484  0.0063  0.0855  2.4855
 1204ETH     HC10835   4.848   0.502   3.378 -0.7918  1.3270  1.1540
 1204ETH     HC10836   4.853   0.572   3.539  0.4314  0.8288 -0.2077
 1205ETH     OH10837   6.135   0.363   4.470 -0.3862  0.2338 -0.3964
 1205ETH     CH10838   6.102   0.409   4.341  0.6228 -0.4526 -0.9103
 1205ETH     CH10839   6.156   0.548   4.305 -0.4103  0.1554 -0.1410
 1205ETH     HO10840   6.229   0.365   4.476 -0.4341  0.7293  0.1617
 1205ETH     HC10841   6.155   0.347   4.269 -0.7017 -1.3555 -1.1315
 1205ETH     HC10842   5.995   0.406   4.320  0.4117 -1.1626  0.2330
 1205ETH     HC10843   6.134   0.575   4.202 -1.8715  0.9555  0.3599
 1205ETH     HC10844   6.125   0.628   4.373 -0.2038 -0.4644  0.6945
 1205ETH     HC10845   6.264   0.541   4.292 -0.4334 -2.2329  0.7567
 1206ETH     OH10846   5.767   4.843   3.777  0.0341  0.3786  0.3610
 1206ETH     CH10847   5.652   4.924   3.770 -0.2865 -0.0829  0.1764
 1206ETH     CH10848   5.627   4.995   3.903 -0.1886 -0.4527  0.3937
 1206ETH     HO10849   5.843   4.898   3.780  0.2938  0.3471 -3.2222
 1206ETH     HC10850   5.655   4.990   3.683  1.8729 -0.4215 -0.0513
 1206ETH     HC10851   5.564   4.863   3.753  1.8897 -2.8327 -1.6319
 1206ETH     HC10852   5.642   4.943   3.998  2.3044  1.0487  0.8872
 1206ETH     HC10853   5.685   5.087   3.917 -0.9230  0.0734  0.0293
 1206ETH     HC10854   5.528   5.033   3.928  0.4939  0.4333  1.8955
 1207ETH     OH10855   4.877   0.981   1.830  0.2798  0.2422 -0.4848
 1207ETH     CH10856   4.747   0.928   1.822  0.4585 -0.2441 -0.2171
 1207ETH     CH10857   4.685   0.978   1.691  0.1211 -0.2600 -0.0651
 1207ETH     HO10858   4.928   0.937   1.764 -0.2130 -0.3630 -0.4654
 1207ETH     HC10859   4.749   0.819   1.821  0.0057 -0.3090  2.2306
 1207ETH     HC10860   4.691   0.953   1.913 -1.0388 -0.8669 -0.9538
 1207ETH     HC10861   4.704   0.923   1.599 -3.0680 -0.3665 -0.7279
 1207ETH     HC10862   4.579   0.970   1.716  0.1394  0.0195  0.1039
 1207ETH     HC10863   4.691   1.085   1.673  0.2526 -0.2794 -0.1360
 1208ETH     OH10864   2.647   5.541   2.800  0.0209  0.2427  0.1215
 1208ETH     CH10865   2.658   5.530   2.940  0.5291 -0.1841  0.0491
 1208ETH     CH10866   2.538   5.588   3.014  0.3944 -0.3387 -0.0501
 1208ETH     HO10867   2.660   5.631   2.774  2.3290 -0.6019 -1.7695
 1208ETH     HC10868   2.670   5.426   2.970 -0.1072 -0.6340 -1.2191
 1208ETH     HC10869   2.750   5.584   2.966  0.5465  0.1785 -0.7816
 1208ETH     HC10870   2.508   5.689   2.988  0.4034 -0.0806  0.9242
 1208ETH     HC10871   2.446   5.536   2.985  0.5077  0.3645 -1.7343
 1208ETH     HC10872   2.546   5.597   3.122 -0.5191 -0.1950  0.0112
 1209ETH     OH10873   0.143   2.314   1.473 -0.8316  0.1891 -0.6614
 1209ETH     CH10874   0.230   2.204   1.480 -0.6298  0.3877  0.0191
 1209ETH     CH10875   0.358   2.217   1.396 -0.2953  0.6605  0.5703
 1209ETH     HO10876   0.173   2.388   1.523 -2.7457 -0.0690  0.9471
 1209ETH     HC10877   0.265   2.178   1.580  0.2887 -0.2850 -0.4646
 1209ETH     HC10878   0.169   2.114   1.476 -2.4738  1.6618 -1.5110
 1209ETH     HC10879   0.421   2.302   1.419  0.3645  0.9778 -2.2255
 1209ETH     HC10880   0.409   2.120   1.399  1.8307  1.7884  2.5095
 1209ETH     HC10881   0.333   2.242   1.293  0.7404  0.0470  0.1651
 1210ETH     OH10882   3.955   2.946   5.428  0.1723  0.6583  0.2376
 1210ETH     CH10883   3.865   2.853   5.373  0.0668  0.5918  0.5198
 1210ETH     CH10884   3.748   2.930   5.312  0.1461 -0.0283 -0.4441
 1210ETH     HO10885   4.033   2.965   5.377  0.5341 -0.3522  0.4023
 1210ETH     HC10886   3.923   2.792   5.303  1.4144  0.7115  1.5334
 1210ETH     HC10887   3.836   2.787   5.455 -1.0005 -0.6016 -0.7710
 1210ETH     HC10888   3.687   2.974   5.392  2.4747  0.5972  1.0304
 1210ETH     HC10889   3.783   3.006   5.242  1.9971  2.8546  3.3629
 1210ETH     HC10890   3.685   2.856   5.263  2.0065 -2.1688  0.3109
 1211ETH     OH10891   3.652   3.720   5.071  0.3396  0.0558 -1.0979
 1211ETH     CH10892   3.577   3.649   4.976  0.0594  0.0331 -0.8618
 1211ETH     CH10893   3.576   3.501   5.014 -0.0687  0.3041  0.1940
 1211ETH     HO10894   3.656   3.811   5.046 -0.9303  0.7246  0.9425
 1211ETH     HC10895   3.478   3.695   4.968  0.2769  0.8217  0.8772
 1211ETH     HC10896   3.629   3.653   4.880 -0.5996 -2.0303 -1.3193
 1211ETH     HC10897   3.548   3.443   4.926  0.2680  1.5212 -0.7393
 1211ETH     HC10898   3.677   3.470   5.041 -0.7877 -2.1867  0.1457
 1211ETH     HC10899   3.514   3.492   5.103 -1.1460  1.8724 -0.3674
 1212ETH     OH10900   6.278   6.047   0.139  0.4952  0.6674 -0.1584
 1212ETH     CH10901   6.418   6.031   0.145  0.3984 -0.3531 -0.6717
 1212ETH     CH10902   6.484   6.060   0.010  0.3115 -0.0121 -0.6398
 1212ETH     HO10903   6.249   5.973   0.089  0.0070 -0.2939  1.5326
 1212ETH     HC10904   6.461   6.090   0.226 -0.2782 -1.4469  0.5057
 1212ETH     HC10905   6.442   5.929   0.174 -0.6357 -0.5618 -0.5441
 1212ETH     HC10906   6.473   5.985  -0.067  3.7129 -2.0934  0.7936
 1212ETH     HC10907   6.439   6.146  -0.040  0.0319  0.5225  0.5150
 1212ETH     HC10908   6.590   6.081   0.030 -0.4939  4.4725 -0.3862
 1213ETH     OH10909   5.177   4.143   6.202  0.2770 -0.1036  0.6569
 1213ETH     CH10910   5.252   4.257   6.167  0.4186 -0.5229 -0.4349
 1213ETH     CH10911   5.391   4.239   6.227 -0.0916 -0.4344  0.7842
 1213ETH     HO10912   5.224   4.065   6.177 -1.1066 -0.5497 -0.6115
 1213ETH     HC10913   5.260   4.251   6.058 -0.0827  0.0606 -0.5119
 1213ETH     HC10914   5.217   4.354   6.204 -0.2687 -0.0173 -2.3479
 1213ETH     HC10915   5.453   4.161   6.182  0.3532  1.3526 -1.7764
 1213ETH     HC10916   5.454   4.328   6.222 -0.1041 -0.3689  1.6181
 1213ETH     HC10917   5.380   4.208   6.331 -1.2106 -0.7768  0.5702
 1214ETH     OH10918   2.574   3.137   1.818  0.0552 -0.5849 -0.2201
 1214ETH     CH10919   2.482   3.169   1.716 -0.3183  0.2058  0.3584
 1214ETH     CH10920   2.495   3.321   1.714  0.1058  0.1658  0.1617
 1214ETH     HO10921   2.520   3.086   1.876  1.0680  0.8520  2.0432
 1214ETH     HC10922   2.517   3.132   1.620 -1.0192  0.3139  0.0611
 1214ETH     HC10923   2.380   3.135   1.735 -0.1829 -1.1696 -1.2483
 1214ETH     HC10924   2.502   3.362   1.815  3.5180 -1.7463  0.7869
 1214ETH     HC10925   2.584   3.361   1.664  0.3865 -1.2904 -0.5296
 1214ETH     HC10926   2.406   3.358   1.663  0.2069 -1.3350 -1.1533
 1215ETH     OH10927   1.152   3.568   5.793 -0.3332 -0.8628 -0.7853
 1215ETH     CH10928   1.150   3.625   5.665  0.2703  0.3239 -0.2732
 1215ETH     CH10929   1.071   3.756   5.677 -0.3950 -0.2021  1.1767
 1215ETH     HO10930   1.160   3.474   5.792  0.3218 -0.8127 -0.6320
 1215ETH     HC10931   1.256   3.631   5.643  0.6106 -2.2380  0.5244
 1215ETH     HC10932   1.106   3.552   5.597  0.6693 -0.7005  0.5551
 1215ETH     HC10933   1.103   3.817   5.762 -3.4429  2.6749  0.3455
 1215ETH     HC10934   1.080   3.811   5.583 -0.2531  0.7287  1.7320
 1215ETH     HC10935   0.965   3.742   5.699 -0.7997  2.1349  0.8400
 1216ETH     OH10936   0.045   4.537   4.076 -0.1601  0.2138 -0.0734
 1216ETH     CH10937   0.110   4.489   4.191 -0.4588  0.3905  0.1671
 1216ETH     CH10938   0.222   4.580   4.242  0.2387 -0.5965  0.3998
 1216ETH     HO10939   0.035   4.467   4.014  0.7296 -0.6571  0.7535
 1216ETH     HC10940   0.039   4.473   4.273 -0.1763 -0.4974  0.2383
 1216ETH     HC10941   0.156   4.396   4.160 -0.2791  0.2200  0.9357
 1216ETH     HC10942   0.181   4.678   4.262  3.3800  0.5465  1.5524
 1216ETH     HC10943   0.264   4.532   4.330  1.0414 -0.8054 -0.0872
 1216ETH     HC10944   0.301   4.592   4.167  0.9875 -1.1265  1.0881
 1217ETH     OH10945   0.576   3.969   1.833 -0.0252  0.2767  0.2332
 1217ETH     CH10946   0.455   3.933   1.770 -0.1611  0.7865  0.2021
 1217ETH     CH10947   0.499   3.911   1.626  0.1345 -0.4682  0.4837
 1217ETH     HO10948   0.606   4.048   1.791  0.3199 -0.6024 -1.2201
 1217ETH     HC10949   0.416   3.847   1.824 -1.6432  0.9711 -0.5358
 1217ETH     HC10950   0.387   4.019   1.770  2.0674  2.6260  1.4591
 1217ETH     HC10951   0.546   3.999   1.581  0.7009 -0.9241  0.1651
 1217ETH     HC10952   0.556   3.818   1.615  1.2648  0.4624 -2.0144
 1217ETH     HC10953   0.415   3.883   1.562  0.9313  0.2967 -0.9338
 1218ETH     OH10954   0.263   1.341   2.414  0.5844  0.0995  0.0080
 1218ETH     CH10955   0.211   1.276   2.528 -0.1656  0.0199 -0.3752
 1218ETH     CH10956   0.323   1.256   2.630 -0.5291 -0.9626 -0.1576
 1218ETH     HO10957   0.191   1.381   2.367  1.0739  2.2031  1.0303
 1218ETH     HC10958   0.126   1.333   2.565 -0.1518 -0.5763  0.5744
 1218ETH     HC10959   0.170   1.179   2.500 -2.0560  0.6315  0.1945
 1218ETH     HC10960   0.404   1.188   2.603  1.8843  1.0873  1.7113
 1218ETH     HC10961   0.373   1.348   2.661 -2.3775  0.3953 -1.1081
 1218ETH     HC10962   0.288   1.222   2.727 -1.2622 -1.1343 -0.4801
 1219ETH     OH10963   5.348   1.781   0.415  0.0371 -0.0715  0.1022
 1219ETH     CH10964   5.339   1.748   0.552  0.1642  0.0762  0.1459
 1219ETH     CH10965   5.192   1.774   0.587  0.0285  0.4243 -0.6637
 1219ETH     HO10966   5.438   1.762   0.393  0.1718  0.2538  0.3660
 1219ETH     HC10967   5.358   1.641   0.563 -0.5509  0.0259  0.9121
 1219ETH     HC10968   5.408   1.810   0.609 -1.0133  1.6216 -0.0575
 1219ETH     HC10969   5.172   1.877   0.556  0.4934  0.8863  0.5445
 1219ETH     HC10970   5.125   1.703   0.539  2.8289 -2.9767  0.2156
 1219ETH     HC10971   5.180   1.762   0.694 -1.1285 -0.6191 -0.9048
 1220ETH     OH10972   2.410   4.404   1.795  0.1899 -0.0549 -0.6819
 1220ETH     CH10973   2.498   4.505   1.840 -0.4933  0.1614  0.1821
 1220ETH     CH10974   2.437   4.579   1.959  0.1668  0.4454  0.3509
 1220ETH     HO10975   2.422   4.404   1.701 -3.8572  1.7958 -1.3047
 1220ETH     HC10976   2.591   4.458   1.873 -0.4767 -0.1101 -0.2456
 1220ETH     HC10977   2.526   4.572   1.759 -0.3876 -2.1471 -1.7320
 1220ETH     HC10978   2.503   4.663   1.979  0.9144  0.2841 -1.2984
 1220ETH     HC10979   2.341   4.621   1.927  1.8223  1.7882 -3.2385
 1220ETH     HC10980   2.422   4.513   2.044  1.1399  0.9552  0.9222
 1221ETH     OH10981   6.090   0.183   3.610  0.1481 -0.1598 -0.0160
 1221ETH     CH10982   6.228   0.161   3.590  0.3357  1.0345 -0.0361
 1221ETH     CH10983   6.257   0.122   3.445 -0.7744 -0.0553  0.0291
 1221ETH     HO10984   6.075   0.187   3.704 -1.1171 -0.2055 -0.2077
 1221ETH     HC10985   6.278   0.251   3.626 -2.1451  2.6606 -0.5537
 1221ETH     HC10986   6.251   0.080   3.658  0.6231 -1.0353 -2.5412
 1221ETH     HC10987   6.230   0.199   3.373  1.3604 -0.4834 -1.2712
 1221ETH     HC10988   6.361   0.099   3.422 -0.3539  0.7900  1.0413
 1221ETH     HC10989   6.195   0.038   3.414  2.1457 -1.7487 -1.3104
 1222ETH     OH10990   4.829   3.378   4.845 -0.1839 -0.1604 -0.1856
 1222ETH     CH10991   4.770   3.480   4.923  0.1617  0.3719 -0.6137
 1222ETH     CH10992   4.689   3.417   5.036  0.3642  0.1802 -0.5737
 1222ETH     HO10993   4.868   3.422   4.770 -0.7335 -0.4471 -0.6403
 1222ETH     HC10994   4.853   3.548   4.945  1.0736  0.1232 -3.0882
 1222ETH     HC10995   4.701   3.538   4.862 -1.0108 -1.8268 -1.4457
 1222ETH     HC10996   4.642   3.489   5.103 -0.8685 -0.0081 -1.2156
 1222ETH     HC10997   4.619   3.336   5.015  2.5870 -2.5416  2.1910
 1222ETH     HC10998   4.764   3.368   5.098 -1.8281 -0.0904  1.9480
 1223ETH     OH10999   2.133   4.728   3.994  0.0422 -0.1556  0.0965
 1223ETH     CH11000   2.118   4.588   3.999  0.2955 -0.1807  0.1309
 1223ETH     CH11001   2.250   4.529   3.950  0.3437 -0.0890  0.1512
 1223ETH     HO11002   2.196   4.754   4.059 -0.7635  1.8300  0.1067
 1223ETH     HC11003   2.094   4.551   4.099 -0.2830  1.4208  0.5975
 1223ETH     HC11004   2.028   4.558   3.945 -0.9500  1.1943  1.3957
 1223ETH     HC11005   2.274   4.568   3.851 -2.5550 -0.6383 -0.7894
 1223ETH     HC11006   2.338   4.557   4.008  2.2178  0.0225 -2.6051
 1223ETH     HC11007   2.238   4.423   3.931 -1.2608  0.4135 -1.8519
 1224ETH     OH11008   4.296   4.781   3.965 -0.1566  0.1549  0.2399
 1224ETH     CH11009   4.428   4.766   3.918 -0.0926  0.1402  0.4269
 1224ETH     CH11010   4.503   4.899   3.917  0.0066  0.0846  0.3748
 1224ETH     HO11011   4.297   4.766   4.059  1.0302 -0.7716  0.0890
 1224ETH     HC11012   4.469   4.697   3.992 -0.8640  0.9429  1.6293
 1224ETH     HC11013   4.419   4.725   3.818 -2.8443  0.3985  0.5296
 1224ETH     HC11014   4.596   4.888   3.863  0.5755  0.4567  1.2681
 1224ETH     HC11015   4.448   4.976   3.862 -2.8352 -1.6883  0.6219
 1224ETH     HC11016   4.516   4.941   4.017  0.2436 -2.2780  1.3522
 1225ETH     OH11017   3.438   1.234   2.359  0.9734  0.0592 -0.0116
 1225ETH     CH11018   3.470   1.260   2.224 -0.1674  0.2593 -0.2488
 1225ETH     CH11019   3.387   1.172   2.130  0.1228 -0.1881 -0.0892
 1225ETH     HO11020   3.516   1.225   2.412  1.1002  0.3930 -0.1385
 1225ETH     HC11021   3.474   1.363   2.189  0.1113  0.0375 -0.8835
 1225ETH     HC11022   3.573   1.226   2.215 -0.3861 -0.0868 -1.5807
 1225ETH     HC11023   3.438   1.173   2.033 -0.4667 -1.0949 -0.4127
 1225ETH     HC11024   3.386   1.069   2.166 -0.6767 -0.3348 -0.5228
 1225ETH     HC11025   3.287   1.214   2.122  0.4768  0.1120 -4.3857
 1226ETH     OH11026   2.105   0.933   0.586  0.4030  0.0450  0.4686
 1226ETH     CH11027   2.151   0.811   0.533  0.1133  0.3654 -0.5247
 1226ETH     CH11028   2.089   0.797   0.394  0.1000  0.6062 -0.5419
 1226ETH     HO11029   2.137   0.935   0.675 -0.1904 -2.1018  0.7604
 1226ETH     HC11030   2.258   0.827   0.526  0.5151 -1.7336  0.4209
 1226ETH     HC11031   2.135   0.719   0.589  2.1913  0.4345  0.2017
 1226ETH     HC11032   2.135   0.855   0.314 -0.7611  1.9766 -0.0682
 1226ETH     HC11033   2.092   0.694   0.359  0.8405  0.7831 -1.0054
 1226ETH     HC11034   1.986   0.834   0.401  0.0433  0.0766  1.5583
 1227ETH     OH11035   6.103   1.665   0.544  0.2309 -0.4984 -0.1546
 1227ETH     CH11036   6.067   1.790   0.489 -0.4730 -0.4539  0.3931
 1227ETH     CH11037   6.003   1.876   0.597 -0.4356  0.0083  0.0444
 1227ETH     HO11038   6.179   1.685   0.596 -0.7186  2.7525  0.0823
 1227ETH     HC11039   6.156   1.837   0.447 -0.4133  0.0408  1.0642
 1227ETH     HC11040   5.994   1.785   0.409  0.8671 -0.9991 -0.8274
 1227ETH     HC11041   6.059   1.893   0.689 -0.4254  1.3518 -0.1882
 1227ETH     HC11042   5.976   1.977   0.563 -0.7714 -1.0801 -3.0558
 1227ETH     HC11043   5.905   1.834   0.621  0.1031 -0.6269  1.1161
 1228ETH     OH11044   6.138   2.510   4.102 -0.1110 -0.0267  0.0827
 1228ETH     CH11045   6.247   2.421   4.100 -0.5136 -0.5146 -0.2185
 1228ETH     CH11046   6.327   2.445   3.972  0.2733  0.5257  0.4596
 1228ETH     HO11047   6.106   2.498   4.190 -1.2128  1.2462 -0.1176
 1228ETH     HC11048   6.317   2.444   4.181 -0.3986 -0.5591 -0.3062
 1228ETH     HC11049   6.211   2.319   4.111  0.9994 -0.7351  3.5777
 1228ETH     HC11050   6.405   2.370   3.965 -1.9046 -1.7666  0.0024
 1228ETH     HC11051   6.267   2.427   3.883  0.5014 -1.3645  0.6725
 1228ETH     HC11052   6.393   2.532   3.974  0.3095  0.5252 -0.5325
 1229ETH     OH11053   6.039   1.628   4.569  0.2462 -0.3369 -0.6411
 1229ETH     CH11054   6.075   1.759   4.609  0.7107 -0.6244 -0.0943
 1229ETH     CH11055   5.958   1.850   4.570  0.7195 -0.5967 -0.0566
 1229ETH     HO11056   6.027   1.615   4.477  0.4855 -1.2761 -0.5438
 1229ETH     HC11057   6.101   1.780   4.712  0.3354 -0.0958 -0.1012
 1229ETH     HC11058   6.168   1.779   4.556  1.5842 -1.1269  1.2400
 1229ETH     HC11059   6.002   1.950   4.571  0.3020 -0.4172  2.7479
 1229ETH     HC11060   5.925   1.828   4.468 -2.3507 -0.2258  0.8147
 1229ETH     HC11061   5.875   1.843   4.639 -1.0935  0.8003 -2.0300
 1230ETH     OH11062   1.522   3.326   4.085 -0.0697  0.1242 -0.8155
 1230ETH     CH11063   1.415   3.240   4.053  0.1184 -0.5039  0.2144
 1230ETH     CH11064   1.334   3.199   4.176 -0.5821 -0.0985 -0.1092
 1230ETH     HO11065   1.577   3.311   4.010  0.5941  0.1994 -0.3457
 1230ETH     HC11066   1.356   3.301   3.985  1.4954  0.9844  0.3229
 1230ETH     HC11067   1.452   3.153   3.998  2.4554 -1.8581  3.7881
 1230ETH     HC11068   1.337   3.276   4.253  2.2250  1.3012 -1.5288
 1230ETH     HC11069   1.236   3.163   4.146 -0.5861 -1.4135  1.4370
 1230ETH     HC11070   1.377   3.111   4.224  1.6260  0.3053 -1.2613
 1231ETH     OH11071   3.579   2.742   0.084  0.4754  0.1310 -0.1303
 1231ETH     CH11072   3.461   2.806   0.040 -0.2734 -0.8728  0.3970
 1231ETH     CH11073   3.359   2.789   0.153 -0.1686  0.0462  0.6338
 1231ETH     HO11074   3.594   2.671   0.024 -0.7149  0.1679 -0.4881
 1231ETH     HC11075   3.488   2.911   0.028 -0.4928 -0.7071  1.3006
 1231ETH     HC11076   3.420   2.764  -0.051  1.6659 -0.8418 -0.5264
 1231ETH     HC11077   3.282   2.858   0.121 -0.0371 -0.1540 -0.1196
 1231ETH     HC11078   3.313   2.691   0.162 -2.1749  0.9719  0.5746
 1231ETH     HC11079   3.404   2.822   0.247  1.1450 -2.1565  0.8305
 1232ETH     OH11080   5.076   0.588   2.695 -0.4786 -0.3893 -0.1253
 1232ETH     CH11081   5.014   0.712   2.718 -0.0469 -0.1796 -0.0903
 1232ETH     CH11082   4.960   0.771   2.588  0.5913 -0.1638 -0.3538
 1232ETH     HO11083   5.068   0.540   2.776 -1.5170 -1.2085 -0.6959
 1232ETH     HC11084   4.938   0.699   2.794  0.6731  1.0601  0.8705
 1232ETH     HC11085   5.083   0.783   2.766 -0.8745  1.9685 -1.9979
 1232ETH     HC11086   4.949   0.877   2.607 -0.9889  0.0227 -2.0951
 1232ETH     HC11087   5.025   0.757   2.502  0.5810  1.4572 -0.6387
 1232ETH     HC11088   4.860   0.737   2.559  0.3721 -0.5348  0.7865
 1233ETH     OH11089   5.642   5.692   0.177 -0.5802  0.1324  0.0253
 1233ETH     CH11090   5.718   5.611   0.090  0.6587  0.8358  0.4384
 1233ETH     CH11091   5.754   5.482   0.164 -0.1710  0.4301  0.1364
 1233ETH     HO11092   5.703   5.696   0.249 -0.6349  0.5955  0.0505
 1233ETH     HC11093   5.666   5.587  -0.003  0.8681 -1.6047  0.9011
 1233ETH     HC11094   5.808   5.669   0.071  0.1966  1.0615 -1.1022
 1233ETH     HC11095   5.684   5.398   0.169  0.8921 -0.4475  0.5738
 1233ETH     HC11096   5.842   5.434   0.122  0.6147  1.4903  0.5553
 1233ETH     HC11097   5.786   5.500   0.267 -1.7897  0.4638  0.6492
 1234ETH     OH11098   4.527   2.555   6.022 -0.8453  0.2626  0.4773
 1234ETH     CH11099   4.583   2.597   6.144  0.1219  0.0309  0.1206
 1234ETH     CH11100   4.734   2.610   6.124  0.1746  0.1840  0.5997
 1234ETH     HO11101   4.437   2.533   6.041 -0.4291 -1.5849  0.4408
 1234ETH     HC11102   4.530   2.687   6.177  1.8743  0.6294  1.3605
 1234ETH     HC11103   4.563   2.516   6.215  1.8516  0.9604  1.6904
 1234ETH     HC11104   4.772   2.512   6.094  0.2434  0.5807 -0.6351
 1234ETH     HC11105   4.757   2.690   6.054 -1.1608 -0.4521 -0.6021
 1234ETH     HC11106   4.766   2.649   6.220  1.6969  1.4198 -0.3820
 1235ETH     OH11107   5.833   4.844   1.576 -0.5400 -0.1367 -0.6290
 1235ETH     CH11108   5.952   4.799   1.637 -0.3657  0.8557 -0.2307
 1235ETH     CH11109   6.070   4.851   1.554  0.0082  1.0116  0.3919
 1235ETH     HO11110   5.774   4.781   1.615 -0.4639 -0.4102 -0.9589
 1235ETH     HC11111   5.950   4.823   1.743  0.0463 -0.9666  0.2106
 1235ETH     HC11112   5.965   4.691   1.637  0.3792  0.9446  0.7463
 1235ETH     HC11113   6.086   4.797   1.460 -0.5910 -0.0908  0.9022
 1235ETH     HC11114   6.060   4.959   1.544  0.8735  1.0040 -0.6736
 1235ETH     HC11115   6.159   4.825   1.610  1.1967  0.2134 -1.7907
 1236ETH     OH11116   4.047   5.622   2.312  0.3829  0.3146 -0.2327
 1236ETH     CH11117   4.042   5.502   2.239 -0.0854  0.0079  0.3078
 1236ETH     CH11118   4.095   5.383   2.319 -0.4592 -0.1258  0.3581
 1236ETH     HO11119   4.072   5.694   2.256 -0.0134 -1.4439 -2.7652
 1236ETH     HC11120   3.943   5.477   2.199 -1.5390  1.5931  2.7729
 1236ETH     HC11121   4.093   5.514   2.144  0.5448  0.7036  0.7385
 1236ETH     HC11122   4.096   5.299   2.249 -0.6409 -1.2720  1.7013
 1236ETH     HC11123   4.194   5.390   2.363 -1.6414  1.0676  2.9993
 1236ETH     HC11124   4.024   5.359   2.399  0.3293  0.0028  1.1006
 1237ETH     OH11125   4.033   2.125   3.335 -0.0529 -0.2995  0.1776
 1237ETH     CH11126   4.158   2.076   3.292  0.1024  0.7442 -0.5745
 1237ETH     CH11127   4.249   2.057   3.413 -0.8599  0.0143  0.0367
 1237ETH     HO11128   3.971   2.121   3.263  1.2626 -1.0216 -0.9433
 1237ETH     HC11129   4.147   1.983   3.236 -0.9857  0.9232 -0.6640
 1237ETH     HC11130   4.202   2.154   3.229  0.1131 -0.8825 -2.6465
 1237ETH     HC11131   4.302   2.150   3.436 -0.3337  0.0317 -1.2610
 1237ETH     HC11132   4.190   2.029   3.500 -3.3536  3.5904 -0.3577
 1237ETH     HC11133   4.330   1.985   3.403 -0.0321  0.8838  0.3594
 1238ETH     OH11134   3.841   0.395   1.028  0.3009  0.3753 -0.2200
 1238ETH     CH11135   3.933   0.289   1.047 -0.5088 -0.3125 -0.1222
 1238ETH     CH11136   3.958   0.259   1.194  0.2744 -0.2891 -0.2515
 1238ETH     HO11137   3.870   0.446   0.954  1.0030 -0.0248 -0.2225
 1238ETH     HC11138   3.900   0.194   1.006  3.2879 -1.5420 -0.4739
 1238ETH     HC11139   4.019   0.321   0.988 -0.6546 -3.1132 -1.9151
 1238ETH     HC11140   3.873   0.287   1.257  1.2146  0.1190  0.8624
 1238ETH     HC11141   3.966   0.151   1.209  0.2707 -0.2697 -0.1043
 1238ETH     HC11142   4.049   0.300   1.238  0.2577 -0.6389  0.1186
 1239ETH     OH11143   1.645   3.384   4.465 -0.2347  0.1705 -0.2955
 1239ETH     CH11144   1.674   3.287   4.366 -0.8200 -0.2192 -0.0903
 1239ETH     CH11145   1.798   3.211   4.414 -0.7313  0.0969  0.1866
 1239ETH     HO11146   1.569   3.431   4.435 -0.8974  0.2004  1.3989
 1239ETH     HC11147   1.583   3.230   4.345 -1.7737  1.3938 -0.4198
 1239ETH     HC11148   1.701   3.331   4.270 -1.3409  1.5119  0.5326
 1239ETH     HC11149   1.778   3.181   4.517 -3.1021 -0.1145 -0.2925
 1239ETH     HC11150   1.805   3.112   4.368  0.5729  0.8576 -1.2998
 1239ETH     HC11151   1.889   3.270   4.404 -0.8402  0.1811 -0.3351
 1240ETH     OH11152   5.805   0.548   0.852 -0.0611  0.1449  0.1497
 1240ETH     CH11153   5.869   0.651   0.780 -0.0330  0.1231  0.1435
 1240ETH     CH11154   6.004   0.689   0.842 -0.0528 -0.2471  0.4218
 1240ETH     HO11155   5.741   0.498   0.804 -0.2852 -0.5661  1.1639
 1240ETH     HC11156   5.890   0.628   0.676 -0.0828 -1.6758  0.5255
 1240ETH     HC11157   5.802   0.737   0.778 -0.2608 -0.0798 -1.4420
 1240ETH     HC11158   5.994   0.700   0.950  1.8333 -0.9842  0.6808
 1240ETH     HC11159   6.079   0.611   0.838 -1.3077 -1.5713  2.0536
 1240ETH     HC11160   6.045   0.783   0.806  2.5489 -1.2982  0.5887
 1241ETH     OH11161   0.105   5.732   6.107  0.1775  0.1040  0.5886
 1241ETH     CH11162   0.213   5.673   6.038  0.1506  0.3196  0.3604
 1241ETH     CH11163   0.275   5.790   5.961  0.1140  0.1890  0.1331
 1241ETH     HO11164   0.052   5.655   6.123  2.0718 -1.5755 -1.0244
 1241ETH     HC11165   0.286   5.628   6.106  0.6207  0.4364 -0.0663
 1241ETH     HC11166   0.176   5.598   5.969 -0.8102  2.8694 -1.9852
 1241ETH     HC11167   0.304   5.863   6.036  2.6330 -1.1375  0.5130
 1241ETH     HC11168   0.367   5.761   5.911  0.6161 -1.0656  1.7336
 1241ETH     HC11169   0.205   5.841   5.895  0.9791  1.8935  0.5095
 1242ETH     OH11170   2.025   5.066   1.363  0.0294 -0.1076  0.2503
 1242ETH     CH11171   2.125   5.086   1.460  0.3950  0.2947 -0.2117
 1242ETH     CH11172   2.145   5.235   1.489  0.5763  0.0464  0.9606
 1242ETH     HO11173   2.062   5.092   1.281  0.0630 -0.7655  0.0521
 1242ETH     HC11174   2.100   5.027   1.548  1.4369 -1.3505 -0.9959
 1242ETH     HC11175   2.223   5.044   1.439 -0.8164 -1.0637 -3.3778
 1242ETH     HC11176   2.060   5.278   1.541  0.2074  0.0630  0.3407
 1242ETH     HC11177   2.223   5.253   1.564 -1.0904  1.5737  2.3832
 1242ETH     HC11178   2.152   5.290   1.395  0.3173  1.1859  1.5891
 1243ETH     OH11179   3.121   0.515   2.235 -0.0460  0.3619 -0.0804
 1243ETH     CH11180   3.094   0.571   2.108 -0.3965 -0.1444 -0.2331
 1243ETH     CH11181   3.160   0.488   1.998  0.0077 -0.5961  0.3425
 1243ETH     HO11182   3.049   0.548   2.288 -0.4483 -0.9328  0.1920
 1243ETH     HC11183   2.986   0.569   2.094 -0.2157 -2.1912 -1.4896
 1243ETH     HC11184   3.129   0.675   2.105 -1.1147  0.0698 -1.0800
 1243ETH     HC11185   3.267   0.495   2.017 -0.1686  2.3150  0.5222
 1243ETH     HC11186   3.135   0.382   2.009 -2.7728 -0.1381 -0.9982
 1243ETH     HC11187   3.138   0.531   1.900  0.6567  2.1809  1.3841
 1244ETH     OH11188   1.027   5.396   2.038 -0.1170  0.4459 -0.7000
 1244ETH     CH11189   1.038   5.533   2.067 -0.3884  0.4089 -0.4157
 1244ETH     CH11190   1.084   5.616   1.946  0.0627  0.4872 -0.1901
 1244ETH     HO11191   0.937   5.371   2.054 -0.3243  1.7484  0.2043
 1244ETH     HC11192   0.939   5.564   2.103  0.0757  1.8543 -0.3280
 1244ETH     HC11193   1.095   5.552   2.157 -2.8679 -1.8702  1.7226
 1244ETH     HC11194   1.019   5.591   1.862 -0.1512  0.9192 -0.1544
 1244ETH     HC11195   1.102   5.723   1.957 -0.6764  0.8134 -2.0781
 1244ETH     HC11196   1.181   5.580   1.913 -0.1911  0.4344 -0.8924
 1245ETH     OH11197   0.013   4.305   3.897  0.3377 -0.5102  0.1433
 1245ETH     CH11198   0.115   4.253   3.815  0.3567 -0.4118  0.1051
 1245ETH     CH11199   0.210   4.369   3.784 -0.0945 -0.1786 -0.4186
 1245ETH     HO11200  -0.070   4.299   3.852  0.2464  0.6004  0.1447
 1245ETH     HC11201   0.172   4.169   3.855  1.3037  0.3694  0.4421
 1245ETH     HC11202   0.072   4.221   3.720 -1.0221  1.7262 -0.0146
 1245ETH     HC11203   0.228   4.421   3.878 -1.3603 -2.1920  0.9722
 1245ETH     HC11204   0.300   4.341   3.729  0.7155  0.1486  0.7037
 1245ETH     HC11205   0.168   4.449   3.724  0.6409  2.3596  2.3293
 1246ETH     OH11206   3.723   3.766   2.222 -0.1305 -0.1657 -0.1890
 1246ETH     CH11207   3.602   3.817   2.274  0.1132  0.3922 -0.1680
 1246ETH     CH11208   3.609   3.967   2.248  0.6135  0.2400 -0.9055
 1246ETH     HO11209   3.799   3.807   2.258  0.7273 -0.5836 -1.4863
 1246ETH     HC11210   3.515   3.774   2.225  0.3581  1.0488 -1.1901
 1246ETH     HC11211   3.606   3.809   2.383  2.2340  0.6367 -0.2002
 1246ETH     HC11212   3.621   3.993   2.142  1.5022 -0.1191 -0.8948
 1246ETH     HC11213   3.518   4.019   2.278  0.4781 -1.2015  1.2266
 1246ETH     HC11214   3.692   3.999   2.311 -0.6668  2.6762 -0.4047
 1247ETH     OH11215   4.608   4.909   4.394  0.1592  0.0356 -0.1872
 1247ETH     CH11216   4.583   4.885   4.531 -0.1931 -0.6182 -0.3616
 1247ETH     CH11217   4.436   4.897   4.570  0.0085  0.0371  0.2220
 1247ETH     HO11218   4.694   4.881   4.367  1.3146  3.5733 -0.4254
 1247ETH     HC11219   4.621   4.786   4.558 -0.0596 -0.3769  0.3557
 1247ETH     HC11220   4.644   4.945   4.599 -2.8088  0.5253  1.0166
 1247ETH     HC11221   4.407   5.002   4.571  0.5504  0.2031 -1.0303
 1247ETH     HC11222   4.366   4.851   4.500  0.0934  0.0986  0.0950
 1247ETH     HC11223   4.409   4.856   4.667 -3.4568 -2.4680 -1.6833
 1248ETH     OH11224   3.144   4.180   4.641 -0.1950  0.1324 -0.2098
 1248ETH     CH11225   3.117   4.293   4.720 -0.1198 -0.2117  0.3090
 1248ETH     CH11226   3.241   4.376   4.751 -0.0990 -0.2742  0.3982
 1248ETH     HO11227   3.062   4.159   4.600  0.3400  1.3007 -1.9251
 1248ETH     HC11228   3.050   4.356   4.661  1.1907  0.5925 -0.3341
 1248ETH     HC11229   3.063   4.256   4.808 -0.5625  3.1487  1.5486
 1248ETH     HC11230   3.209   4.443   4.830 -1.0015  0.7020 -0.7818
 1248ETH     HC11231   3.321   4.320   4.801  0.0869  0.4424  0.9020
 1248ETH     HC11232   3.279   4.435   4.668  0.2787  0.1218  0.8507
 1249ETH     OH11233   0.101   1.477   1.147  0.0439 -0.5039  0.6026
 1249ETH     CH11234   0.029   1.377   1.216 -0.2528 -0.3945  0.4560
 1249ETH     CH11235  -0.038   1.295   1.106 -0.4579 -0.6398  0.7641
 1249ETH     HO11236   0.178   1.495   1.199  0.5823  2.2235 -1.0103
 1249ETH     HC11237   0.097   1.306   1.263 -0.3457 -1.2249 -0.6327
 1249ETH     HC11238  -0.051   1.416   1.278 -0.3057  1.8894 -0.9803
 1249ETH     HC11239  -0.107   1.360   1.051  1.2154  0.6231  0.1169
 1249ETH     HC11240   0.034   1.253   1.036  1.3067  1.8841  0.9833
 1249ETH     HC11241  -0.091   1.209   1.146  0.4263 -2.3716 -1.6874
 1250ETH     OH11242   2.037   6.272   2.491 -0.4088 -0.4513  0.1370
 1250ETH     CH11243   2.041   6.381   2.580 -0.1108 -0.1599 -0.2341
 1250ETH     CH11244   1.936   6.362   2.689 -0.0744 -0.4643 -0.2515
 1250ETH     HO11245   2.069   6.203   2.546  1.2867  0.5358  0.4348
 1250ETH     HC11246   2.140   6.375   2.627 -0.1729  0.2711 -0.0389
 1250ETH     HC11247   2.030   6.477   2.529 -3.4798 -0.6499 -0.5364
 1250ETH     HC11248   1.939   6.429   2.776 -0.0249 -0.7282 -0.0506
 1250ETH     HC11249   1.834   6.373   2.653  0.3832  0.9405 -1.1944
 1250ETH     HC11250   1.947   6.258   2.720 -0.7341 -0.7361 -0.9314
 1251ETH     OH11251   4.475   1.559   0.927 -0.3394 -0.3636  0.4554
 1251ETH     CH11252   4.548   1.538   0.809 -0.5978 -0.0095  0.2329
 1251ETH     CH11253   4.459   1.562   0.687  0.1257  0.3228 -0.2328
 1251ETH     HO11254   4.535   1.597   0.989 -2.1756  3.5236 -0.0186
 1251ETH     HC11255   4.630   1.609   0.816 -2.7274  2.5034  0.4721
 1251ETH     HC11256   4.579   1.434   0.804 -2.2744 -0.5186  0.3114
 1251ETH     HC11257   4.359   1.521   0.698 -0.5524  2.1004  0.3968
 1251ETH     HC11258   4.446   1.670   0.676 -1.5228  0.1990  0.4576
 1251ETH     HC11259   4.503   1.511   0.601  0.8976 -1.4373  1.1709
 1252ETH     OH11260   5.133   0.503   1.740  0.3141 -0.6533  0.2462
 1252ETH     CH11261   5.042   0.547   1.839  0.0208 -0.4693 -0.1033
 1252ETH     CH11262   4.905   0.482   1.821  0.1372 -0.7689  0.0799
 1252ETH     HO11263   5.206   0.468   1.789  0.9042 -0.9514 -0.8466
 1252ETH     HC11264   5.089   0.503   1.927  0.6690  0.0271 -0.1964
 1252ETH     HC11265   5.045   0.654   1.860  0.7748  0.0621 -2.7803
 1252ETH     HC11266   4.929   0.377   1.805  2.0202 -0.3391 -0.0534
 1252ETH     HC11267   4.829   0.485   1.898 -1.7331 -2.6987 -1.6267
 1252ETH     HC11268   4.861   0.509   1.725  1.8331  0.2311 -0.4383
 1253ETH     OH11269   0.617   5.621   5.186  0.1823 -0.0590  0.5827
 1253ETH     CH11270   0.746   5.609   5.241  0.4941 -0.2628 -0.1878
 1253ETH     CH11271   0.775   5.737   5.319  0.5760 -0.1938 -0.3316
 1253ETH     HO11272   0.622   5.680   5.111  0.2073 -0.2002  0.4731
 1253ETH     HC11273   0.761   5.513   5.290  0.6113  0.5972  1.4943
 1253ETH     HC11274   0.808   5.601   5.152  2.1352 -0.1332  0.9289
 1253ETH     HC11275   0.763   5.816   5.245  2.4482 -0.8930 -1.4139
 1253ETH     HC11276   0.702   5.752   5.399  0.0011 -1.0089 -0.6888
 1253ETH     HC11277   0.873   5.727   5.365 -0.0984 -2.4032  0.7108
 1254ETH     OH11278   3.276   2.079   0.448 -0.4182 -0.4687  0.0174
 1254ETH     CH11279   3.198   2.192   0.414  0.4180  0.0922 -0.0601
 1254ETH     CH11280   3.199   2.309   0.512  0.7875 -0.5427  0.7080
 1254ETH     HO11281   3.223   2.032   0.510 -1.4513 -0.7281 -1.0454
 1254ETH     HC11282   3.230   2.224   0.315  0.5999 -1.0437 -0.3773
 1254ETH     HC11283   3.096   2.159   0.395  0.8224 -0.3513 -1.5602
 1254ETH     HC11284   3.165   2.271   0.608 -0.2888  0.9739  0.9590
 1254ETH     HC11285   3.299   2.351   0.520  1.2537 -1.3233 -0.7605
 1254ETH     HC11286   3.125   2.382   0.478 -0.1459 -0.8909  1.9746
 1255ETH     OH11287   0.512   3.793   5.313 -0.1632  0.0084  0.0569
 1255ETH     CH11288   0.506   3.839   5.446  0.0856 -0.1383  0.1196
 1255ETH     CH11289   0.635   3.912   5.483  0.0988 -0.4852  0.7632
 1255ETH     HO11290   0.425   3.768   5.287 -0.3398  2.6168 -2.0852
 1255ETH     HC11291   0.419   3.905   5.446  0.6520  0.6107  0.3880
 1255ETH     HC11292   0.495   3.752   5.511 -0.5976  1.2492  1.8858
 1255ETH     HC11293   0.635   3.961   5.581  2.1968  2.4094 -0.6070
 1255ETH     HC11294   0.711   3.837   5.501 -1.3023 -1.7434  1.5817
 1255ETH     HC11295   0.664   3.987   5.410 -1.1863  0.0409  0.7691
 1256ETH     OH11296   0.284   4.547   5.859  0.4426  0.3926 -0.2264
 1256ETH     CH11297   0.327   4.434   5.787 -0.2835 -0.0320  0.0028
 1256ETH     CH11298   0.220   4.405   5.682  0.2530  0.0131 -0.5584
 1256ETH     HO11299   0.350   4.559   5.925  0.4318 -1.2984  0.0928
 1256ETH     HC11300   0.414   4.459   5.726 -2.0415  0.1701 -2.4953
 1256ETH     HC11301   0.352   4.361   5.864 -1.4309 -2.3877 -1.7972
 1256ETH     HC11302   0.120   4.383   5.720 -1.1389  0.1507 -3.9046
 1256ETH     HC11303   0.200   4.495   5.625  2.4502  1.3952  0.7922
 1256ETH     HC11304   0.249   4.318   5.623 -0.3956 -0.4314 -0.2366
 1257ETH     OH11305   1.814   4.108   0.275 -0.2952  0.1023 -0.0849
 1257ETH     CH11306   1.816   4.006   0.373  0.2157 -0.1341 -0.3369
 1257ETH     CH11307   1.788   3.870   0.308 -0.0122  0.0010 -0.5222
 1257ETH     HO11308   1.843   4.192   0.308  0.8286 -0.2328 -0.1836
 1257ETH     HC11309   1.909   4.004   0.429  0.4318  0.8164 -0.6565
 1257ETH     HC11310   1.732   4.033   0.438 -0.3472  0.5525 -1.3238
 1257ETH     HC11311   1.874   3.828   0.257  0.7954 -1.1893  1.7468
 1257ETH     HC11312   1.773   3.797   0.388 -3.5475  0.2895 -0.8512
 1257ETH     HC11313   1.698   3.874   0.247 -1.4750 -0.9802  1.4985
 1258ETH     OH11314   2.235   4.115   2.648 -0.1165 -0.3801  0.0621
 1258ETH     CH11315   2.374   4.102   2.665  0.0003  0.0126 -0.5697
 1258ETH     CH11316   2.443   4.014   2.561  0.0794 -0.1979 -0.3400
 1258ETH     HO11317   2.221   4.104   2.555  0.5743 -3.5416  0.2896
 1258ETH     HC11318   2.409   4.205   2.654  0.3110 -0.0025  0.2455
 1258ETH     HC11319   2.392   4.071   2.768 -0.6869  0.0571 -0.4314
 1258ETH     HC11320   2.433   3.906   2.569  2.5423 -0.3970  0.5692
 1258ETH     HC11321   2.413   4.048   2.461  2.9809  1.3325 -0.7391
 1258ETH     HC11322   2.550   4.036   2.554  0.2072 -1.0125 -1.0009
 1259ETH     OH11323   0.460   6.175   3.195 -0.2419 -0.0763 -0.1247
 1259ETH     CH11324   0.542   6.272   3.257 -0.2023 -0.1715 -0.0306
 1259ETH     CH11325   0.452   6.385   3.306  0.1241  0.0829 -0.0186
 1259ETH     HO11326   0.509   6.099   3.169  1.1440 -0.0718  2.3330
 1259ETH     HC11327   0.609   6.230   3.333 -0.2963  0.7349  0.5564
 1259ETH     HC11328   0.608   6.311   3.179  0.4629 -0.3900  0.4213
 1259ETH     HC11329   0.401   6.449   3.234  0.1606  3.1993  2.6049
 1259ETH     HC11330   0.377   6.353   3.378  0.6370  0.3557  0.6467
 1259ETH     HC11331   0.524   6.445   3.362  0.0686  1.1293 -1.0599
 1260ETH     OH11332   2.699   0.428   4.715 -0.3003  0.2464 -0.1616
 1260ETH     CH11333   2.704   0.313   4.797 -0.2293  0.0957 -0.3771
 1260ETH     CH11334   2.837   0.316   4.873 -0.7673  0.3021  0.5471
 1260ETH     HO11335   2.774   0.421   4.658 -1.4206  0.6295 -1.7006
 1260ETH     HC11336   2.623   0.314   4.869 -0.0728  0.2712 -0.2059
 1260ETH     HC11337   2.693   0.229   4.728  0.8331 -0.9921  0.7603
 1260ETH     HC11338   2.917   0.334   4.802 -0.1143 -1.8540  0.7037
 1260ETH     HC11339   2.838   0.403   4.940  1.4779  1.1399 -0.5385
 1260ETH     HC11340   2.864   0.230   4.934 -0.3833  0.5484  0.7225
 1261ETH     OH11341   0.078   0.379   2.924  0.4369  0.2552 -0.0266
 1261ETH     CH11342   0.183   0.322   3.000  0.2748  0.0696  0.0577
 1261ETH     CH11343   0.189   0.385   3.140  0.0498  0.0408  0.0809
 1261ETH     HO11344  -0.004   0.351   2.962 -0.2298  0.6264 -1.1745
 1261ETH     HC11345   0.173   0.214   2.995 -0.2945  0.0460  1.4034
 1261ETH     HC11346   0.279   0.361   2.967  0.4885  1.5966  2.3160
 1261ETH     HC11347   0.210   0.491   3.136  2.7702 -0.4976 -0.7267
 1261ETH     HC11348   0.092   0.398   3.187 -0.5780 -0.9554 -0.8908
 1261ETH     HC11349   0.261   0.351   3.214  0.0235  0.7370  0.4294
 1262ETH     OH11350   2.052   6.170   0.391 -0.0772 -0.3718  0.3169
 1262ETH     CH11351   2.078   6.136   0.525  0.0304  0.3299  0.4750
 1262ETH     CH11352   2.016   5.999   0.553 -1.0036  0.3884 -1.4075
 1262ETH     HO11353   2.024   6.259   0.402  0.3326 -0.0246 -1.2406
 1262ETH     HC11354   2.186   6.140   0.532  0.2747 -0.9398 -1.9245
 1262ETH     HC11355   2.035   6.207   0.596  0.6321 -0.1266  1.3058
 1262ETH     HC11356   2.065   5.921   0.494  2.7660  0.9454  0.7981
 1262ETH     HC11357   2.025   5.955   0.653 -1.7043 -0.2241 -1.6106
 1262ETH     HC11358   1.909   5.998   0.534 -1.3824 -1.4230  0.5718
 1263ETH     OH11359   4.767   3.537   4.540 -0.6058  0.4232 -0.3882
 1263ETH     CH11360   4.725   3.408   4.504  0.5043 -0.1835  0.4571
 1263ETH     CH11361   4.826   3.353   4.403  0.6845 -0.0844  0.5843
 1263ETH     HO11362   4.713   3.572   4.610 -1.4529 -0.0151 -0.8157
 1263ETH     HC11363   4.731   3.335   4.585 -0.9119 -0.8822 -0.0519
 1263ETH     HC11364   4.622   3.413   4.468  0.6404  0.4276  0.1444
 1263ETH     HC11365   4.824   3.394   4.302  0.8199 -2.9096 -0.6323
 1263ETH     HC11366   4.928   3.367   4.437  0.3879  1.4283  0.8635
 1263ETH     HC11367   4.809   3.245   4.395 -3.5124  0.3678  2.0655
 1264ETH     OH11368   5.199   5.649   6.247  0.1297 -0.3652 -0.4411
 1264ETH     CH11369   5.291   5.678   6.144  0.4033 -0.0377 -0.1037
 1264ETH     CH11370   5.396   5.779   6.190  0.3105 -0.1337  0.3217
 1264ETH     HO11371   5.244   5.588   6.304 -0.3748 -0.6763 -0.3707
 1264ETH     HC11372   5.334   5.585   6.106  0.3036 -0.6182  1.1532
 1264ETH     HC11373   5.236   5.722   6.061 -1.4468 -0.8942  0.6312
 1264ETH     HC11374   5.469   5.747   6.265 -0.3708 -2.3352  0.0680
 1264ETH     HC11375   5.446   5.812   6.099 -0.8875  0.1433 -0.2416
 1264ETH     HC11376   5.347   5.872   6.219  0.4946  0.7009 -1.9529
 1265ETH     OH11377   0.562   2.970   5.463 -0.3230  0.1550  0.1977
 1265ETH     CH11378   0.660   3.057   5.515 -0.8022  0.5361  0.4741
 1265ETH     CH11379   0.676   3.040   5.666 -0.3872 -0.2253  0.3454
 1265ETH     HO11380   0.479   3.016   5.461 -0.6057 -0.3110  0.7268
 1265ETH     HC11381   0.757   3.035   5.471 -1.4842  0.3048 -0.9578
 1265ETH     HC11382   0.638   3.161   5.490 -1.1415  0.1441 -0.9290
 1265ETH     HC11383   0.595   3.080   5.726  0.8402 -0.5481  2.2576
 1265ETH     HC11384   0.712   2.942   5.699 -2.1394 -0.4077  1.7224
 1265ETH     HC11385   0.759   3.107   5.687  0.2164 -0.3843 -1.4342
 1266ETH     OH11386   5.142   3.423   2.204  0.1955  0.3325 -0.1123
 1266ETH     CH11387   5.073   3.480   2.095  0.1307  0.3614 -0.0559
 1266ETH     CH11388   4.995   3.370   2.024  0.2146  0.1376  0.2009
 1266ETH     HO11389   5.215   3.375   2.167  0.5791  0.5750  0.3182
 1266ETH     HC11390   5.004   3.560   2.123  1.1510  1.3931 -0.4062
 1266ETH     HC11391   5.151   3.523   2.032  0.4860 -0.3716 -0.1151
 1266ETH     HC11392   4.951   3.403   1.930 -0.0834 -0.3167  0.1761
 1266ETH     HC11393   5.059   3.285   2.001  0.8860  1.2614 -2.1483
 1266ETH     HC11394   4.909   3.327   2.077 -1.2422 -0.3888 -2.5167
 1267ETH     OH11395   1.597   4.540   4.345  0.1025  0.0140  0.4593
 1267ETH     CH11396   1.653   4.418   4.389 -0.1741 -0.3220 -0.1061
 1267ETH     CH11397   1.542   4.338   4.457  0.2745 -0.1402  0.8420
 1267ETH     HO11398   1.582   4.521   4.254 -1.0206  0.3453  0.5647
 1267ETH     HC11399   1.700   4.369   4.305  2.4553  1.8293  0.0529
 1267ETH     HC11400   1.726   4.438   4.467  0.0539 -0.5978 -0.2488
 1267ETH     HC11401   1.493   4.376   4.547  1.1392 -0.3126  1.3844
 1267ETH     HC11402   1.450   4.327   4.400  0.6411 -1.6911  0.5384
 1267ETH     HC11403   1.583   4.239   4.477  0.7037 -0.3116 -0.8315
 1268ETH     OH11404   5.817   4.819   4.493 -0.3650  0.4309 -0.2845
 1268ETH     CH11405   5.806   4.861   4.627  0.0702 -0.1541 -0.0611
 1268ETH     CH11406   5.766   4.735   4.703 -0.3441  0.0799  0.1061
 1268ETH     HO11407   5.881   4.749   4.487 -0.8553 -0.0432 -0.0927
 1268ETH     HC11408   5.904   4.894   4.663 -0.3456 -1.0340  1.9351
 1268ETH     HC11409   5.742   4.949   4.637  2.3295  1.4040  1.4472
 1268ETH     HC11410   5.833   4.651   4.688 -1.2743 -0.7822  0.6915
 1268ETH     HC11411   5.764   4.758   4.809 -1.3579  1.2780 -0.1506
 1268ETH     HC11412   5.665   4.701   4.679 -0.1854 -0.9380  0.8854
 1269ETH     OH11413   3.194   0.588   0.469 -0.2773 -0.2803 -0.2889
 1269ETH     CH11414   3.275   0.600   0.354  0.0362  0.4396  0.0055
 1269ETH     CH11415   3.309   0.746   0.325  0.2646  0.4872  0.4958
 1269ETH     HO11416   3.124   0.651   0.461 -1.2961 -1.6828 -3.5770
 1269ETH     HC11417   3.374   0.554   0.363 -0.3673 -0.2482  1.0732
 1269ETH     HC11418   3.228   0.558   0.265 -1.6438 -1.9587  1.9494
 1269ETH     HC11419   3.350   0.786   0.417 -2.7310 -0.5212  2.3521
 1269ETH     HC11420   3.377   0.765   0.242 -1.2921  1.0810 -0.6795
 1269ETH     HC11421   3.225   0.807   0.292  1.4130  0.8647 -1.8294
 1270ETH     OH11422   4.747   3.553   2.960  0.1621 -0.1757  0.1599
 1270ETH     CH11423   4.888   3.546   2.953  0.1468  0.1905 -0.6846
 1270ETH     CH11424   4.938   3.481   2.824 -0.2757 -0.6658 -0.4193
 1270ETH     HO11425   4.723   3.597   2.880 -0.3804  0.7902  0.8435
 1270ETH     HC11426   4.927   3.645   2.976 -3.4843  2.0629 -2.1194
 1270ETH     HC11427   4.922   3.495   3.043 -3.8300  0.1791  0.9189
 1270ETH     HC11428   4.917   3.549   2.741  0.8516  0.1982 -0.0074
 1270ETH     HC11429   5.046   3.467   2.831 -0.3850 -0.9171  0.9642
 1270ETH     HC11430   4.892   3.384   2.805  0.6529 -0.8660 -1.7217
 1271ETH     OH11431   2.586   3.392   2.639 -0.3552 -0.1735 -0.2434
 1271ETH     CH11432   2.506   3.496   2.690 -0.4046 -0.5084  0.3676
 1271ETH     CH11433   2.570   3.613   2.764 -0.8233 -0.0214 -0.0388
 1271ETH     HO11434   2.608   3.333   2.710  0.5180 -1.4160 -1.5143
 1271ETH     HC11435   2.450   3.538   2.607 -2.9985 -0.3709  2.1171
 1271ETH     HC11436   2.436   3.451   2.761  0.3299 -0.4426  1.1431
 1271ETH     HC11437   2.625   3.585   2.854  0.7224 -1.3585 -1.3628
 1271ETH     HC11438   2.648   3.664   2.707 -0.8524 -1.4064 -1.3418
 1271ETH     HC11439   2.493   3.685   2.793 -1.3481 -0.4764 -0.3076
 1272ETH     OH11440   0.141   3.609   5.126  0.5395 -0.4568  0.1421
 1272ETH     CH11441   0.231   3.536   5.046  0.5270 -0.6888  0.3398
 1272ETH     CH11442   0.366   3.606   5.030  0.2638 -0.3471 -0.3799
 1272ETH     HO11443   0.064   3.554   5.128  0.2008 -0.0625 -1.4613
 1272ETH     HC11444   0.240   3.435   5.086  2.1128 -0.5926  0.2683
 1272ETH     HC11445   0.186   3.529   4.947  0.0512  0.0085  0.5044
 1272ETH     HC11446   0.433   3.598   5.116 -1.1044 -0.3300  0.6941
 1272ETH     HC11447   0.414   3.557   4.944  1.7701  1.5076 -0.6459
 1272ETH     HC11448   0.357   3.710   4.999  2.6424  0.3495  1.1958
 1273ETH     OH11449   4.906   1.931   5.396 -0.2768  0.4120 -0.2468
 1273ETH     CH11450   4.956   2.003   5.506  0.1880 -0.2964  0.0095
 1273ETH     CH11451   4.891   1.947   5.633 -0.3773  0.2884 -0.0174
 1273ETH     HO11452   4.878   1.847   5.429  0.2690  0.4704  0.3651
 1273ETH     HC11453   5.064   2.002   5.511  0.1943 -0.7385 -0.2609
 1273ETH     HC11454   4.934   2.110   5.502  1.5973  0.0298  0.6010
 1273ETH     HC11455   4.922   1.848   5.667 -0.3408 -0.1559 -1.3005
 1273ETH     HC11456   4.919   2.003   5.722  0.5559 -0.1377 -0.0360
 1273ETH     HC11457   4.783   1.943   5.618 -0.4606  0.6796  0.4767
 1274ETH     OH11458   0.186   3.315   0.335  0.7729  0.4324 -0.2601
 1274ETH     CH11459   0.091   3.411   0.376  0.2228 -0.0994 -0.2779
 1274ETH     CH11460   0.116   3.474   0.514 -0.8132  0.4483 -0.3367
 1274ETH     HO11461   0.195   3.253   0.405 -1.0356  1.1627  0.6643
 1274ETH     HC11462   0.107   3.494   0.308  0.2791  0.3962  0.3343
 1274ETH     HC11463  -0.011   3.377   0.361  0.9127 -1.5569 -1.7673
 1274ETH     HC11464   0.045   3.555   0.530 -1.7203 -0.1867 -1.0394
 1274ETH     HC11465   0.099   3.403   0.595  1.1857  0.2684 -0.0689
 1274ETH     HC11466   0.215   3.516   0.525 -0.5064 -0.4427  0.3193
 1275ETH     OH11467   6.100   5.874   3.136  0.2704 -0.7139 -0.2089
 1275ETH     CH11468   6.010   5.908   3.034  0.3010  0.4765  0.1559
 1275ETH     CH11469   5.893   5.969   3.112 -0.2036 -0.2275 -0.0443
 1275ETH     HO11470   6.186   5.862   3.100  0.0685 -0.8804 -0.6312
 1275ETH     HC11471   6.071   5.981   2.979  1.9296 -0.6407  0.4647
 1275ETH     HC11472   5.967   5.827   2.975 -1.1273  0.0096  1.8266
 1275ETH     HC11473   5.798   5.992   3.066 -2.2005  0.6060  4.2425
 1275ETH     HC11474   5.869   5.901   3.194  1.8768 -0.9239  0.0445
 1275ETH     HC11475   5.925   6.064   3.156  0.5513 -1.0162  1.1678
 1276ETH     OH11476   3.501   1.523   3.848 -0.3784  0.0693 -0.1036
 1276ETH     CH11477   3.521   1.519   3.987  0.5948 -0.1219 -0.2447
 1276ETH     CH11478   3.651   1.444   4.016  0.1699 -0.7871 -0.0540
 1276ETH     HO11479   3.531   1.442   3.808 -1.4603 -1.4053  2.0109
 1276ETH     HC11480   3.539   1.622   4.017 -1.1078  0.0858  0.1151
 1276ETH     HC11481   3.432   1.479   4.036  0.1586  0.1896 -0.7776
 1276ETH     HC11482   3.678   1.451   4.122  0.3018  1.3179 -0.2197
 1276ETH     HC11483   3.642   1.338   3.992  2.0648 -0.5900 -1.6966
 1276ETH     HC11484   3.737   1.486   3.966  0.3020 -0.3609  0.5227
 1277ETH     OH11485   6.274   2.826   2.001 -0.6764  0.3791 -0.0827
 1277ETH     CH11486   6.178   2.728   1.965  0.1004 -0.5220  0.2684
 1277ETH     CH11487   6.194   2.658   1.830 -0.3346  0.2355 -0.1821
 1277ETH     HO11488   6.277   2.838   2.094 -0.8688 -0.3997  0.0326
 1277ETH     HC11489   6.208   2.655   2.040  1.5906  0.5799  0.7737
 1277ETH     HC11490   6.079   2.754   2.001  0.1690  0.3562 -0.1367
 1277ETH     HC11491   6.149   2.714   1.748 -2.7286  0.3166  1.1463
 1277ETH     HC11492   6.301   2.647   1.813 -0.1525 -0.1201  1.1383
 1277ETH     HC11493   6.160   2.556   1.844  2.5098 -0.5337  1.6991
 1278ETH     OH11494   2.419   0.114   2.427  0.2885 -0.4533  0.9393
 1278ETH     CH11495   2.371   0.246   2.436  0.0523 -0.4949  0.2947
 1278ETH     CH11496   2.456   0.322   2.538 -1.0779  0.4583  0.5451
 1278ETH     HO11497   2.398   0.082   2.341 -0.5012 -0.2008  1.0273
 1278ETH     HC11498   2.381   0.291   2.337  1.1787 -1.2227  0.0762
 1278ETH     HC11499   2.264   0.247   2.458 -0.0585 -1.1283 -0.1919
 1278ETH     HC11500   2.428   0.427   2.544  0.4208  0.8916  0.2702
 1278ETH     HC11501   2.457   0.277   2.637  2.4385  0.1071  0.4139
 1278ETH     HC11502   2.560   0.307   2.506 -0.9610 -0.9937  1.5562
 1279ETH     OH11503   0.183   3.046   0.468 -0.1758 -0.3661  0.2517
 1279ETH     CH11504   0.098   2.969   0.386 -0.3468 -0.6088  0.6539
 1279ETH     CH11505   0.008   3.059   0.301  0.3863 -0.6808 -0.2112
 1279ETH     HO11506   0.252   2.989   0.498  0.1254  0.6788  1.5732
 1279ETH     HC11507   0.151   2.907   0.313 -1.8903 -1.6281  0.3731
 1279ETH     HC11508   0.048   2.896   0.449 -1.9925  0.3445  0.4773
 1279ETH     HC11509  -0.028   3.141   0.364 -1.2984 -2.6324  1.4317
 1279ETH     HC11510   0.060   3.101   0.215 -1.4842  0.8136 -0.6467
 1279ETH     HC11511  -0.077   3.005   0.261 -0.1283 -0.8493  1.0787
 1280ETH     OH11512   0.654   5.439   5.831  0.2268  0.6558  0.2353
 1280ETH     CH11513   0.614   5.566   5.878 -0.7860  0.2378  0.5019
 1280ETH     CH11514   0.585   5.648   5.752 -0.6091 -0.0809  0.2552
 1280ETH     HO11515   0.701   5.395   5.900  1.0829  0.0752 -0.7054
 1280ETH     HC11516   0.519   5.557   5.931 -0.4827 -0.3333  0.9584
 1280ETH     HC11517   0.694   5.602   5.943  1.1824 -0.4645 -1.4920
 1280ETH     HC11518   0.490   5.626   5.704 -0.1264 -1.3032 -0.1678
 1280ETH     HC11519   0.579   5.756   5.761  2.2077  0.3974 -2.6295
 1280ETH     HC11520   0.659   5.635   5.673  1.0545 -0.7523  1.8735
 1281ETH     OH11521   5.152   3.847   5.306  0.1557 -0.5429 -0.1186
 1281ETH     CH11522   5.157   3.803   5.172 -0.4690  0.0040 -0.3231
 1281ETH     CH11523   5.011   3.794   5.129 -0.6509  0.5670  0.1745
 1281ETH     HO11524   5.235   3.843   5.351  0.5158  0.4992 -0.6756
 1281ETH     HC11525   5.217   3.869   5.109 -1.5590  2.0188  0.7109
 1281ETH     HC11526   5.207   3.708   5.154  2.0255  1.1058  0.5700
 1281ETH     HC11527   5.020   3.747   5.031  1.3654 -0.6371  0.9164
 1281ETH     HC11528   4.943   3.739   5.194 -0.7413 -0.1063 -0.4826
 1281ETH     HC11529   4.979   3.898   5.135  1.8065  1.4806 -1.6560
 1282ETH     OH11530   1.905   2.579   1.842  0.0899  0.1683  0.2230
 1282ETH     CH11531   1.768   2.548   1.844  0.1951 -0.3628 -0.4874
 1282ETH     CH11532   1.707   2.577   1.982  0.0755  0.8889 -0.7956
 1282ETH     HO11533   1.920   2.671   1.827  0.4042  0.4282  2.0071
 1282ETH     HC11534   1.739   2.610   1.760  4.5936 -0.8360 -2.4549
 1282ETH     HC11535   1.757   2.442   1.823  1.0662 -0.3368 -1.0601
 1282ETH     HC11536   1.766   2.518   2.052 -0.1435 -0.4544 -1.7146
 1282ETH     HC11537   1.699   2.683   2.005 -1.9131  0.3050  1.3897
 1282ETH     HC11538   1.611   2.526   1.990 -0.8244  2.5790 -0.7456
 1283ETH     OH11539   4.625   5.931   0.612 -0.6812 -0.4850  0.2807
 1283ETH     CH11540   4.525   6.029   0.596 -0.2172 -0.0242  0.1983
 1283ETH     CH11541   4.385   5.970   0.616 -0.4952  0.3263 -0.6860
 1283ETH     HO11542   4.680   5.936   0.535 -1.4238  0.2676 -0.2133
 1283ETH     HC11543   4.546   6.114   0.661  0.3107  1.5682 -1.9977
 1283ETH     HC11544   4.525   6.081   0.500 -3.2117 -0.7698 -0.2704
 1283ETH     HC11545   4.350   5.907   0.534 -1.0311 -0.0732 -0.1498
 1283ETH     HC11546   4.383   5.902   0.702  0.6483  2.3238  0.9620
 1283ETH     HC11547   4.308   6.046   0.626  0.3179  0.9013  1.7067
 1284ETH     OH11548   0.719   2.783   2.881  0.1197 -0.1817  0.1162
 1284ETH     CH11549   0.651   2.873   2.966 -0.2147 -0.0514 -0.2893
 1284ETH     CH11550   0.543   2.943   2.883 -0.6945 -0.0068  0.3735
 1284ETH     HO11551   0.810   2.808   2.868  0.9733 -2.5025  1.3393
 1284ETH     HC11552   0.596   2.828   3.048  0.6507  0.1137  0.3844
 1284ETH     HC11553   0.730   2.925   3.020  0.7438 -0.1700 -1.5408
 1284ETH     HC11554   0.579   3.010   2.805 -2.6151  2.0792  1.2116
 1284ETH     HC11555   0.479   2.871   2.834 -2.6427  1.5949  0.4939
 1284ETH     HC11556   0.468   3.006   2.931 -0.4894  0.8400 -0.4091
 1285ETH     OH11557   3.734   4.354   2.998  0.5316 -0.1921  0.2799
 1285ETH     CH11558   3.642   4.458   3.020  0.5065 -0.1393 -0.0624
 1285ETH     CH11559   3.611   4.477   3.169  0.1268  0.4389 -0.2133
 1285ETH     HO11560   3.686   4.273   3.012  1.8015 -0.5413  2.9092
 1285ETH     HC11561   3.686   4.548   2.978 -1.2038  0.7470  0.0059
 1285ETH     HC11562   3.548   4.441   2.968  1.3980 -0.7707 -1.4634
 1285ETH     HC11563   3.573   4.575   3.198 -0.6882 -0.5823  2.2669
 1285ETH     HC11564   3.531   4.406   3.191  1.7606 -1.8102 -1.3205
 1285ETH     HC11565   3.698   4.439   3.223  0.5745 -1.2000 -2.0244
 1286ETH     OH11566   1.758   1.875   5.779 -0.4129  0.1190  0.4382
 1286ETH     CH11567   1.856   1.835   5.871 -0.0132 -0.3770 -0.1927
 1286ETH     CH11568   1.974   1.776   5.794  0.3237 -0.4033  0.3364
 1286ETH     HO11569   1.677   1.866   5.827 -1.1003  1.8902 -0.3504
 1286ETH     HC11570   1.886   1.916   5.939 -2.1426  1.5156 -1.4601
 1286ETH     HC11571   1.823   1.753   5.934  0.2894  0.7608  1.5000
 1286ETH     HC11572   2.025   1.844   5.725 -4.1022  0.7214 -2.0415
 1286ETH     HC11573   2.049   1.752   5.869 -1.4501  1.1142  2.6858
 1286ETH     HC11574   1.956   1.690   5.730  0.4115  1.1316 -1.8107
 1287ETH     OH11575   6.095   3.659   4.618 -0.3983 -0.9870 -0.0285
 1287ETH     CH11576   6.090   3.625   4.481  0.0917 -0.2870 -0.2190
 1287ETH     CH11577   6.139   3.745   4.400 -0.5773  0.0236 -0.1654
 1287ETH     HO11578   6.021   3.717   4.630  0.1505 -0.2630 -0.1692
 1287ETH     HC11579   6.158   3.541   4.467  1.4512  0.6196  0.7954
 1287ETH     HC11580   5.984   3.615   4.458 -0.1372  0.8883  0.2804
 1287ETH     HC11581   6.067   3.826   4.408 -3.1051 -1.8236 -3.0055
 1287ETH     HC11582   6.244   3.762   4.423 -0.5064 -2.4550  1.4711
 1287ETH     HC11583   6.126   3.709   4.297 -2.6867  1.6876 -0.5293
 1288ETH     OH11584   2.034   4.053   1.937 -0.1057  0.3952  0.5845
 1288ETH     CH11585   1.903   4.057   1.987 -0.2628 -0.3077  0.2478
 1288ETH     CH11586   1.817   4.142   1.894 -0.0164  0.2891  0.5565
 1288ETH     HO11587   2.061   4.143   1.931  0.3477  0.1167 -2.7663
 1288ETH     HC11588   1.866   3.955   1.988  1.6928 -1.0277  0.8145
 1288ETH     HC11589   1.898   4.091   2.091  1.6114 -1.4696  0.7392
 1288ETH     HC11590   1.849   4.244   1.875  0.4519  0.0167 -0.1793
 1288ETH     HC11591   1.817   4.109   1.790 -0.0529  1.3118  0.2292
 1288ETH     HC11592   1.714   4.137   1.929 -0.7737  2.3140 -1.2645
 1289ETH     OH11593   1.395   1.694   3.862 -0.3020 -0.6140 -0.0270
 1289ETH     CH11594   1.397   1.563   3.914  0.5878 -0.7982 -0.5049
 1289ETH     CH11595   1.478   1.571   4.044  0.4855 -0.5828 -0.4530
 1289ETH     HO11596   1.411   1.689   3.769 -1.1405 -1.0375 -0.1525
 1289ETH     HC11597   1.292   1.533   3.924  0.2300  0.2608 -1.0015
 1289ETH     HC11598   1.446   1.507   3.835  1.5689 -0.0489 -0.4223
 1289ETH     HC11599   1.478   1.471   4.088 -0.9728 -1.0088 -1.3966
 1289ETH     HC11600   1.584   1.597   4.040  0.2300  0.3058 -1.5878
 1289ETH     HC11601   1.439   1.644   4.114  0.0085 -0.5952 -0.7060
 1290ETH     OH11602   2.104   4.391   4.519  0.0014  0.4095 -0.5069
 1290ETH     CH11603   2.041   4.517   4.525 -0.1339  0.3090  0.2307
 1290ETH     CH11604   2.128   4.619   4.452 -0.0474  0.1999  0.1816
 1290ETH     HO11605   2.057   4.335   4.579  0.3515  0.1896 -0.4330
 1290ETH     HC11606   1.947   4.511   4.470 -0.8916  0.2102  1.5376
 1290ETH     HC11607   2.027   4.542   4.630 -0.0705 -1.3273  0.6470
 1290ETH     HC11608   2.230   4.621   4.491  1.0449  0.3337 -2.5830
 1290ETH     HC11609   2.145   4.594   4.347 -2.1495  1.9113 -0.6162
 1290ETH     HC11610   2.099   4.722   4.475  0.4381 -0.0724  2.1187
 1291ETH     OH11611   6.283   1.774   2.818  0.3130 -0.5854  0.8358
 1291ETH     CH11612   6.402   1.750   2.747  0.0736 -0.3448  0.3427
 1291ETH     CH11613   6.407   1.828   2.616 -0.4850 -0.2635  0.3686
 1291ETH     HO11614   6.212   1.716   2.792 -0.3294  0.8110 -0.6132
 1291ETH     HC11615   6.485   1.766   2.816 -0.2494  0.4262  0.5580
 1291ETH     HC11616   6.414   1.643   2.727 -0.0900 -0.6942  2.0195
 1291ETH     HC11617   6.339   1.773   2.551  0.1335 -2.1954  1.3265
 1291ETH     HC11618   6.368   1.929   2.620 -0.8364 -0.3734 -0.1967
 1291ETH     HC11619   6.500   1.817   2.560 -0.3021  0.0756  0.6058
 1292ETH     OH11620   5.679   1.523   1.370 -0.3957  0.4750 -0.0276
 1292ETH     CH11621   5.584   1.582   1.284 -0.2706 -0.3914 -0.7686
 1292ETH     CH11622   5.652   1.702   1.218  0.7067 -0.6204 -0.1862
 1292ETH     HO11623   5.735   1.478   1.309 -1.0783  0.4668 -0.6621
 1292ETH     HC11624   5.543   1.510   1.213  0.0130 -0.9087 -0.4105
 1292ETH     HC11625   5.498   1.617   1.341  2.4102 -0.6272  3.6528
 1292ETH     HC11626   5.582   1.747   1.148  1.3924  0.5906 -0.1030
 1292ETH     HC11627   5.697   1.763   1.296  0.6772 -3.2416  1.9447
 1292ETH     HC11628   5.722   1.662   1.145  2.2118  0.8901  0.3852
 1293ETH     OH11629   1.200   5.117   2.293  0.2206  0.0451 -0.1338
 1293ETH     CH11630   1.177   5.255   2.308  0.4203  0.0585  0.0412
 1293ETH     CH11631   1.209   5.297   2.452 -0.2265  0.6714  0.0086
 1293ETH     HO11632   1.167   5.097   2.206  2.1783  0.7253 -1.0683
 1293ETH     HC11633   1.243   5.309   2.240  0.7238 -0.6390 -0.2232
 1293ETH     HC11634   1.073   5.280   2.290  0.5331 -0.9960 -2.3317
 1293ETH     HC11635   1.155   5.232   2.521 -0.4371 -0.3442 -1.0982
 1293ETH     HC11636   1.311   5.269   2.476  0.1416 -0.3655 -2.5639
 1293ETH     HC11637   1.196   5.402   2.478 -4.8891  0.5418 -1.2294
 1294ETH     OH11638   1.645   2.307   2.291 -0.4103 -0.2465 -0.1725
 1294ETH     CH11639   1.550   2.330   2.393  0.2510  0.8119  0.2095
 1294ETH     CH11640   1.614   2.385   2.521  0.5160  0.4628  0.2294
 1294ETH     HO11641   1.661   2.215   2.283  0.5931 -0.0028 -0.9770
 1294ETH     HC11642   1.476   2.406   2.371  1.0606  1.2683 -0.9712
 1294ETH     HC11643   1.490   2.240   2.399 -0.6765  1.3757 -0.6022
 1294ETH     HC11644   1.560   2.400   2.615 -0.4653 -0.3892 -0.1948
 1294ETH     HC11645   1.688   2.312   2.553  0.0152  0.5327  1.6031
 1294ETH     HC11646   1.667   2.476   2.495 -1.5301  1.2564 -1.3022
 1295ETH     OH11647   2.191   0.682   3.543  0.0414  0.1101  0.1379
 1295ETH     CH11648   2.290   0.685   3.442  0.3064 -0.0702  0.3935
 1295ETH     CH11649   2.316   0.540   3.400  0.5315 -0.1295  0.7324
 1295ETH     HO11650   2.105   0.695   3.506 -1.0636 -0.8043  2.3120
 1295ETH     HC11651   2.229   0.731   3.365 -0.3522 -1.7094 -0.0909
 1295ETH     HC11652   2.370   0.753   3.472 -1.6520  1.6629  1.8724
 1295ETH     HC11653   2.221   0.488   3.388  1.3804 -1.4607 -0.3650
 1295ETH     HC11654   2.370   0.536   3.306 -1.0363 -2.2006 -0.1147
 1295ETH     HC11655   2.380   0.485   3.469 -0.4105 -0.2131  1.5643
 1296ETH     OH11656   3.107   2.961   2.737 -0.1874  0.3801  0.7635
 1296ETH     CH11657   3.230   3.023   2.768  0.2382 -0.2372  0.3191
 1296ETH     CH11658   3.241   3.150   2.685  0.3113 -0.1868  0.4063
 1296ETH     HO11659   3.111   2.905   2.661 -1.0932  0.4286  0.6776
 1296ETH     HC11660   3.240   3.064   2.869  2.0440 -0.3119  0.1925
 1296ETH     HC11661   3.310   2.949   2.761 -0.4625 -0.7985 -2.0275
 1296ETH     HC11662   3.159   3.221   2.696  1.6933  1.8982 -1.9449
 1296ETH     HC11663   3.333   3.208   2.697 -0.2975  0.8633  0.0865
 1296ETH     HC11664   3.219   3.120   2.582  0.3715  1.9715 -0.2692
 1297ETH     OH11665   2.026   5.716   4.408  0.1559 -0.2902  0.1120
 1297ETH     CH11666   2.024   5.835   4.331 -0.1437 -0.0419  0.5055
 1297ETH     CH11667   2.117   5.935   4.399  0.1451 -0.3058  0.4982
 1297ETH     HO11668   1.954   5.665   4.373  2.2463 -1.8118 -2.1804
 1297ETH     HC11669   2.061   5.812   4.232  0.1673  0.8232  0.4186
 1297ETH     HC11670   1.926   5.883   4.334 -1.1987 -1.7966 -3.0409
 1297ETH     HC11671   2.223   5.918   4.381  0.0990  0.3952 -0.4327
 1297ETH     HC11672   2.097   6.039   4.375 -0.3396 -0.1082  1.7093
 1297ETH     HC11673   2.107   5.924   4.507 -0.0062  2.6366  0.8139
 1298ETH     OH11674   2.880   2.433   4.529 -0.3699 -1.0749  0.6650
 1298ETH     CH11675   2.747   2.474   4.504 -0.0278 -0.2561  0.1390
 1298ETH     CH11676   2.659   2.349   4.496 -0.5535  0.1124  0.1469
 1298ETH     HO11677   2.924   2.512   4.499 -2.6001 -0.0388 -0.0142
 1298ETH     HC11678   2.713   2.540   4.584  2.1563  0.9036  0.1422
 1298ETH     HC11679   2.740   2.528   4.410 -3.3436 -0.0241  0.4784
 1298ETH     HC11680   2.656   2.287   4.586  2.0962  0.1870  0.3154
 1298ETH     HC11681   2.562   2.389   4.468 -0.5964  0.3107  0.5756
 1298ETH     HC11682   2.686   2.286   4.411 -3.4757 -1.3012  0.1936
 1299ETH     OH11683   0.723   0.933   3.302 -0.3642  0.1598 -0.0874
 1299ETH     CH11684   0.704   0.960   3.439  0.1119 -0.1194  0.0329
 1299ETH     CH11685   0.559   0.997   3.467  0.2296  0.3813 -0.0088
 1299ETH     HO11686   0.811   0.903   3.286 -0.5407  0.2902 -1.4362
 1299ETH     HC11687   0.737   0.881   3.506  0.7868  1.8184  2.0410
 1299ETH     HC11688   0.775   1.041   3.458 -1.3689  1.6781 -1.7540
 1299ETH     HC11689   0.553   1.064   3.553 -1.0294 -0.5228  0.6281
 1299ETH     HC11690   0.522   1.058   3.384 -1.8005 -2.4702 -1.3001
 1299ETH     HC11691   0.500   0.905   3.472 -1.0955  1.1571 -0.8185
 1300ETH     OH11692   5.309   4.526   2.088  0.4447 -0.1382 -0.0834
 1300ETH     CH11693   5.428   4.498   2.160  0.4291  0.3579  0.1422
 1300ETH     CH11694   5.436   4.571   2.294 -0.4499  0.2256  0.2713
 1300ETH     HO11695   5.301   4.472   2.011  0.1014  1.7314 -1.3868
 1300ETH     HC11696   5.434   4.391   2.178 -1.7402  0.1154 -0.3706
 1300ETH     HC11697   5.509   4.534   2.096  0.8786 -0.2995  0.3411
 1300ETH     HC11698   5.437   4.679   2.280  0.2125  0.2210  0.2823
 1300ETH     HC11699   5.355   4.550   2.363  0.8601  1.7269  2.2946
 1300ETH     HC11700   5.525   4.533   2.342  0.4201  1.1882 -0.5467
 1301ETH     OH11701   0.664   1.915   4.895 -0.4015 -0.0547 -0.0993
 1301ETH     CH11702   0.576   1.910   5.005 -0.2118 -0.2790  0.0406
 1301ETH     CH11703   0.440   1.872   4.948 -0.2262 -0.0994 -0.0457
 1301ETH     HO11704   0.749   1.931   4.933  0.4741 -1.1467 -1.5330
 1301ETH     HC11705   0.612   1.849   5.089 -0.1416 -0.3264 -0.0238
 1301ETH     HC11706   0.563   2.013   5.038 -0.3167 -0.6065  1.0337
 1301ETH     HC11707   0.399   1.952   4.887  1.6147  1.7945  1.1209
 1301ETH     HC11708   0.435   1.781   4.889  0.7914 -0.2477  0.0908
 1301ETH     HC11709   0.370   1.863   5.031 -2.3269  0.7705 -1.6809
 1302ETH     OH11710   2.921   5.640   5.574 -0.0626  0.2731  0.6586
 1302ETH     CH11711   2.929   5.771   5.522  1.0198 -0.1447 -0.2319
 1302ETH     CH11712   2.954   5.773   5.371 -0.2246 -0.2040 -0.4373
 1302ETH     HO11713   3.011   5.623   5.595  1.1954  0.0996 -4.2906
 1302ETH     HC11714   2.849   5.838   5.552 -0.3162 -1.5636 -0.5751
 1302ETH     HC11715   3.019   5.811   5.571  0.0654  0.4946  1.0254
 1302ETH     HC11716   2.879   5.714   5.317  0.7197 -2.2376  0.4155
 1302ETH     HC11717   2.928   5.873   5.338 -1.2236  0.5485  2.4552
 1302ETH     HC11718   3.058   5.751   5.350  0.5208  1.8413  0.9464
 1303ETH     OH11719   2.562   6.179   5.983 -0.1374 -0.1893  0.2699
 1303ETH     CH11720   2.647   6.095   6.058  0.3672 -0.2419 -0.3551
 1303ETH     CH11721   2.628   5.951   6.012  0.2701 -0.3882  0.1446
 1303ETH     HO11722   2.605   6.263   5.986 -0.3089 -0.0975  0.1386
 1303ETH     HC11723   2.747   6.136   6.043  0.4730  0.1649  1.3384
 1303ETH     HC11724   2.617   6.103   6.162  0.9545 -0.1922 -0.1899
 1303ETH     HC11725   2.702   5.888   6.062 -1.2313 -0.8943  1.7652
 1303ETH     HC11726   2.530   5.917   6.046  0.5726 -2.3397 -0.8590
 1303ETH     HC11727   2.627   5.940   5.904 -1.3174 -0.6798  0.1742
 1304ETH     OH11728   2.447   4.952   4.508  0.7039 -0.3981 -0.2566
 1304ETH     CH11729   2.417   5.076   4.449 -0.6759 -0.2651  0.7099
 1304ETH     CH11730   2.515   5.174   4.515 -0.3353 -0.2728  0.2143
 1304ETH     HO11731   2.415   4.950   4.597  1.3255  2.0685  0.0527
 1304ETH     HC11732   2.432   5.054   4.344 -1.5400  0.1396  0.4901
 1304ETH     HC11733   2.312   5.097   4.471 -0.6836 -0.7796  1.1721
 1304ETH     HC11734   2.617   5.161   4.479 -0.9274 -0.5601 -1.4111
 1304ETH     HC11735   2.511   5.274   4.472  0.8946  0.1609  1.0924
 1304ETH     HC11736   2.497   5.163   4.622  2.4172 -2.3810  0.5062
 1305ETH     OH11737   3.268   5.063   3.097 -0.2327 -0.0014  0.2939
 1305ETH     CH11738   3.282   5.140   3.214 -0.1465 -0.1593  0.3880
 1305ETH     CH11739   3.143   5.148   3.276 -0.6204  0.4329 -0.7423
 1305ETH     HO11740   3.251   5.118   3.023 -2.2272 -2.3628 -1.0565
 1305ETH     HC11741   3.335   5.085   3.292 -0.8784  2.3509  2.7301
 1305ETH     HC11742   3.328   5.238   3.203  0.0733 -0.1685  1.1639
 1305ETH     HC11743   3.153   5.221   3.357 -1.4036 -1.4432  1.0736
 1305ETH     HC11744   3.081   5.178   3.192 -2.2505  0.0277  0.2885
 1305ETH     HC11745   3.101   5.056   3.316 -0.3186  1.3711  1.8378
 1306ETH     OH11746   4.314   4.743   1.227  0.3338 -0.2138  0.0612
 1306ETH     CH11747   4.235   4.664   1.141 -0.0695  0.2199  0.0324
 1306ETH     CH11748   4.180   4.535   1.200 -0.0718  0.0748 -0.2840
 1306ETH     HO11749   4.349   4.815   1.175 -0.2823 -0.0221 -0.0884
 1306ETH     HC11750   4.158   4.716   1.084  0.3267  0.2308 -0.5051
 1306ETH     HC11751   4.289   4.622   1.056 -2.4805 -1.3011 -0.8048
 1306ETH     HC11752   4.118   4.486   1.125 -1.6599 -1.3063  1.8741
 1306ETH     HC11753   4.257   4.464   1.231 -1.5564 -0.8783  1.3282
 1306ETH     HC11754   4.116   4.552   1.287  0.4703 -0.6456  0.2729
 1307ETH     OH11755   0.334   1.817   6.280  0.5446 -0.5920 -0.3762
 1307ETH     CH11756   0.204   1.762   6.285  0.1828  0.2543 -0.3357
 1307ETH     CH11757   0.098   1.865   6.328  0.4412  0.0677  0.7779
 1307ETH     HO11758   0.346   1.854   6.194  1.8783 -2.0100 -0.8039
 1307ETH     HC11759   0.172   1.721   6.190 -1.6123 -0.4253  0.5225
 1307ETH     HC11760   0.223   1.687   6.362  3.3118  0.0338 -1.2770
 1307ETH     HC11761   0.110   1.895   6.432 -1.5102  0.1930  0.9790
 1307ETH     HC11762   0.126   1.961   6.285  0.8788 -0.3477  0.1139
 1307ETH     HC11763   0.001   1.820   6.310 -1.1633  2.2928  3.5561
 1308ETH     OH11764   5.292   0.108   2.037  0.5119 -0.0671  0.1558
 1308ETH     CH11765   5.322   0.042   2.158 -0.2459 -0.5657  0.0775
 1308ETH     CH11766   5.253   0.116   2.272 -0.3978 -0.2923 -0.1910
 1308ETH     HO11767   5.314   0.048   1.967  1.8383  1.0134 -0.3562
 1308ETH     HC11768   5.277  -0.057   2.149 -1.0429 -0.1473 -0.5460
 1308ETH     HC11769   5.429   0.037   2.180  0.1257 -2.4219 -1.9460
 1308ETH     HC11770   5.248   0.049   2.358  0.0599  0.0694  0.1136
 1308ETH     HC11771   5.308   0.207   2.294  1.6470 -1.7869  1.1270
 1308ETH     HC11772   5.147   0.139   2.260  0.0061  1.4235 -0.5784
 1309ETH     OH11773   4.141   5.459   3.189 -0.0054  0.8293 -0.0870
 1309ETH     CH11774   4.255   5.442   3.108 -0.3812 -0.2386 -0.4025
 1309ETH     CH11775   4.295   5.295   3.125 -0.2344 -0.2054 -0.4611
 1309ETH     HO11776   4.094   5.537   3.165 -0.2028  1.1994  1.4923
 1309ETH     HC11777   4.214   5.459   3.008 -1.3095  0.4860  0.1006
 1309ETH     HC11778   4.336   5.511   3.132 -1.9593  0.4415  3.1391
 1309ETH     HC11779   4.376   5.267   3.058 -1.0429  1.1437 -2.0332
 1309ETH     HC11780   4.338   5.292   3.225  2.3876  1.4048 -1.4815
 1309ETH     HC11781   4.209   5.229   3.123 -1.2478  1.0039  1.3706
 1310ETH     OH11782   3.750   3.495   0.420 -0.0905  0.6263 -0.1540
 1310ETH     CH11783   3.869   3.422   0.397 -0.5517 -0.2410  0.1887
 1310ETH     CH11784   3.998   3.496   0.430 -0.4906 -0.2477 -0.0311
 1310ETH     HO11785   3.761   3.571   0.364 -1.3068  0.3491 -0.7839
 1310ETH     HC11786   3.866   3.326   0.449  0.8674 -0.6647 -0.4879
 1310ETH     HC11787   3.877   3.403   0.290  1.9193  1.0628  0.1171
 1310ETH     HC11788   4.008   3.504   0.539  0.7899  0.5260 -0.1924
 1310ETH     HC11789   4.083   3.438   0.394  0.8413  1.8462 -0.3975
 1310ETH     HC11790   3.998   3.600   0.396  0.8689 -0.6027 -1.1540
 1311ETH     OH11791   3.118   2.376   1.465 -0.4548 -0.2311  0.1119
 1311ETH     CH11792   3.143   2.402   1.601 -0.4147  0.0606  0.0511
 1311ETH     CH11793   3.252   2.507   1.620 -0.4743  0.1825 -0.2855
 1311ETH     HO11794   3.075   2.451   1.425  1.0486  0.7422  0.2976
 1311ETH     HC11795   3.050   2.422   1.654  0.5463  0.2230  1.6948
 1311ETH     HC11796   3.183   2.307   1.637  1.9619  0.0525 -2.4542
 1311ETH     HC11797   3.280   2.503   1.725  3.2699  0.8200 -1.1850
 1311ETH     HC11798   3.342   2.475   1.568 -0.8669  1.2667 -1.6698
 1311ETH     HC11799   3.231   2.608   1.586 -0.1542  0.2686 -0.2228
 1312ETH     OH11800   5.676   4.587   3.672  0.8711  0.0980 -0.0843
 1312ETH     CH11801   5.658   4.633   3.540  0.2173  0.8299  0.2555
 1312ETH     CH11802   5.802   4.632   3.488  0.1917 -0.0107  0.1935
 1312ETH     HO11803   5.721   4.657   3.716 -0.5416  0.0757  1.4378
 1312ETH     HC11804   5.597   4.561   3.485 -0.8321  1.0548  1.1166
 1312ETH     HC11805   5.613   4.731   3.530 -3.4664 -0.8435 -0.3909
 1312ETH     HC11806   5.855   4.540   3.511 -1.4704 -0.4149  2.5980
 1312ETH     HC11807   5.804   4.655   3.381  1.8777  1.1438  0.4608
 1312ETH     HC11808   5.849   4.722   3.526 -1.3208  0.8111  0.1629
 1313ETH     OH11809   2.382   4.848   0.570 -0.2010  1.0116 -0.0688
 1313ETH     CH11810   2.451   4.865   0.692 -0.1844 -0.0050  0.0672
 1313ETH     CH11811   2.588   4.921   0.654 -0.1619 -0.0655  0.0584
 1313ETH     HO11812   2.420   4.772   0.528  0.8484  1.1329  0.6458
 1313ETH     HC11813   2.408   4.934   0.765 -0.7220  0.9749 -1.1569
 1313ETH     HC11814   2.469   4.768   0.739  0.0486  0.8737  1.8168
 1313ETH     HC11815   2.582   5.006   0.586 -1.2538  2.3736  3.0705
 1313ETH     HC11816   2.648   4.938   0.744 -0.9500 -0.4753  0.6699
 1313ETH     HC11817   2.640   4.837   0.609  0.4355  0.1870  0.2761
 1314ETH     OH11818   1.810   5.674   0.902  0.1866  0.8801 -0.3386
 1314ETH     CH11819   1.846   5.577   0.806 -0.8299  0.2084 -0.0416
 1314ETH     CH11820   1.901   5.646   0.681 -0.2970 -0.3307 -0.1061
 1314ETH     HO11821   1.874   5.668   0.971  0.7314  3.6346 -0.5279
 1314ETH     HC11822   1.917   5.518   0.864 -3.0033 -2.3282  0.1505
 1314ETH     HC11823   1.757   5.517   0.782 -0.4945 -0.3331  0.0605
 1314ETH     HC11824   1.995   5.699   0.695 -0.8745 -0.0235  2.9895
 1314ETH     HC11825   1.920   5.566   0.609  0.2964 -1.4385  1.2614
 1314ETH     HC11826   1.832   5.719   0.639  1.4129  0.7948 -0.9912
 1315ETH     OH11827   5.601   3.095   2.580 -0.3317  0.1377  0.0614
 1315ETH     CH11828   5.523   3.060   2.692 -0.3564  0.0808  0.0266
 1315ETH     CH11829   5.624   3.019   2.799 -0.1516  0.2634 -0.0951
 1315ETH     HO11830   5.637   3.182   2.584  0.0625  0.2923 -4.0382
 1315ETH     HC11831   5.462   3.145   2.724  1.1719  0.7823  1.0985
 1315ETH     HC11832   5.461   2.973   2.669 -0.3121  0.1739 -0.4703
 1315ETH     HC11833   5.574   3.023   2.896  1.3695 -1.2808  0.7756
 1315ETH     HC11834   5.673   2.923   2.787  1.0901  0.7554  0.9809
 1315ETH     HC11835   5.701   3.093   2.819 -0.1457  0.2584 -0.0995
 1316ETH     OH11836   0.436   4.646   6.064  0.1449 -0.1052 -0.1580
 1316ETH     CH11837   0.340   4.683   6.160  0.2330  0.0055 -0.1118
 1316ETH     CH11838   0.269   4.814   6.126 -0.1185 -0.0853  0.2677
 1316ETH     HO11839   0.494   4.589   6.112  1.1138  0.2182 -0.9151
 1316ETH     HC11840   0.266   4.603   6.168 -2.1370  2.0097 -1.1591
 1316ETH     HC11841   0.392   4.684   6.255  1.6832 -3.7948 -0.7734
 1316ETH     HC11842   0.345   4.891   6.140  0.0919 -0.2773  0.1780
 1316ETH     HC11843   0.236   4.832   6.024  0.3281  0.0318  0.1437
 1316ETH     HC11844   0.189   4.830   6.199 -0.8411  1.7364 -0.8916
 1317ETH     OH11845   2.287   0.735   1.057  0.2086  0.1826  0.5133
 1317ETH     CH11846   2.163   0.668   1.051  0.0659  0.4967 -0.1614
 1317ETH     CH11847   2.159   0.582   0.925  0.6040  0.4217 -0.1286
 1317ETH     HO11848   2.355   0.680   1.092 -0.1721 -1.4151 -1.1954
 1317ETH     HC11849   2.153   0.610   1.143 -0.9360  0.0269 -0.5531
 1317ETH     HC11850   2.091   0.749   1.039 -1.0491 -0.6125 -1.0608
 1317ETH     HC11851   2.088   0.500   0.928 -1.1101  1.8454 -0.6385
 1317ETH     HC11852   2.143   0.634   0.830 -2.5648 -1.5296 -0.7362
 1317ETH     HC11853   2.253   0.528   0.921  0.5810  0.1597  2.0997
 1318ETH     OH11854   5.317   1.999   3.831 -0.5490  0.4395  0.4569
 1318ETH     CH11855   5.436   2.024   3.760 -0.6482 -0.0589  0.1131
 1318ETH     CH11856   5.385   2.073   3.624  0.5080  0.4141 -0.1607
 1318ETH     HO11857   5.341   1.986   3.922  2.7405  2.2994 -0.0725
 1318ETH     HC11858   5.503   2.096   3.807 -0.7780 -0.5229  1.0053
 1318ETH     HC11859   5.489   1.930   3.745  0.2992  0.3530  0.8514
 1318ETH     HC11860   5.465   2.092   3.553  0.2505 -1.7419 -1.0672
 1318ETH     HC11861   5.322   2.002   3.571  1.5191 -0.8538  0.3076
 1318ETH     HC11862   5.322   2.162   3.637 -1.2286 -0.7735 -0.2954
 1319ETH     OH11863   4.959   4.447   5.575 -0.3855 -0.1090  0.2890
 1319ETH     CH11864   5.081   4.384   5.609 -0.1645  0.2253  0.1152
 1319ETH     CH11865   5.077   4.361   5.760 -0.1406 -0.5174  0.0043
 1319ETH     HO11866   4.935   4.416   5.489 -0.7324 -1.5734  0.9065
 1319ETH     HC11867   5.078   4.286   5.562 -0.7569 -1.1710  2.9659
 1319ETH     HC11868   5.160   4.449   5.571  1.4935 -2.1421 -0.5991
 1319ETH     HC11869   4.982   4.312   5.781  0.0249 -0.2195  1.5663
 1319ETH     HC11870   5.157   4.299   5.799  0.3025 -0.9299 -1.5635
 1319ETH     HC11871   5.085   4.456   5.814 -3.2239 -0.3988  0.3744
 1320ETH     OH11872   1.152   2.786   4.921 -0.1383 -0.0157 -0.2035
 1320ETH     CH11873   1.256   2.879   4.898 -0.0852  0.0506  0.2919
 1320ETH     CH11874   1.374   2.798   4.844 -0.3891 -0.3341  0.2031
 1320ETH     HO11875   1.189   2.735   4.991 -1.2003  0.9068  1.0548
 1320ETH     HC11876   1.229   2.956   4.826 -0.3202 -1.3015 -1.1011
 1320ETH     HC11877   1.272   2.918   4.998 -0.4316 -0.5264  0.5790
 1320ETH     HC11878   1.409   2.737   4.928 -0.2087  0.5977  0.8144
 1320ETH     HC11879   1.355   2.734   4.758 -1.7710 -0.1590  0.3543
 1320ETH     HC11880   1.450   2.863   4.803 -1.6313 -0.1405 -1.8577
 1321ETH     OH11881   0.262   0.976   1.845  0.0805 -0.5768 -0.0015
 1321ETH     CH11882   0.389   0.931   1.803  0.4472 -0.0765  0.5646
 1321ETH     CH11883   0.407   0.796   1.871  0.3621 -0.1626  0.4178
 1321ETH     HO11884   0.260   1.062   1.807  2.5218 -1.0783 -1.3926
 1321ETH     HC11885   0.389   0.919   1.695  0.6437  1.4501  0.3719
 1321ETH     HC11886   0.465   1.002   1.835  0.5141 -0.1181  0.4971
 1321ETH     HC11887   0.466   0.808   1.962 -0.8869 -0.9407  1.3483
 1321ETH     HC11888   0.312   0.749   1.895 -0.2268  0.9025  0.2002
 1321ETH     HC11889   0.463   0.722   1.814 -1.5354 -0.5146 -1.0340
 1322ETH     OH11890   5.377   1.105   1.722  0.4185  0.3790  0.1816
 1322ETH     CH11891   5.319   1.231   1.698 -0.2232 -0.0224 -0.3776
 1322ETH     CH11892   5.268   1.228   1.554 -0.1774  0.0680 -0.3959
 1322ETH     HO11893   5.436   1.123   1.794  0.0229 -0.1285  0.6333
 1322ETH     HC11894   5.229   1.242   1.758  0.1262 -1.5246  0.4452
 1322ETH     HC11895   5.381   1.319   1.716  0.1085 -0.3115 -0.0872
 1322ETH     HC11896   5.202   1.309   1.524  0.1875 -0.2042 -1.9851
 1322ETH     HC11897   5.350   1.238   1.483 -0.8597  0.4879 -1.1296
 1322ETH     HC11898   5.220   1.134   1.528 -0.6204  0.0701  0.4008
 1323ETH     OH11899   0.020   2.117   1.023  0.1918  0.2372  0.2239
 1323ETH     CH11900  -0.097   2.047   0.987  0.2331  0.1234  0.3110
 1323ETH     CH11901  -0.217   2.142   0.982  0.4417  0.3611 -0.2704
 1323ETH     HO11902   0.005   2.155   1.108  0.9416 -0.2732  0.5841
 1323ETH     HC11903  -0.094   1.980   0.901  1.0127  1.1161 -0.4558
 1323ETH     HC11904  -0.109   1.983   1.074 -0.1305  0.0983  0.2428
 1323ETH     HC11905  -0.307   2.081   0.994  0.9644 -0.6739 -1.4506
 1323ETH     HC11906  -0.211   2.215   1.063  1.4875 -0.5814  0.5218
 1323ETH     HC11907  -0.223   2.177   0.879  1.3018  2.0887  0.2554
 1324ETH     OH11908   0.588   2.645   4.912 -0.0249  0.2369  0.3587
 1324ETH     CH11909   0.659   2.688   4.798  0.0843 -0.4623  0.1594
 1324ETH     CH11910   0.807   2.696   4.837  0.1268 -0.6297  0.0342
 1324ETH     HO11911   0.637   2.574   4.950  2.7682  1.3127 -1.0284
 1324ETH     HC11912   0.631   2.626   4.713  0.9834  0.9627 -1.2194
 1324ETH     HC11913   0.623   2.782   4.756  1.2501 -1.3706 -3.0609
 1324ETH     HC11914   0.878   2.728   4.761  1.1185  1.2634  1.6998
 1324ETH     HC11915   0.804   2.762   4.924 -2.1559 -1.3064  0.4907
 1324ETH     HC11916   0.844   2.599   4.869 -0.8946 -1.3930 -1.0758
 1325ETH     OH11917   5.635   2.368   4.904 -0.2547 -0.0611 -0.0353
 1325ETH     CH11918   5.706   2.329   5.019  0.5996  0.3752 -0.4033
 1325ETH     CH11919   5.689   2.442   5.120  0.2771  0.0050 -0.0428
 1325ETH     HO11920   5.548   2.401   4.917  0.1517  0.5851  1.1081
 1325ETH     HC11921   5.663   2.234   5.052 -0.1918 -0.5570 -3.9243
 1325ETH     HC11922   5.807   2.304   4.989  1.2023 -0.6172  2.3034
 1325ETH     HC11923   5.720   2.542   5.088 -0.6318  0.1786 -0.4022
 1325ETH     HC11924   5.587   2.444   5.160  1.2823  0.5088  2.5841
 1325ETH     HC11925   5.744   2.435   5.214  0.3433  0.6335 -0.0322
 1326ETH     OH11926   6.049   6.169   5.137  0.1845 -0.1836  0.1917
 1326ETH     CH11927   6.134   6.180   5.026 -0.2669 -0.2084 -0.1559
 1326ETH     CH11928   6.138   6.328   4.986  0.0695 -0.1552  0.0779
 1326ETH     HO11929   6.077   6.229   5.205  0.5837  0.3975 -0.4771
 1326ETH     HC11930   6.230   6.153   5.069 -1.1107 -1.1219  1.1806
 1326ETH     HC11931   6.117   6.101   4.952  2.4845 -1.4802  0.5103
 1326ETH     HC11932   6.181   6.403   5.053  0.9488 -1.2341  0.7477
 1326ETH     HC11933   6.200   6.336   4.897  0.3565  2.8855  0.5076
 1326ETH     HC11934   6.037   6.356   4.957  0.1880 -0.2977 -0.4735
 1327ETH     OH11935   3.984   5.972   0.271  0.1545  0.2386 -0.0925
 1327ETH     CH11936   4.066   5.893   0.353 -0.1427  0.5743  0.5324
 1327ETH     CH11937   3.974   5.784   0.408 -0.6588  0.6873 -0.1089
 1327ETH     HO11938   4.041   6.045   0.252 -0.0107  0.5737  0.6733
 1327ETH     HC11939   4.142   5.844   0.292 -0.5163  1.1953 -0.4473
 1327ETH     HC11940   4.124   5.952   0.424 -0.4444 -2.1740  3.1794
 1327ETH     HC11941   3.895   5.824   0.472 -1.9104 -0.2544 -1.0469
 1327ETH     HC11942   3.906   5.746   0.331 -0.8849  0.8288  0.0191
 1327ETH     HC11943   4.033   5.705   0.454 -0.4813  2.0861  2.1364
 1328ETH     OH11944   0.516   5.497   4.344  0.4222 -0.5069  0.4614
 1328ETH     CH11945   0.566   5.547   4.466  0.0658 -0.1040  0.4394
 1328ETH     CH11946   0.650   5.672   4.437  0.0206 -0.1416  0.1441
 1328ETH     HO11947   0.463   5.420   4.359 -0.8608  0.5454  1.3777
 1328ETH     HC11948   0.485   5.573   4.534  1.3073  0.6830  1.6428
 1328ETH     HC11949   0.622   5.475   4.525 -1.6422 -0.7075  1.3639
 1328ETH     HC11950   0.731   5.648   4.368  2.3626  0.0776  2.7311
 1328ETH     HC11951   0.591   5.745   4.381 -1.0387 -1.2014 -0.1434
 1328ETH     HC11952   0.689   5.720   4.527 -1.1039 -0.3928  0.7738
 1329ETH     OH11953   3.387   2.197   3.231 -0.3938 -0.5888 -0.6898
 1329ETH     CH11954   3.287   2.125   3.299 -0.1484 -0.4875 -0.2233
 1329ETH     CH11955   3.329   2.118   3.446 -0.1636 -0.7498 -0.2299
 1329ETH     HO11956   3.355   2.202   3.142  0.1886 -0.5664 -0.8997
 1329ETH     HC11957   3.184   2.159   3.284  0.0632  1.0695  1.6106
 1329ETH     HC11958   3.293   2.029   3.248  0.8812 -1.0680  0.9679
 1329ETH     HC11959   3.360   2.219   3.474  0.2464 -1.0740  0.4978
 1329ETH     HC11960   3.242   2.084   3.502 -1.2521 -0.5726 -1.7767
 1329ETH     HC11961   3.412   2.053   3.471 -0.5398 -0.9825  0.4404
 1330ETH     OH11962   5.132   5.356   5.019 -0.3075 -0.1215 -0.3682
 1330ETH     CH11963   5.227   5.341   4.915 -0.1202 -0.3413 -0.1687
 1330ETH     CH11964   5.177   5.243   4.809 -0.2611 -0.2552 -0.1821
 1330ETH     HO11965   5.114   5.277   5.066 -0.8000 -0.0420 -0.4221
 1330ETH     HC11966   5.243   5.439   4.869  1.6622 -0.5609 -0.0138
 1330ETH     HC11967   5.320   5.311   4.963 -2.5745 -3.9887  2.5718
 1330ETH     HC11968   5.088   5.275   4.756  0.0211 -1.0710 -1.1682
 1330ETH     HC11969   5.246   5.228   4.725 -0.4772 -0.0113 -0.4063
 1330ETH     HC11970   5.155   5.157   4.872 -0.3887 -0.7889 -0.9495
 1331ETH     OH11971   4.314   3.851   0.958  0.8166 -0.2235 -0.2070
 1331ETH     CH11972   4.397   3.783   1.049 -0.2105 -0.4763  0.5494
 1331ETH     CH11973   4.309   3.719   1.157 -0.1496 -0.6560  0.4935
 1331ETH     HO11974   4.358   3.858   0.874 -0.7018 -0.7781 -1.0676
 1331ETH     HC11975   4.439   3.704   0.987 -1.1639  1.0491 -2.1004
 1331ETH     HC11976   4.469   3.861   1.073 -0.4381 -0.4866  1.2738
 1331ETH     HC11977   4.351   3.647   1.227 -0.7744  0.8711  2.4637
 1331ETH     HC11978   4.275   3.804   1.216 -0.9442 -0.0512 -0.7968
 1331ETH     HC11979   4.221   3.677   1.109  1.1613 -1.2403 -1.4846
 1332ETH     OH11980   0.183   6.138   3.112 -0.2449  0.3172 -0.8818
 1332ETH     CH11981   0.090   6.241   3.138 -0.1236  0.2939 -0.3443
 1332ETH     CH11982  -0.050   6.180   3.134 -0.1143  0.2476  0.0799
 1332ETH     HO11983   0.271   6.163   3.135  0.1095 -0.6896 -1.1069
 1332ETH     HC11984   0.099   6.284   3.238  1.2859 -1.9364  0.5273
 1332ETH     HC11985   0.086   6.322   3.065 -3.6113  1.2134  0.7618
 1332ETH     HC11986  -0.062   6.101   3.209 -3.6780 -0.2863 -0.9970
 1332ETH     HC11987  -0.128   6.251   3.160 -1.8340 -1.2365 -0.9316
 1332ETH     HC11988  -0.071   6.149   3.032 -1.1000  1.0699  0.0224
 1333ETH     OH11989   4.748   3.714   2.254 -0.6398  0.0437 -0.0288
 1333ETH     CH11990   4.701   3.832   2.315 -0.2599  0.0070  0.3332
 1333ETH     CH11991   4.558   3.858   2.268 -0.1358  0.2732  0.1068
 1333ETH     HO11992   4.840   3.713   2.272 -0.7621  0.9784  0.6825
 1333ETH     HC11993   4.697   3.814   2.423 -2.1146  1.1272  0.4814
 1333ETH     HC11994   4.774   3.912   2.308 -0.1740 -0.1163 -0.1604
 1333ETH     HC11995   4.551   3.900   2.167 -0.3398 -0.8458 -0.3458
 1333ETH     HC11996   4.490   3.773   2.266  1.3261 -0.9031  0.2736
 1333ETH     HC11997   4.501   3.934   2.321  0.8784  0.9763  0.2014
 1334ETH     OH11998   1.049   5.027   1.244 -0.1343 -0.6158  0.4185
 1334ETH     CH11999   1.003   5.158   1.266 -0.1886 -0.5341 -0.1662
 1334ETH     CH12000   1.006   5.203   1.412  0.2190 -0.7512 -0.1085
 1334ETH     HO12001   1.008   4.959   1.296  0.2584 -0.6083  0.7352
 1334ETH     HC12002   1.071   5.222   1.210 -0.4546 -1.4437 -1.5381
 1334ETH     HC12003   0.902   5.180   1.232 -0.8703 -1.1104  1.4419
 1334ETH     HC12004   0.952   5.297   1.415  0.2433 -0.7502  0.4624
 1334ETH     HC12005   0.950   5.126   1.464 -1.4823  0.8260  0.4240
 1334ETH     HC12006   1.108   5.202   1.451  0.0484 -0.5839  0.3489
 1335ETH     OH12007   3.692   4.901   2.741  0.5070 -0.7644  0.1088
 1335ETH     CH12008   3.621   4.780   2.728 -0.5121 -0.2107  0.4821
 1335ETH     CH12009   3.649   4.739   2.584 -0.3188  1.3270  0.0750
 1335ETH     HO12010   3.686   4.919   2.833  0.5391  3.0032 -0.5388
 1335ETH     HC12011   3.653   4.704   2.800 -1.1003 -1.1772 -0.2511
 1335ETH     HC12012   3.517   4.809   2.744 -0.8351 -1.5533  0.9467
 1335ETH     HC12013   3.572   4.663   2.565 -1.6450  2.7271 -0.2509
 1335ETH     HC12014   3.651   4.826   2.518 -2.0583  0.7615 -0.7741
 1335ETH     HC12015   3.741   4.685   2.563 -1.0972  0.1015 -0.2872
 1336ETH     OH12016   4.061   4.332   2.359 -0.1827 -0.3149 -0.2584
 1336ETH     CH12017   3.952   4.375   2.439 -0.1273 -0.2885 -0.1974
 1336ETH     CH12018   3.838   4.273   2.440 -0.0235 -0.4182 -1.0435
 1336ETH     HO12019   4.136   4.329   2.416  1.5591  0.6191 -2.4465
 1336ETH     HC12020   3.984   4.410   2.537  0.1744  2.1050 -1.1333
 1336ETH     HC12021   3.912   4.458   2.381 -0.8037 -0.1964  0.3960
 1336ETH     HC12022   3.855   4.180   2.494  0.7572  0.4070  0.1426
 1336ETH     HC12023   3.741   4.309   2.475  0.3346 -0.3408 -0.1071
 1336ETH     HC12024   3.816   4.241   2.338  0.4377  0.6907 -1.5036
 1337ETH     OH12025   3.492   0.376   4.384  0.0401 -0.0406  0.3850
 1337ETH     CH12026   3.633   0.373   4.384  0.0405 -0.0197  0.4088
 1337ETH     CH12027   3.681   0.229   4.370 -0.6614 -0.3124  0.9442
 1337ETH     HO12028   3.466   0.427   4.459  0.8502  1.1175 -0.0973
 1337ETH     HC12029   3.660   0.439   4.302  0.8116 -1.5428 -0.5841
 1337ETH     HC12030   3.675   0.414   4.476  0.0929  0.7793  0.0324
 1337ETH     HC12031   3.790   0.238   4.380 -0.4952 -0.2663 -0.7504
 1337ETH     HC12032   3.653   0.167   4.454 -2.1079 -1.6346 -0.4858
 1337ETH     HC12033   3.647   0.177   4.280  1.3288  1.5412 -0.9400
 1338ETH     OH12034   2.187   2.379   4.260  0.0567  0.2126  0.1397
 1338ETH     CH12035   2.077   2.460   4.226 -0.1074 -0.0423  0.0538
 1338ETH     CH12036   2.106   2.537   4.097 -0.2733 -0.5232 -0.2672
 1338ETH     HO12037   2.175   2.346   4.347 -1.1739  0.8549  0.2140
 1338ETH     HC12038   2.052   2.531   4.305  0.5775 -0.6305  0.8110
 1338ETH     HC12039   1.986   2.404   4.207  0.3450 -0.9302  0.4733
 1338ETH     HC12040   2.186   2.608   4.114 -0.3561 -1.0175  2.4157
 1338ETH     HC12041   2.143   2.477   4.014 -1.3887 -0.8097 -0.5695
 1338ETH     HC12042   2.018   2.590   4.061 -0.2806  1.7952  2.9684
 1339ETH     OH12043   5.417   2.007   4.098 -0.2754 -0.5848  0.5653
 1339ETH     CH12044   5.409   2.124   4.176 -0.1919  0.2516 -0.6674
 1339ETH     CH12045   5.314   2.099   4.294  0.4986 -0.1096 -0.1888
 1339ETH     HO12046   5.332   1.966   4.096  0.0770 -1.2352 -2.3616
 1339ETH     HC12047   5.502   2.148   4.227 -0.3113 -0.8906  0.1028
 1339ETH     HC12048   5.391   2.208   4.110 -1.3872  0.3900 -0.1980
 1339ETH     HC12049   5.312   2.179   4.368  0.1610 -0.6843  0.4265
 1339ETH     HC12050   5.213   2.071   4.265 -0.8037 -0.5187  4.3629
 1339ETH     HC12051   5.349   2.010   4.347 -0.8972 -2.6445 -3.3278
 1340ETH     OH12052   4.189   1.181   1.947  0.1229 -0.1040  0.2843
 1340ETH     CH12053   4.286   1.231   1.857 -0.1042  0.1183  0.1626
 1340ETH     CH12054   4.419   1.221   1.932  0.0645  0.4133 -0.0953
 1340ETH     HO12055   4.126   1.135   1.893 -0.1033  1.5347 -0.8725
 1340ETH     HC12056   4.285   1.171   1.766  0.0671 -0.2505  0.4022
 1340ETH     HC12057   4.270   1.333   1.824  0.6005  0.0245 -0.4830
 1340ETH     HC12058   4.425   1.117   1.966 -1.3101  0.2493 -0.3202
 1340ETH     HC12059   4.510   1.228   1.871  2.6220 -1.6726  3.2676
 1340ETH     HC12060   4.422   1.289   2.017  0.9279 -1.3392  1.3098
 1341ETH     OH12061   5.338   6.015   3.285 -0.2390 -0.0765 -0.2435
 1341ETH     CH12062   5.443   6.109   3.276 -0.3497  0.0203 -0.5257
 1341ETH     CH12063   5.387   6.237   3.339 -0.3826  0.1906 -0.8939
 1341ETH     HO12064   5.286   6.021   3.206  0.2268  1.7379 -0.4345
 1341ETH     HC12065   5.527   6.073   3.335 -0.6627  0.5464  0.2542
 1341ETH     HC12066   5.472   6.119   3.171  3.5087 -0.9410  0.4042
 1341ETH     HC12067   5.354   6.215   3.441  1.0027  2.0988 -0.0022
 1341ETH     HC12068   5.471   6.305   3.332 -0.3209  0.1745 -0.3475
 1341ETH     HC12069   5.302   6.279   3.285 -0.3026  0.6564 -0.6623
 1342ETH     OH12070   5.943   3.874   5.143  0.0908 -0.3368 -0.0802
 1342ETH     CH12071   5.837   3.790   5.105  0.4164 -0.5099 -0.6108
 1342ETH     CH12072   5.774   3.714   5.222 -0.2222  0.1136 -0.5493
 1342ETH     HO12073   6.026   3.831   5.127  0.1031  0.0257 -0.9864
 1342ETH     HC12074   5.766   3.851   5.050  0.0986  0.4694  0.8496
 1342ETH     HC12075   5.880   3.716   5.038 -0.0579  0.4716 -2.0240
 1342ETH     HC12076   5.679   3.663   5.207  0.4647 -1.0777 -0.8641
 1342ETH     HC12077   5.838   3.639   5.268  3.3582  1.6650 -2.7943
 1342ETH     HC12078   5.753   3.786   5.302 -0.4154 -0.2023 -0.3144
 1343ETH     OH12079   5.844   6.024   5.031  0.0721  0.0886 -0.0766
 1343ETH     CH12080   5.789   6.065   4.907  0.7563 -0.4829 -0.5708
 1343ETH     CH12081   5.652   6.006   4.873  0.3465  0.1019  0.0583
 1343ETH     HO12082   5.921   6.077   5.045  0.4807 -1.1546  2.5110
 1343ETH     HC12083   5.786   6.173   4.903  1.5996 -0.3384  1.7685
 1343ETH     HC12084   5.866   6.035   4.836 -0.1123 -1.7812 -1.0096
 1343ETH     HC12085   5.668   5.900   4.853  1.5612  0.3330 -0.2047
 1343ETH     HC12086   5.576   6.013   4.951  2.1556 -0.8062  1.9398
 1343ETH     HC12087   5.621   6.052   4.779 -1.5320 -0.4756  0.3708
 1344ETH     OH12088   2.738   0.140   4.023 -0.0122  0.0052  0.0236
 1344ETH     CH12089   2.605   0.127   3.975 -0.2781  1.0659  0.4519
 1344ETH     CH12090   2.602   0.184   3.833  0.7533  0.0826  0.0279
 1344ETH     HO12091   2.747   0.110   4.112 -2.2330 -0.2691  0.1832
 1344ETH     HC12092   2.575   0.023   3.965  0.1172  1.1154 -1.4654
 1344ETH     HC12093   2.541   0.186   4.041  0.2766  0.4027  1.6003
 1344ETH     HC12094   2.497   0.178   3.804  0.3607  2.1742  0.9413
 1344ETH     HC12095   2.632   0.289   3.833  0.4884  0.1532 -0.5719
 1344ETH     HC12096   2.669   0.126   3.769  0.2035  0.5769 -0.9963
 1345ETH     OH12097   2.222   2.282   4.537 -0.1302 -0.2919  0.7639
 1345ETH     CH12098   2.101   2.301   4.606 -0.2641  0.2730  0.3789
 1345ETH     CH12099   1.990   2.215   4.545  0.2495 -0.4768  0.4922
 1345ETH     HO12100   2.284   2.329   4.591  0.7976 -1.6785  0.9415
 1345ETH     HC12101   2.099   2.307   4.715  1.2760  0.4239  0.4063
 1345ETH     HC12102   2.062   2.401   4.587  1.5486  1.3770  2.2510
 1345ETH     HC12103   2.002   2.110   4.573  1.2548 -0.4630  0.1544
 1345ETH     HC12104   1.885   2.236   4.565 -0.2043 -0.7103 -1.5261
 1345ETH     HC12105   1.983   2.222   4.436 -0.8767 -0.2093  0.5832
 1346ETH     OH12106   6.120   3.208   1.040  0.0030 -0.0235  0.6569
 1346ETH     CH12107   6.134   3.334   0.976  0.1383 -0.3010  0.1368
 1346ETH     CH12108   6.046   3.439   1.043 -0.1935 -0.3852 -0.1709
 1346ETH     HO12109   6.185   3.153   1.001 -2.4892 -1.9104 -0.9705
 1346ETH     HC12110   6.238   3.366   0.976 -0.4173  1.5458 -2.0898
 1346ETH     HC12111   6.097   3.324   0.875 -0.9545 -1.8508  0.6662
 1346ETH     HC12112   6.041   3.509   0.960 -2.5231 -1.5820 -1.0998
 1346ETH     HC12113   5.940   3.412   1.052 -0.1924 -0.4534 -0.3473
 1346ETH     HC12114   6.084   3.489   1.132  0.0197 -0.6573 -0.1089
 1347ETH     OH12115   3.139   3.427   3.013  0.1592 -0.3982  0.0614
 1347ETH     CH12116   3.044   3.429   2.909  0.1772  0.4901  0.0600
 1347ETH     CH12117   2.914   3.492   2.960 -0.2077  0.0387 -0.3592
 1347ETH     HO12118   3.102   3.372   3.080 -0.0992  1.0896  1.1540
 1347ETH     HC12119   3.089   3.479   2.823  0.7206 -1.1008 -0.5874
 1347ETH     HC12120   3.017   3.329   2.877 -0.2299 -1.4393  5.8931
 1347ETH     HC12121   2.838   3.504   2.883 -0.4129  1.0414 -0.0012
 1347ETH     HC12122   2.860   3.428   3.030  0.0235 -0.1594 -0.3604
 1347ETH     HC12123   2.929   3.581   3.022  1.9786 -1.4044  1.2795
 1348ETH     OH12124   4.385   6.247   1.045 -0.8323 -0.4207 -0.1520
 1348ETH     CH12125   4.276   6.205   0.966 -1.2662 -0.1184  0.2745
 1348ETH     CH12126   4.183   6.323   0.941 -0.4361  0.5124  0.1551
 1348ETH     HO12127   4.459   6.189   1.039 -1.2306 -0.9616  0.1615
 1348ETH     HC12128   4.304   6.171   0.866  1.1726  2.6543 -0.0618
 1348ETH     HC12129   4.225   6.131   1.027  0.4696 -1.2204  0.4419
 1348ETH     HC12130   4.110   6.299   0.864  0.5123 -1.8395 -0.0373
 1348ETH     HC12131   4.132   6.348   1.034  0.3954 -0.3499  0.8523
 1348ETH     HC12132   4.229   6.415   0.904 -2.0469  1.6766  0.9967
 1349ETH     OH12133   1.746   1.957   1.903  0.2134 -0.1097 -0.6617
 1349ETH     CH12134   1.834   2.067   1.903 -0.0057  0.0623 -0.1337
 1349ETH     CH12135   1.878   2.099   2.046 -0.0590  0.8873 -0.2966
 1349ETH     HO12136   1.784   1.892   1.960  0.8445 -0.8432 -1.8890
 1349ETH     HC12137   1.917   2.053   1.835 -0.8606 -0.2936 -1.1194
 1349ETH     HC12138   1.759   2.133   1.857  0.8805 -0.5761 -2.5475
 1349ETH     HC12139   1.968   2.161   2.049  2.2172 -2.2595 -0.4778
 1349ETH     HC12140   1.797   2.142   2.105  0.5815  0.0638  1.2223
 1349ETH     HC12141   1.908   2.009   2.100 -1.7274  0.5255  0.0467
 1350ETH     OH12142   3.437   1.234   3.308  0.5409  0.0229  0.1130
 1350ETH     CH12143   3.335   1.145   3.271  0.3514  0.3431 -0.1300
 1350ETH     CH12144   3.211   1.197   3.345  0.4957 -0.4204  0.6593
 1350ETH     HO12145   3.441   1.299   3.240 -1.9972 -1.7023 -1.7566
 1350ETH     HC12146   3.315   1.141   3.164  1.0559 -2.2753 -0.1975
 1350ETH     HC12147   3.351   1.039   3.290 -1.5003 -0.0652 -0.6766
 1350ETH     HC12148   3.227   1.203   3.452  1.6642  2.8703  0.3731
 1350ETH     HC12149   3.187   1.300   3.318  1.0138 -0.0295  1.6846
 1350ETH     HC12150   3.132   1.126   3.325  1.8391 -2.0504  1.0068
 1351ETH     OH12151   3.104   5.421   2.797  0.1077  0.5229 -0.1404
 1351ETH     CH12152   2.964   5.424   2.783  0.0517 -0.8319  0.0421
 1351ETH     CH12153   2.923   5.340   2.662  0.0544 -0.2109 -0.3935
 1351ETH     HO12154   3.139   5.474   2.727 -1.0520  0.0668 -1.0660
 1351ETH     HC12155   2.932   5.373   2.874  0.1840  1.4781  1.4435
 1351ETH     HC12156   2.930   5.528   2.779  2.6728  0.0825  0.5983
 1351ETH     HC12157   2.971   5.377   2.572  0.0312  1.9703  0.4420
 1351ETH     HC12158   2.953   5.237   2.679  3.6000  0.9930  1.1140
 1351ETH     HC12159   2.816   5.346   2.644 -0.1303  0.3524  0.8062
 1352ETH     OH12160   2.850   6.263   1.713  0.6886  0.6459  0.4953
 1352ETH     CH12161   2.749   6.249   1.616  1.2518 -0.3103  0.0314
 1352ETH     CH12162   2.722   6.376   1.534  0.0341 -0.5278  0.0738
 1352ETH     HO12163   2.871   6.172   1.729 -0.4710  0.1758 -0.5696
 1352ETH     HC12164   2.778   6.171   1.546  0.7678 -0.1852 -0.3134
 1352ETH     HC12165   2.658   6.210   1.663  1.4791 -0.2113  0.5561
 1352ETH     HC12166   2.798   6.403   1.461  0.1205 -1.3660 -0.1537
 1352ETH     HC12167   2.640   6.369   1.463 -0.8431 -2.8991  1.2804
 1352ETH     HC12168   2.699   6.458   1.603  1.5681  2.0865 -2.3889
 1353ETH     OH12169   3.638   4.642   1.527  0.1883  0.1928 -0.2612
 1353ETH     CH12170   3.656   4.517   1.591  0.0183  0.4746  0.3387
 1353ETH     CH12171   3.627   4.528   1.741  0.1995  0.4465  0.3755
 1353ETH     HO12172   3.566   4.682   1.573  0.2277 -2.6641  2.4737
 1353ETH     HC12173   3.583   4.444   1.556 -0.6613  0.6295  1.4264
 1353ETH     HC12174   3.752   4.472   1.567 -0.1519  0.0366  0.4754
 1353ETH     HC12175   3.701   4.581   1.801  2.1343 -1.2603 -0.4240
 1353ETH     HC12176   3.540   4.590   1.764  0.6782  1.5670 -0.7093
 1353ETH     HC12177   3.605   4.430   1.781  1.6280 -0.4957 -1.0686
 1354ETH     OH12178   5.022   1.725   5.120  0.0668  0.1777  0.1228
 1354ETH     CH12179   5.049   1.692   4.986 -0.0417 -0.2280  0.2013
 1354ETH     CH12180   5.147   1.574   4.979 -0.1459 -0.2926 -0.2038
 1354ETH     HO12181   4.979   1.809   5.116 -0.6123 -0.2538 -2.3705
 1354ETH     HC12182   4.955   1.666   4.937 -0.4517 -0.2692  0.9998
 1354ETH     HC12183   5.095   1.774   4.931 -0.1723 -0.6059 -0.4876
 1354ETH     HC12184   5.248   1.604   5.008 -1.1938  1.0920  2.1786
 1354ETH     HC12185   5.116   1.483   5.029  0.7467  0.0477  0.9859
 1354ETH     HC12186   5.152   1.544   4.874  1.4044 -0.1228 -0.1850
 1355ETH     OH12187   3.756   0.602   1.248 -0.0423 -0.9464 -0.0486
 1355ETH     CH12188   3.781   0.585   1.386 -0.0906 -0.5058  0.0136
 1355ETH     CH12189   3.824   0.715   1.454 -0.3749 -0.3501 -0.1048
 1355ETH     HO12190   3.768   0.521   1.201 -2.8010  0.4583 -3.3402
 1355ETH     HC12191   3.696   0.553   1.447  1.2285  0.9242  2.7118
 1355ETH     HC12192   3.860   0.511   1.396  2.4282  2.0483 -0.1585
 1355ETH     HC12193   3.744   0.789   1.459 -0.3221 -0.3660  1.0976
 1355ETH     HC12194   3.828   0.692   1.560 -1.1252  0.2969  0.0726
 1355ETH     HC12195   3.922   0.755   1.426  0.0622 -2.4571 -1.6250
 1356ETH     OH12196   4.896   6.162   5.248  0.0907 -0.0578 -0.3932
 1356ETH     CH12197   4.879   6.025   5.274 -0.3160 -0.0269 -0.4875
 1356ETH     CH12198   4.985   5.953   5.190  0.7492 -0.0141  0.8212
 1356ETH     HO12199   4.987   6.184   5.266  0.7899 -2.7754 -0.3585
 1356ETH     HC12200   4.889   5.999   5.380  1.1245  2.7573  0.1080
 1356ETH     HC12201   4.786   6.000   5.224 -0.5748 -0.4550  0.2075
 1356ETH     HC12202   5.081   6.005   5.192 -0.1895  1.9507 -2.1048
 1356ETH     HC12203   4.997   5.846   5.204  0.2327 -0.3809 -1.4144
 1356ETH     HC12204   4.956   5.981   5.089 -0.4528  0.1779  1.2104
 1357ETH     OH12205   1.755   3.940   6.047 -0.0607 -0.1175  0.2849
 1357ETH     CH12206   1.895   3.953   6.060 -0.0199 -0.1598 -0.1116
 1357ETH     CH12207   1.977   3.906   5.940 -0.1371 -0.0024 -0.2550
 1357ETH     HO12208   1.711   3.949   6.131 -2.7602 -0.2785 -1.0683
 1357ETH     HC12209   1.918   4.059   6.071 -0.5932 -0.1553  1.1222
 1357ETH     HC12210   1.928   3.908   6.154 -0.3325 -0.9548 -0.3809
 1357ETH     HC12211   1.984   3.798   5.932 -0.8371 -0.1153  0.5432
 1357ETH     HC12212   1.944   3.950   5.846  0.7379  0.5500 -0.3028
 1357ETH     HC12213   2.079   3.927   5.971  0.5968 -0.1649 -2.5025
 1358ETH     OH12214   2.661   3.207   4.908 -0.1128  0.4986 -0.3475
 1358ETH     CH12215   2.763   3.157   4.991 -0.2018  0.2105 -0.4094
 1358ETH     CH12216   2.869   3.266   5.012 -0.5533  0.4443  0.1753
 1358ETH     HO12217   2.701   3.208   4.822  2.8369 -1.1256  0.9185
 1358ETH     HC12218   2.704   3.138   5.081 -1.4126 -0.6518 -1.3876
 1358ETH     HC12219   2.804   3.063   4.954  2.2919  0.1804  2.1752
 1358ETH     HC12220   2.826   3.363   5.037 -0.4644  0.2691  0.9974
 1358ETH     HC12221   2.929   3.223   5.092 -0.9641  1.3672  0.9938
 1358ETH     HC12222   2.935   3.277   4.926 -2.7152 -0.3042 -1.6551
 1359ETH     OH12223   5.226   6.056   3.015 -0.2706 -0.2350 -0.8106
 1359ETH     CH12224   5.096   6.089   2.972 -0.5923 -0.1263  0.2468
 1359ETH     CH12225   5.092   6.164   2.839 -0.7061 -0.4076  0.0905
 1359ETH     HO12226   5.271   6.011   2.945 -0.0148 -0.9920 -0.1638
 1359ETH     HC12227   5.047   5.991   2.972  0.6857 -0.7987  2.1396
 1359ETH     HC12228   5.044   6.151   3.045  0.3670  2.5127 -1.2408
 1359ETH     HC12229   5.108   6.267   2.869 -0.3955 -1.0595  2.2341
 1359ETH     HC12230   5.170   6.133   2.769  0.4225  1.1904  0.6078
 1359ETH     HC12231   5.001   6.171   2.780  0.0704 -0.6508 -1.1455
 1360ETH     OH12232   5.297   3.852   1.257 -0.2475  0.5703 -0.1276
 1360ETH     CH12233   5.196   3.895   1.345 -0.4055  0.4357 -0.2415
 1360ETH     CH12234   5.166   3.792   1.455  0.3138  0.0849 -0.3692
 1360ETH     HO12235   5.309   3.930   1.205 -2.2382  1.9026  1.3576
 1360ETH     HC12236   5.234   3.982   1.397 -0.6624  0.9776 -0.9645
 1360ETH     HC12237   5.099   3.900   1.295 -0.5305 -2.5843 -0.4393
 1360ETH     HC12238   5.257   3.779   1.512  0.8158  1.5686 -0.8164
 1360ETH     HC12239   5.083   3.823   1.518  0.2301 -3.3498  1.3171
 1360ETH     HC12240   5.148   3.692   1.415  0.5946  0.5846 -1.7838
 1361ETH     OH12241   5.220   4.897   3.783 -0.6116 -0.0168  0.6457
 1361ETH     CH12242   5.202   4.758   3.768 -0.5596  0.0582 -0.1318
 1361ETH     CH12243   5.052   4.728   3.775 -0.5733  0.1542 -0.0154
 1361ETH     HO12244   5.178   4.927   3.704  0.8148 -0.4523 -0.2990
 1361ETH     HC12245   5.261   4.727   3.682  3.5389  1.1599  2.1474
 1361ETH     HC12246   5.250   4.713   3.855  2.1863  0.0117 -1.6278
 1361ETH     HC12247   4.980   4.753   3.698 -1.3389  0.8331  0.9091
 1361ETH     HC12248   5.044   4.619   3.772  0.6853  0.0484 -0.0104
 1361ETH     HC12249   4.997   4.764   3.862 -0.3452  2.2593 -0.7095
 1362ETH     OH12250   4.482   1.180   3.588 -0.2590 -0.1054 -0.0842
 1362ETH     CH12251   4.457   1.191   3.727 -0.5585  0.1032 -0.1555
 1362ETH     CH12252   4.483   1.335   3.772  0.0896 -0.0437 -0.0624
 1362ETH     HO12253   4.423   1.239   3.545 -0.5384  0.1823  0.6734
 1362ETH     HC12254   4.351   1.175   3.744 -0.6545 -0.9417 -1.6363
 1362ETH     HC12255   4.512   1.113   3.780  0.2353 -0.3556 -1.6249
 1362ETH     HC12256   4.476   1.343   3.880 -0.3323  0.3634 -0.1191
 1362ETH     HC12257   4.589   1.353   3.752 -0.4997  4.6584  0.4374
 1362ETH     HC12258   4.415   1.402   3.719  2.0645  0.4197 -2.1279
 1363ETH     OH12259   3.952   2.525   1.837 -0.2614  0.1128  0.0884
 1363ETH     CH12260   3.887   2.573   1.722 -0.5345  0.3940  0.3598
 1363ETH     CH12261   3.784   2.679   1.761 -0.7882  0.1317  0.4035
 1363ETH     HO12262   4.013   2.459   1.808  0.3133  1.3045 -1.4819
 1363ETH     HC12263   3.949   2.627   1.650 -1.2282 -1.2119 -1.4901
 1363ETH     HC12264   3.826   2.500   1.669 -1.8880  1.2360  0.7132
 1363ETH     HC12265   3.746   2.737   1.677 -0.1001  0.9749  0.6582
 1363ETH     HC12266   3.702   2.636   1.819 -1.0089 -0.6422 -0.4669
 1363ETH     HC12267   3.833   2.752   1.826  0.3166  0.4766 -0.8126
 1364ETH     OH12268   2.632   1.058   2.470  0.0767 -0.4699  0.2491
 1364ETH     CH12269   2.750   1.100   2.535  0.3668 -0.0611 -0.5329
 1364ETH     CH12270   2.840   0.978   2.550  0.1758 -0.1672 -0.2346
 1364ETH     HO12271   2.646   1.073   2.378 -0.5560  0.2009  0.2622
 1364ETH     HC12272   2.783   1.190   2.483 -0.5634  2.5631  3.1707
 1364ETH     HC12273   2.716   1.134   2.633 -1.2354 -1.9611 -0.4092
 1364ETH     HC12274   2.781   0.907   2.608  1.2249 -0.7743  0.1052
 1364ETH     HC12275   2.883   0.918   2.470 -0.1016 -1.8803  0.8776
 1364ETH     HC12276   2.927   1.006   2.610 -0.7635  1.2927  0.4662
 1365ETH     OH12277   1.636   1.127   4.491 -0.3709 -0.5934 -0.0337
 1365ETH     CH12278   1.649   1.105   4.352  0.2324 -0.2583 -0.0332
 1365ETH     CH12279   1.719   0.974   4.318 -0.1150 -0.4005 -0.2003
 1365ETH     HO12280   1.571   1.064   4.519  2.0143 -2.6662  1.0242
 1365ETH     HC12281   1.560   1.119   4.291 -1.6728  0.8316  2.8484
 1365ETH     HC12282   1.719   1.181   4.317  1.1282 -1.1892 -0.2759
 1365ETH     HC12283   1.664   0.891   4.364 -0.3412 -0.9136 -1.3598
 1365ETH     HC12284   1.717   0.971   4.209 -0.3619  1.5023 -0.2674
 1365ETH     HC12285   1.819   1.001   4.352 -1.0601  0.6343  1.8300
 1366ETH     OH12286   1.633   4.157   1.441  0.1016 -0.3375 -0.0507
 1366ETH     CH12287   1.770   4.150   1.408  0.1020  0.5734 -0.2555
 1366ETH     CH12288   1.807   4.039   1.309 -0.8438  0.6167 -0.6620
 1366ETH     HO12289   1.611   4.079   1.490 -0.7941 -1.3225 -1.9393
 1366ETH     HC12290   1.814   4.246   1.383 -0.5118  0.7463 -0.6927
 1366ETH     HC12291   1.820   4.116   1.499  0.8081  3.6968  0.5535
 1366ETH     HC12292   1.793   4.073   1.206  1.5716 -0.1175 -1.2545
 1366ETH     HC12293   1.913   4.017   1.315 -1.2718 -1.1568  1.0795
 1366ETH     HC12294   1.758   3.943   1.322  1.6523 -0.4962  0.7769
 1367ETH     OH12295   0.464   4.325   4.495  0.1487 -0.5658 -0.0281
 1367ETH     CH12296   0.421   4.428   4.581  0.5737 -0.6180  0.2467
 1367ETH     CH12297   0.486   4.408   4.718  0.5232 -0.5646  0.2782
 1367ETH     HO12298   0.490   4.367   4.414 -0.6534  0.4947  0.2527
 1367ETH     HC12299   0.442   4.528   4.543  3.8488 -1.0058  0.8749
 1367ETH     HC12300   0.312   4.416   4.582  0.6789 -1.6559 -0.4956
 1367ETH     HC12301   0.588   4.368   4.713 -0.4707 -3.2682  0.6528
 1367ETH     HC12302   0.492   4.500   4.776 -0.9006 -1.7656  2.4136
 1367ETH     HC12303   0.428   4.332   4.770 -0.0377 -1.2303 -1.2792
 1368ETH     OH12304   4.992   4.338   5.289  0.6573  0.4054 -0.3458
 1368ETH     CH12305   5.084   4.245   5.237  0.3328 -0.1829  0.1201
 1368ETH     CH12306   5.024   4.180   5.112  0.0556  0.4145 -0.0590
 1368ETH     HO12307   4.908   4.297   5.302 -0.2810  2.5597  0.6908
 1368ETH     HC12308   5.178   4.299   5.225  0.4792 -0.1755  1.2658
 1368ETH     HC12309   5.097   4.169   5.314  1.6251  0.6082  0.7025
 1368ETH     HC12310   5.092   4.114   5.057 -0.2753  1.0213 -1.2058
 1368ETH     HC12311   4.940   4.122   5.149 -1.9897  2.1079 -1.8959
 1368ETH     HC12312   5.000   4.251   5.032  0.1956 -1.8274 -2.1575
 1369ETH     OH12313   4.839   4.802   4.303 -0.8171  0.0975 -0.0290
 1369ETH     CH12314   4.804   4.760   4.173 -0.2496 -0.1861 -0.0934
 1369ETH     CH12315   4.817   4.611   4.143  0.8040  0.0573 -0.8392
 1369ETH     HO12316   4.932   4.823   4.305 -0.7769 -0.1377  2.0366
 1369ETH     HC12317   4.698   4.784   4.159  0.3853  1.1761 -2.8219
 1369ETH     HC12318   4.860   4.812   4.096 -0.9397 -0.0169 -0.4832
 1369ETH     HC12319   4.800   4.553   4.234 -0.7516 -1.3077 -1.9843
 1369ETH     HC12320   4.750   4.574   4.066 -2.2256  0.1666  1.6801
 1369ETH     HC12321   4.917   4.579   4.112  0.5215 -1.9186  0.1637
 1370ETH     OH12322   2.386   2.466   4.660 -0.1310 -0.3796 -0.6442
 1370ETH     CH12323   2.357   2.533   4.781 -0.7389 -0.4997 -0.7213
 1370ETH     CH12324   2.376   2.441   4.901  0.1236  0.2869 -0.2491
 1370ETH     HO12325   2.434   2.527   4.607  1.5576 -1.4648 -0.4093
 1370ETH     HC12326   2.432   2.610   4.797 -0.5831 -1.3082  2.7773
 1370ETH     HC12327   2.261   2.584   4.779 -0.6887 -0.3698 -0.0083
 1370ETH     HC12328   2.340   2.340   4.879 -1.2929  1.2246 -2.3351
 1370ETH     HC12329   2.482   2.430   4.924  0.8373 -0.4837 -3.7100
 1370ETH     HC12330   2.340   2.466   5.001 -0.7687  0.9290 -0.7276
 1371ETH     OH12331   4.129   2.419   3.403  0.4590  0.3368 -0.1618
 1371ETH     CH12332   4.065   2.515   3.322 -0.1569 -0.1746 -0.2788
 1371ETH     CH12333   4.171   2.578   3.231  0.9176 -0.5532  0.7055
 1371ETH     HO12334   4.134   2.332   3.368  0.9177 -0.1526  1.0725
 1371ETH     HC12335   4.004   2.442   3.268 -0.5342  0.1843 -0.3382
 1371ETH     HC12336   4.016   2.592   3.381  2.5964  2.6103 -1.4847
 1371ETH     HC12337   4.138   2.670   3.184 -0.5628 -0.8513  1.1157
 1371ETH     HC12338   4.265   2.606   3.279  1.3270 -0.1337 -0.3372
 1371ETH     HC12339   4.189   2.515   3.144 -0.7005 -2.4738  1.7009
 1372ETH     OH12340   5.844   1.400   2.860 -0.2495  0.3636  0.1353
 1372ETH     CH12341   5.704   1.397   2.838 -0.1963 -0.3458 -0.0967
 1372ETH     CH12342   5.648   1.536   2.811 -0.0691 -0.3099 -0.1798
 1372ETH     HO12343   5.871   1.310   2.851  0.6863  0.4470  1.9460
 1372ETH     HC12344   5.685   1.340   2.748 -1.7391  1.7215 -1.1034
 1372ETH     HC12345   5.658   1.350   2.925 -0.8846 -0.0439 -0.3031
 1372ETH     HC12346   5.547   1.516   2.773  0.2881 -1.7035 -0.4273
 1372ETH     HC12347   5.663   1.608   2.891  0.7803 -2.0376  1.2336
 1372ETH     HC12348   5.705   1.576   2.727 -0.0408 -1.6209 -0.7922
 1373ETH     OH12349   4.468   2.553   5.413  0.3289  0.0403 -0.7255
 1373ETH     CH12350   4.412   2.682   5.405 -0.3553 -0.2098  0.0438
 1373ETH     CH12351   4.397   2.742   5.545 -0.6640 -0.0816 -0.0450
 1373ETH     HO12352   4.561   2.549   5.431  0.2315 -1.7744 -0.4673
 1373ETH     HC12353   4.477   2.753   5.355  0.3932 -0.1488  1.0895
 1373ETH     HC12354   4.316   2.666   5.356 -0.1376 -0.7348 -0.2238
 1373ETH     HC12355   4.357   2.674   5.620  1.1955 -2.5035 -1.1838
 1373ETH     HC12356   4.494   2.775   5.581  0.0083 -0.0742 -1.8319
 1373ETH     HC12357   4.337   2.832   5.536  1.5787  1.6864  2.1348
 1374ETH     OH12358   4.402   4.917   1.009 -0.4035  0.2168  0.3276
 1374ETH     CH12359   4.417   5.027   1.096 -0.4149  0.4464  0.0399
 1374ETH     CH12360   4.517   5.129   1.044 -0.2450  0.1499 -0.2186
 1374ETH     HO12361   4.368   4.956   0.930 -1.8024 -1.7409 -0.0720
 1374ETH     HC12362   4.325   5.085   1.101 -0.1875  0.7227  1.0601
 1374ETH     HC12363   4.444   5.001   1.198  1.6091  0.0265 -0.5846
 1374ETH     HC12364   4.609   5.076   1.018  0.5284  0.2756  2.1811
 1374ETH     HC12365   4.487   5.175   0.949  2.5294  1.0097 -0.7590
 1374ETH     HC12366   4.542   5.208   1.115  1.5203 -1.4725  1.0199
 1375ETH     OH12367   1.606   4.810   4.332  0.1757 -0.1789  0.5200
 1375ETH     CH12368   1.578   4.864   4.459 -0.0792  0.2180  0.2942
 1375ETH     CH12369   1.444   4.803   4.500  0.2308 -0.2972  0.5427
 1375ETH     HO12370   1.593   4.717   4.343 -0.8838 -0.0164  0.7231
 1375ETH     HC12371   1.657   4.833   4.527  0.4455  0.4906 -0.1860
 1375ETH     HC12372   1.582   4.973   4.458  0.1902  0.2078 -0.5755
 1375ETH     HC12373   1.435   4.704   4.455 -0.3510 -0.0188  0.0306
 1375ETH     HC12374   1.437   4.777   4.605 -1.2870 -0.6821  0.3602
 1375ETH     HC12375   1.361   4.870   4.478  0.8744  0.4768  0.4573
 1376ETH     OH12376   1.980   0.441   1.332  0.0484 -0.2442  0.3218
 1376ETH     CH12377   1.958   0.362   1.218 -0.4515  0.5628 -0.1459
 1376ETH     CH12378   1.810   0.390   1.191 -0.5066  0.6670  0.2603
 1376ETH     HO12379   2.019   0.399   1.407  1.5195 -0.0403 -0.3149
 1376ETH     HC12380   2.019   0.383   1.130  1.6736 -0.5502  1.0281
 1376ETH     HC12381   1.983   0.259   1.243  2.9159  1.7794  1.7778
 1376ETH     HC12382   1.746   0.384   1.279 -1.1896  0.6415 -0.2359
 1376ETH     HC12383   1.790   0.486   1.144  0.1880  0.7600  0.1544
 1376ETH     HC12384   1.775   0.315   1.119 -1.5385 -0.7024  2.1498
 1377ETH     OH12385   1.879   0.530   5.206  0.1642 -0.2868 -0.2556
 1377ETH     CH12386   1.875   0.659   5.150 -0.0537 -0.2265 -0.1012
 1377ETH     CH12387   2.020   0.696   5.117 -0.3731  0.7570 -0.4241
 1377ETH     HO12388   1.792   0.494   5.194 -0.6215  1.1782  0.9554
 1377ETH     HC12389   1.813   0.649   5.062  1.0857  1.3848 -1.1263
 1377ETH     HC12390   1.825   0.723   5.222  3.2760  0.4770  1.7170
 1377ETH     HC12391   2.079   0.710   5.208  0.5583  1.5270 -1.1346
 1377ETH     HC12392   2.062   0.612   5.062  0.2230  1.7234 -1.4561
 1377ETH     HC12393   2.013   0.783   5.052  0.9657  1.4121  0.2930
 1378ETH     OH12394   3.486   6.215   1.241 -0.4709 -0.4308 -0.0745
 1378ETH     CH12395   3.414   6.105   1.291 -0.1521 -0.4800  0.2794
 1378ETH     CH12396   3.506   5.985   1.272  0.1807 -0.2034  0.1424
 1378ETH     HO12397   3.444   6.248   1.163 -0.3810 -2.5356 -1.0276
 1378ETH     HC12398   3.401   6.121   1.398 -0.0286  1.8696 -0.0364
 1378ETH     HC12399   3.322   6.106   1.232  0.5240 -0.2772 -0.7737
 1378ETH     HC12400   3.451   5.892   1.288 -3.2611  2.1687  2.8981
 1378ETH     HC12401   3.531   5.979   1.166  0.9015  0.7747  0.2539
 1378ETH     HC12402   3.602   5.994   1.323 -0.3790  1.4417  0.9248
 1379ETH     OH12403   2.101   6.016   1.989  0.5968  0.6359 -0.6528
 1379ETH     CH12404   2.009   6.077   1.902 -0.1231  0.5826  0.0666
 1379ETH     CH12405   1.884   5.990   1.896  0.0932  0.2705  0.0684
 1379ETH     HO12406   2.102   6.061   2.072 -2.5048 -1.3672  0.5568
 1379ETH     HC12407   1.982   6.178   1.933  1.3868  1.0606 -0.1226
 1379ETH     HC12408   2.062   6.075   1.807  0.7510 -0.7078  0.5751
 1379ETH     HC12409   1.806   6.045   1.843 -0.5820 -0.0097  0.7599
 1379ETH     HC12410   1.911   5.895   1.851  0.5305  1.4540 -2.2392
 1379ETH     HC12411   1.858   5.981   2.001  1.7234 -1.6746  0.3196
 1380ETH     OH12412   1.441   1.690   3.588 -0.3702  0.3825  0.2025
 1380ETH     CH12413   1.326   1.682   3.508  0.1229 -0.6558 -0.4198
 1380ETH     CH12414   1.212   1.631   3.597  0.5640 -0.0913  0.4765
 1380ETH     HO12415   1.503   1.748   3.545  2.4650 -2.3431  0.4109
 1380ETH     HC12416   1.304   1.784   3.473  2.3994 -0.8612 -2.5835
 1380ETH     HC12417   1.344   1.621   3.420 -0.3946  0.6573 -1.4676
 1380ETH     HC12418   1.241   1.536   3.642 -1.8668 -0.5457  1.1320
 1380ETH     HC12419   1.203   1.706   3.675 -0.9611  1.8219 -1.4833
 1380ETH     HC12420   1.116   1.615   3.548  0.9405 -1.1807  0.0669
 1381ETH     OH12421   1.040   4.130   5.547  0.0710  0.7974  0.0693
 1381ETH     CH12422   1.160   4.141   5.620  0.2668 -0.5880 -0.0436
 1381ETH     CH12423   1.268   4.041   5.577  0.2215 -0.3851 -0.6323
 1381ETH     HO12424   0.981   4.204   5.550 -0.4331  0.4009  0.0636
 1381ETH     HC12425   1.184   4.243   5.591 -1.4789 -0.1642 -0.0404
 1381ETH     HC12426   1.135   4.146   5.725  1.8400  1.1926  0.2694
 1381ETH     HC12427   1.238   3.943   5.614  0.2458  0.1821  0.9048
 1381ETH     HC12428   1.278   4.040   5.468 -1.0253  1.2758 -0.7830
 1381ETH     HC12429   1.361   4.068   5.625 -0.8321 -0.0146  1.2459
 1382ETH     OH12430   3.517   4.909   1.921  0.5416  0.2800 -0.2313
 1382ETH     CH12431   3.612   4.914   1.817  0.6620  0.4462 -0.1133
 1382ETH     CH12432   3.592   5.033   1.724 -0.5326  0.2827 -0.0771
 1382ETH     HO12433   3.502   4.996   1.956 -0.7340  0.0254 -0.1110
 1382ETH     HC12434   3.710   4.916   1.865  0.3453  0.4446  0.5468
 1382ETH     HC12435   3.608   4.827   1.751 -0.8352  2.4600 -2.7647
 1382ETH     HC12436   3.500   5.040   1.667 -0.7356 -0.2610  0.1845
 1382ETH     HC12437   3.611   5.128   1.775  2.3202 -1.1791  1.7766
 1382ETH     HC12438   3.680   5.024   1.660 -0.3943  0.9431  0.0099
 1383ETH     OH12439   5.666   2.979   0.999  0.2295 -0.1830 -0.1633
 1383ETH     CH12440   5.664   3.113   0.955  0.7305 -0.1434 -0.0696
 1383ETH     CH12441   5.812   3.149   0.958  0.6335  0.1867  0.6482
 1383ETH     HO12442   5.744   2.930   0.980  1.5377  1.4827  0.8027
 1383ETH     HC12443   5.622   3.116   0.854  3.1802  0.5493 -1.1138
 1383ETH     HC12444   5.611   3.175   1.027  0.6078 -1.2208  0.7666
 1383ETH     HC12445   5.873   3.108   0.877  0.8424  1.6696  0.0372
 1383ETH     HC12446   5.816   3.257   0.949 -1.3400  0.2659  0.4952
 1383ETH     HC12447   5.841   3.119   1.059  0.2201 -0.8083  0.4742
 1384ETH     OH12448   3.512   0.418   2.676  0.2965 -0.5645  0.2888
 1384ETH     CH12449   3.642   0.462   2.710  0.5019 -0.3960 -0.7232
 1384ETH     CH12450   3.646   0.614   2.697 -0.2205 -0.2959  0.2229
 1384ETH     HO12451   3.511   0.414   2.582  0.3016 -1.0634  0.3060
 1384ETH     HC12452   3.668   0.432   2.811  1.4121  0.3733 -0.7309
 1384ETH     HC12453   3.715   0.406   2.651  0.4949 -0.0323 -1.0854
 1384ETH     HC12454   3.748   0.643   2.721  0.1731 -2.2779  1.0290
 1384ETH     HC12455   3.639   0.651   2.595 -0.1688 -0.4087  0.1778
 1384ETH     HC12456   3.582   0.675   2.762 -2.0184 -1.5905 -0.2829
 1385ETH     OH12457   6.288   4.972   0.368 -0.6237  0.2010 -0.0780
 1385ETH     CH12458   6.210   5.004   0.255 -0.0238  0.2924 -0.4686
 1385ETH     CH12459   6.254   5.125   0.173  1.1035  0.0060 -0.2890
 1385ETH     HO12460   6.288   5.044   0.430  0.3546  1.7918 -1.8612
 1385ETH     HC12461   6.212   4.911   0.198 -1.2591 -1.7115  2.6119
 1385ETH     HC12462   6.102   5.008   0.273 -0.3065 -0.4818 -1.9162
 1385ETH     HC12463   6.229   5.217   0.226  3.0874 -0.3021  1.2636
 1385ETH     HC12464   6.362   5.121   0.162  1.1398 -0.4078  0.2173
 1385ETH     HC12465   6.200   5.129   0.079  2.1471  1.2412 -0.8457
 1386ETH     OH12466   0.478   6.055   1.685  0.1658  0.2874 -0.1166
 1386ETH     CH12467   0.393   6.048   1.797 -0.0169 -0.6596 -0.3092
 1386ETH     CH12468   0.280   6.150   1.784  0.3606 -0.1912  0.0532
 1386ETH     HO12469   0.433   6.108   1.620 -0.2567 -0.3536 -0.3542
 1386ETH     HC12470   0.361   5.944   1.795  0.1849 -0.7415  0.5530
 1386ETH     HC12471   0.465   6.067   1.876 -3.0296 -1.7022  2.8224
 1386ETH     HC12472   0.234   6.133   1.686 -2.3450 -2.4130  1.6509
 1386ETH     HC12473   0.205   6.133   1.861  0.8246 -0.7555  0.3832
 1386ETH     HC12474   0.311   6.254   1.797 -1.6380  0.4160  0.1141
 1387ETH     OH12475   1.534   0.282   0.327  0.2654 -0.5001 -0.0955
 1387ETH     CH12476   1.414   0.261   0.397  0.0792 -0.8735 -0.5255
 1387ETH     CH12477   1.435   0.154   0.505  0.0737  0.3098  0.6581
 1387ETH     HO12478   1.592   0.349   0.361 -2.5176  1.2997  1.2624
 1387ETH     HC12479   1.378   0.356   0.436  1.7225 -0.9766  1.3364
 1387ETH     HC12480   1.344   0.223   0.323  0.9567 -1.6919 -0.9473
 1387ETH     HC12481   1.464   0.195   0.602  3.8806 -3.0432  1.0583
 1387ETH     HC12482   1.339   0.104   0.512  1.1016 -1.5797  1.6222
 1387ETH     HC12483   1.500   0.076   0.466 -0.8147 -0.0996 -0.0198
 1388ETH     OH12484   1.111   3.437   1.351 -0.1060 -0.4505  0.7196
 1388ETH     CH12485   1.010   3.355   1.296  0.4943 -0.0982 -0.9342
 1388ETH     CH12486   0.961   3.415   1.164 -0.2297  0.3129 -0.4800
 1388ETH     HO12487   1.143   3.387   1.424 -0.1004 -4.1070 -1.6384
 1388ETH     HC12488   1.052   3.254   1.286  1.7905  0.1432  1.6028
 1388ETH     HC12489   0.925   3.331   1.359  0.7377  0.2620 -0.4670
 1388ETH     HC12490   0.903   3.503   1.189  1.2718  1.1921 -0.0016
 1388ETH     HC12491   1.054   3.434   1.110  0.9488 -0.1846  1.2971
 1388ETH     HC12492   0.896   3.346   1.110 -1.5553  1.8566 -0.8820
 1389ETH     OH12493   4.486   1.521   4.577 -0.2385  0.9769  0.7732
 1389ETH     CH12494   4.349   1.537   4.552 -0.2401 -0.3590 -0.1292
 1389ETH     CH12495   4.279   1.409   4.507 -0.3157 -0.5136  0.4259
 1389ETH     HO12496   4.523   1.608   4.583  1.1848  0.3322  1.7889
 1389ETH     HC12497   4.299   1.564   4.645  1.3580 -2.2656  1.3334
 1389ETH     HC12498   4.329   1.617   4.480 -0.5581  1.2141  1.6646
 1389ETH     HC12499   4.288   1.330   4.582  2.2063  0.9365  1.7390
 1389ETH     HC12500   4.175   1.438   4.493 -0.3002 -1.6108 -2.2403
 1389ETH     HC12501   4.318   1.384   4.408  2.6475  2.5519  0.7438
 1390ETH     OH12502   1.899   6.138   4.900 -0.3958  0.2237 -0.2591
 1390ETH     CH12503   2.002   6.227   4.863  0.0379 -0.1694  0.0036
 1390ETH     CH12504   1.945   6.368   4.849 -0.1406 -0.2978 -0.5861
 1390ETH     HO12505   1.859   6.104   4.821  1.3234 -0.0011 -1.0604
 1390ETH     HC12506   2.095   6.225   4.919 -0.4759  2.1162  1.0003
 1390ETH     HC12507   2.044   6.189   4.770 -1.1517 -2.0781  0.2288
 1390ETH     HC12508   2.026   6.428   4.806 -1.2410  0.2083 -1.9831
 1390ETH     HC12509   1.855   6.377   4.789 -0.5407  0.7735  0.1456
 1390ETH     HC12510   1.929   6.412   4.948  0.9508  3.0972 -1.8456
 1391ETH     OH12511   4.977   2.209   3.281  0.2355 -0.3113  0.0082
 1391ETH     CH12512   5.111   2.178   3.252  0.4220  0.8627 -0.4174
 1391ETH     CH12513   5.188   2.155   3.383 -0.2371 -0.0019 -0.1777
 1391ETH     HO12514   4.918   2.152   3.235 -0.2747 -0.1194  0.4190
 1391ETH     HC12515   5.126   2.096   3.182  0.3582  1.0065 -0.5966
 1391ETH     HC12516   5.153   2.260   3.193 -1.6449  1.3702 -1.2084
 1391ETH     HC12517   5.294   2.166   3.363  0.1942 -2.9833  0.2914
 1391ETH     HC12518   5.169   2.231   3.459 -0.7180 -1.3524  1.0732
 1391ETH     HC12519   5.165   2.052   3.408 -1.1483 -0.3445 -2.2802
 1392ETH     OH12520   3.162   1.645   5.195 -0.5304 -0.1822  0.2345
 1392ETH     CH12521   3.265   1.647   5.291 -0.8526  0.6190  0.5727
 1392ETH     CH12522   3.219   1.564   5.411 -0.2094  0.3966  0.6710
 1392ETH     HO12523   3.098   1.713   5.212 -0.2226 -0.2948  1.9856
 1392ETH     HC12524   3.359   1.609   5.250  0.7126  4.0195  0.8683
 1392ETH     HC12525   3.284   1.751   5.318 -0.4557  0.7016 -0.0006
 1392ETH     HC12526   3.127   1.600   5.458  0.5549  1.2565  1.5215
 1392ETH     HC12527   3.208   1.459   5.384 -0.8614  0.3076  1.2668
 1392ETH     HC12528   3.299   1.569   5.485  1.2982  0.8073 -0.9459
 1393ETH     OH12529   1.783   2.873   4.555 -0.1453  0.2965 -0.0666
 1393ETH     CH12530   1.673   2.928   4.623  0.0667  0.4475  0.1533
 1393ETH     CH12531   1.710   2.964   4.767  0.1478  0.7658  0.0557
 1393ETH     HO12532   1.762   2.862   4.463 -0.1024  1.5996 -0.2458
 1393ETH     HC12533   1.641   3.015   4.565 -0.4525 -0.8408 -1.5143
 1393ETH     HC12534   1.586   2.863   4.612  0.4210  0.4052 -2.7310
 1393ETH     HC12535   1.808   3.012   4.772 -0.1856  1.3942  0.7583
 1393ETH     HC12536   1.630   3.016   4.819  0.4710  1.6363 -0.3087
 1393ETH     HC12537   1.711   2.868   4.820 -0.5484 -0.0348 -1.3387
 1394ETH     OH12538   0.629   4.779   3.160  0.4589  0.5334  0.0939
 1394ETH     CH12539   0.558   4.864   3.072  0.5533 -0.0926 -0.5892
 1394ETH     CH12540   0.411   4.829   3.047  0.3595 -0.2150  0.6609
 1394ETH     HO12541   0.563   4.750   3.221  0.7627 -1.3294 -0.4238
 1394ETH     HC12542   0.540   4.954   3.131 -0.4892 -0.5866 -0.1286
 1394ETH     HC12543   0.617   4.880   2.982 -1.7442  0.8505 -1.9700
 1394ETH     HC12544   0.353   4.908   2.999  0.8731  0.3717  0.9965
 1394ETH     HC12545   0.406   4.737   2.990  0.5333  0.1850 -0.0062
 1394ETH     HC12546   0.371   4.800   3.144 -0.4872  1.1401  0.7317
 1395ETH     OH12547   2.347   2.185   4.152  0.1158  0.2773  0.1290
 1395ETH     CH12548   2.370   2.124   4.277 -0.3576 -0.5392 -0.1801
 1395ETH     CH12549   2.466   2.008   4.254  0.2863  0.0016 -0.2247
 1395ETH     HO12550   2.283   2.250   4.176 -0.7154  0.0931 -1.5768
 1395ETH     HC12551   2.417   2.200   4.339 -1.6033  0.7694 -0.8126
 1395ETH     HC12552   2.278   2.096   4.328  0.1287 -0.4137  0.7823
 1395ETH     HC12553   2.553   2.043   4.198  0.3543 -0.6573 -0.5375
 1395ETH     HC12554   2.495   1.967   4.351 -0.7069  0.4439  0.2627
 1395ETH     HC12555   2.417   1.940   4.183 -0.8969  0.5981  0.0108
 1396ETH     OH12556   2.011   4.194   4.706  0.4061 -0.4442  0.1015
 1396ETH     CH12557   1.985   4.067   4.651  0.3795 -0.2931 -0.2433
 1396ETH     CH12558   1.975   4.084   4.500  0.3650 -0.0535 -0.2158
 1396ETH     HO12559   2.014   4.177   4.798 -0.9720 -1.3018  0.0038
 1396ETH     HC12560   2.066   3.999   4.677  0.1113 -0.6216 -0.2644
 1396ETH     HC12561   1.890   4.030   4.691  1.0905 -0.9629  0.8838
 1396ETH     HC12562   1.954   3.987   4.453  2.4712  0.5171 -2.4329
 1396ETH     HC12563   1.886   4.141   4.474 -0.1906 -0.3820  0.9592
 1396ETH     HC12564   2.067   4.112   4.449  0.5453 -1.1452 -0.5108
 1397ETH     OH12565   0.840   2.703   1.381 -0.2398  0.2542 -0.2432
 1397ETH     CH12566   0.758   2.734   1.491  0.2920  0.2596  0.1535
 1397ETH     CH12567   0.661   2.618   1.515  0.2874  0.2547  0.1100
 1397ETH     HO12568   0.897   2.630   1.400 -2.1521 -1.7531 -1.9631
 1397ETH     HC12569   0.804   2.768   1.584 -3.6301  0.6229  2.0466
 1397ETH     HC12570   0.707   2.827   1.467 -0.8047 -0.4880 -0.4190
 1397ETH     HC12571   0.700   2.526   1.557 -1.1838 -1.0641 -1.3532
 1397ETH     HC12572   0.569   2.649   1.564  0.1068 -2.6617  1.6735
 1397ETH     HC12573   0.627   2.594   1.414 -0.2712  0.9411  0.1320
 1398ETH     OH12574   2.170   3.503   4.391  0.0984  0.0250  0.4357
 1398ETH     CH12575   2.179   3.363   4.379  0.5497  0.0511  0.4905
 1398ETH     CH12576   2.277   3.333   4.265  0.0401  0.6162 -0.0960
 1398ETH     HO12577   2.088   3.517   4.436 -0.1314 -1.6785  0.6016
 1398ETH     HC12578   2.218   3.321   4.472  0.7573  2.0742  1.3268
 1398ETH     HC12579   2.080   3.329   4.350  1.0171 -1.3512  0.4611
 1398ETH     HC12580   2.257   3.387   4.173  2.4503  1.4279 -0.1556
 1398ETH     HC12581   2.378   3.337   4.304  0.1663 -1.9974 -0.0563
 1398ETH     HC12582   2.269   3.226   4.245  1.7682 -0.0101  2.3364
 1399ETH     OH12583   1.811   2.520   3.416 -0.1886 -0.2705  0.0042
 1399ETH     CH12584   1.698   2.455   3.363 -0.1908 -0.0964 -0.2055
 1399ETH     CH12585   1.577   2.520   3.430 -0.3695 -0.7117  0.0750
 1399ETH     HO12586   1.884   2.460   3.414 -0.4098 -0.5742  0.9368
 1399ETH     HC12587   1.701   2.476   3.256  4.4129 -0.5975 -0.2863
 1399ETH     HC12588   1.695   2.347   3.374  0.8530 -0.2609 -1.3756
 1399ETH     HC12589   1.489   2.457   3.416 -1.0022  0.0844  0.4455
 1399ETH     HC12590   1.595   2.539   3.536 -0.7854  0.5336 -0.0632
 1399ETH     HC12591   1.554   2.614   3.379  0.5569 -0.9377 -0.7623
 1400ETH     OH12592   5.287   2.033   2.303 -0.1891 -0.2767  0.0951
 1400ETH     CH12593   5.234   2.000   2.429  0.0151  0.0796  0.2755
 1400ETH     CH12594   5.196   2.123   2.511 -0.0129 -0.0063  0.3925
 1400ETH     HO12595   5.337   2.112   2.316  0.4219 -0.5696 -0.3847
 1400ETH     HC12596   5.136   1.954   2.412  0.1900 -0.4266  0.6298
 1400ETH     HC12597   5.290   1.932   2.492 -0.6598 -2.0458 -1.3618
 1400ETH     HC12598   5.278   2.192   2.532 -0.7514  1.1948 -0.5618
 1400ETH     HC12599   5.122   2.184   2.459  0.6145  1.5527  1.2915
 1400ETH     HC12600   5.159   2.094   2.609 -0.7866  0.2071  0.1692
 1401ETH     OH12601   1.946   2.748   2.533 -0.0859  0.3980  0.2038
 1401ETH     CH12602   1.983   2.773   2.400 -0.7093 -0.0051 -0.0487
 1401ETH     CH12603   1.922   2.663   2.313  0.1325 -0.2921 -0.2791
 1401ETH     HO12604   1.852   2.758   2.539 -0.2726  0.5677 -2.5507
 1401ETH     HC12605   1.954   2.872   2.365 -2.4759 -0.5224 -0.1113
 1401ETH     HC12606   2.090   2.776   2.384 -0.6187  0.0937  0.5784
 1401ETH     HC12607   1.976   2.571   2.334  1.3646  0.7919  1.4236
 1401ETH     HC12608   1.817   2.657   2.342  0.9689 -0.6640  2.8027
 1401ETH     HC12609   1.936   2.684   2.207  2.7811  1.2393  0.3398
 1402ETH     OH12610   5.541   2.780   4.493  0.1939  0.0510  0.4619
 1402ETH     CH12611   5.556   2.761   4.354 -0.3131 -0.3907  0.4623
 1402ETH     CH12612   5.601   2.897   4.299 -0.3894 -0.5222  0.0827
 1402ETH     HO12613   5.486   2.712   4.530  1.4582 -0.3880  1.6177
 1402ETH     HC12614   5.618   2.673   4.341  1.3265  0.7665  0.3158
 1402ETH     HC12615   5.462   2.735   4.306 -0.8925  3.1932 -0.4901
 1402ETH     HC12616   5.534   2.981   4.316 -2.6295 -2.1635 -0.2574
 1402ETH     HC12617   5.691   2.926   4.352 -1.0833  3.1931 -0.6761
 1402ETH     HC12618   5.634   2.914   4.196  0.3673 -0.3327  0.3609
 1403ETH     OH12619   4.551   3.862   0.060  0.0839  0.1734 -0.0742
 1403ETH     CH12620   4.503   3.741   0.005 -0.0676  0.1424  0.1249
 1403ETH     CH12621   4.366   3.770  -0.056 -0.3129 -0.2296  0.4933
 1403ETH     HO12622   4.644   3.857   0.073 -0.1469 -0.4464  1.4792
 1403ETH     HC12623   4.574   3.705  -0.069 -0.3750 -0.5471  0.1617
 1403ETH     HC12624   4.505   3.672   0.089 -1.7574 -1.8575 -1.4614
 1403ETH     HC12625   4.294   3.770   0.026 -1.4343 -0.1571 -0.4820
 1403ETH     HC12626   4.358   3.866  -0.106 -2.4186 -0.3692  0.5437
 1403ETH     HC12627   4.333   3.691  -0.123 -2.7677 -0.0371  1.4374
 1404ETH     OH12628   5.400   0.907   3.984  0.0572  0.0709  0.5336
 1404ETH     CH12629   5.407   0.788   4.059  0.1499 -0.0621  0.3136
 1404ETH     CH12630   5.292   0.757   4.154  0.0039 -0.4246  0.0188
 1404ETH     HO12631   5.485   0.948   3.986 -0.3290  0.9778 -0.6898
 1404ETH     HC12632   5.415   0.710   3.983 -1.1503  0.0571  0.0311
 1404ETH     HC12633   5.499   0.773   4.114  1.4475 -1.0714 -2.0190
 1404ETH     HC12634   5.312   0.671   4.218 -1.0879 -0.8817 -0.2424
 1404ETH     HC12635   5.256   0.839   4.216 -2.0451 -1.9045  0.8427
 1404ETH     HC12636   5.204   0.741   4.091  0.8120 -0.7180 -1.0479
 1405ETH     OH12637   5.388   1.287   4.618  0.4330  0.1417 -0.2583
 1405ETH     CH12638   5.414   1.164   4.683 -0.4135  0.2727  0.3291
 1405ETH     CH12639   5.495   1.206   4.805 -0.2496  0.4732  0.1519
 1405ETH     HO12640   5.377   1.267   4.526  0.9131  2.6940 -0.8965
 1405ETH     HC12641   5.317   1.116   4.700  1.1240 -3.1350 -0.2444
 1405ETH     HC12642   5.474   1.100   4.619 -1.2538 -0.7115  0.5124
 1405ETH     HC12643   5.446   1.279   4.870 -2.8271  0.4219 -1.6616
 1405ETH     HC12644   5.511   1.126   4.878 -0.5731  0.8298  0.6186
 1405ETH     HC12645   5.592   1.249   4.780 -1.8327  2.7115 -2.4158
 1406ETH     OH12646   6.023   5.128   2.940 -0.2980 -0.5232  0.0458
 1406ETH     CH12647   5.966   5.187   2.825 -0.3532 -0.4814  0.0952
 1406ETH     CH12648   6.053   5.294   2.762  0.1339 -0.8337  0.1686
 1406ETH     HO12649   5.983   5.044   2.955 -0.3196 -0.5462 -0.1355
 1406ETH     HC12650   5.944   5.112   2.749 -0.7466  0.0676 -0.3324
 1406ETH     HC12651   5.867   5.219   2.858  1.1549  0.5548  3.9481
 1406ETH     HC12652   5.998   5.342   2.681 -0.6612 -0.1482  1.1033
 1406ETH     HC12653   6.067   5.371   2.838 -1.0396  0.4054 -0.8457
 1406ETH     HC12654   6.153   5.267   2.725 -0.6903 -2.0667 -1.2084
 1407ETH     OH12655   2.236   2.931   1.314  0.4115  0.2586  0.2503
 1407ETH     CH12656   2.230   3.061   1.370 -0.4024  0.3640 -0.0781
 1407ETH     CH12657   2.092   3.120   1.343 -0.3312  0.5703  0.0109
 1407ETH     HO12658   2.221   2.950   1.223  3.8377  1.4316 -0.1264
 1407ETH     HC12659   2.256   3.053   1.476 -3.5370 -2.0144  0.6252
 1407ETH     HC12660   2.301   3.134   1.332  2.7433 -0.4560  3.8730
 1407ETH     HC12661   2.013   3.045   1.338  0.8130 -0.7987  2.0689
 1407ETH     HC12662   2.077   3.191   1.424  1.2018  2.7792 -1.5772
 1407ETH     HC12663   2.096   3.171   1.247 -0.5928  0.4130 -0.0842
 1408ETH     OH12664   5.324   5.934   4.526  0.5094 -0.5604 -0.3725
 1408ETH     CH12665   5.350   6.072   4.539 -0.8740 -0.3073 -0.1865
 1408ETH     CH12666   5.398   6.135   4.408 -0.5116  0.3593  0.2672
 1408ETH     HO12667   5.276   5.926   4.445 -1.6988  0.6706  0.7788
 1408ETH     HC12668   5.266   6.123   4.585  0.3268  1.2298  0.3627
 1408ETH     HC12669   5.418   6.086   4.623 -2.1377  0.9154  0.6517
 1408ETH     HC12670   5.453   6.228   4.428 -2.2743  1.0549  2.0344
 1408ETH     HC12671   5.479   6.072   4.373 -0.7619  0.8328 -1.1763
 1408ETH     HC12672   5.317   6.154   4.338 -0.0476  0.3277 -0.2789
 1409ETH     OH12673   1.989   2.717   2.836  0.5776 -0.2303  0.1882
 1409ETH     CH12674   1.926   2.591   2.841 -0.0588  0.0863  0.1494
 1409ETH     CH12675   2.000   2.490   2.754  0.4207  0.0269  0.6310
 1409ETH     HO12676   2.012   2.736   2.747  0.8685  1.8114  0.6574
 1409ETH     HC12677   1.926   2.555   2.943 -0.4142  1.6904  0.7410
 1409ETH     HC12678   1.821   2.606   2.813  0.3437  0.9956 -0.9322
 1409ETH     HC12679   2.087   2.449   2.806  0.5379  0.3871  0.7235
 1409ETH     HC12680   1.926   2.413   2.735  1.1439 -0.5430  0.0966
 1409ETH     HC12681   2.036   2.535   2.661 -0.5916 -0.5893 -0.0690
 1410ETH     OH12682   2.470   1.943   1.532 -0.1513  0.0655  0.2483
 1410ETH     CH12683   2.504   1.846   1.629 -0.7312  0.2224  0.6077
 1410ETH     CH12684   2.460   1.707   1.583  0.4046  0.2080 -0.4593
 1410ETH     HO12685   2.474   2.025   1.579  0.5923 -0.8970  1.8926
 1410ETH     HC12686   2.612   1.845   1.637 -0.4210 -1.3354 -2.8583
 1410ETH     HC12687   2.466   1.882   1.725  0.1684  1.1422  0.6288
 1410ETH     HC12688   2.463   1.688   1.476 -1.1481 -1.1653 -0.2729
 1410ETH     HC12689   2.525   1.637   1.636 -0.3224  0.8675  1.3486
 1410ETH     HC12690   2.360   1.690   1.622  0.3841  0.2171 -0.5091
 1411ETH     OH12691   5.824   4.083   5.299 -0.2242  0.2057 -0.5192
 1411ETH     CH12692   5.913   4.160   5.377  0.0484 -0.0363 -0.5894
 1411ETH     CH12693   5.949   4.275   5.284  0.4624  0.4507  0.1687
 1411ETH     HO12694   5.867   4.037   5.228  1.6525  0.1859  0.5838
 1411ETH     HC12695   5.860   4.204   5.462 -0.1990  1.1857 -1.3672
 1411ETH     HC12696   5.999   4.105   5.416  1.3865  2.5371  0.2136
 1411ETH     HC12697   6.003   4.350   5.342  1.7166 -0.7250  0.5356
 1411ETH     HC12698   6.020   4.234   5.212  0.0055 -2.5071  1.3531
 1411ETH     HC12699   5.868   4.330   5.235  0.2615  0.8174  0.9127
 1412ETH     OH12700   3.688   6.246   3.111  0.5524 -0.2497  0.1715
 1412ETH     CH12701   3.744   6.125   3.158  0.3047 -0.4916 -0.1453
 1412ETH     CH12702   3.866   6.150   3.247  0.1465  0.9253 -0.3076
 1412ETH     HO12703   3.598   6.233   3.086  0.4459 -1.4721  1.1466
 1412ETH     HC12704   3.672   6.077   3.225 -1.4722  1.5937 -0.5043
 1412ETH     HC12705   3.761   6.047   3.085 -2.7324  0.2415 -1.7474
 1412ETH     HC12706   3.841   6.219   3.328 -2.7744  0.6382 -0.9255
 1412ETH     HC12707   3.900   6.051   3.279  0.9647  1.2576 -0.1288
 1412ETH     HC12708   3.949   6.181   3.183 -0.1546  0.3854 -0.9704
 1413ETH     OH12709   2.704   4.001   0.040 -0.0682  0.1898 -0.2020
 1413ETH     CH12710   2.659   4.127  -0.005 -0.5603  0.3096  0.6009
 1413ETH     CH12711   2.516   4.149   0.044 -0.9471  0.4875 -0.5844
 1413ETH     HO12712   2.757   3.956  -0.023 -1.2213 -0.4680 -0.7214
 1413ETH     HC12713   2.730   4.201   0.033  0.0681  0.2938 -0.5185
 1413ETH     HC12714   2.658   4.143  -0.113 -3.1461  0.0509  0.5618
 1413ETH     HC12715   2.448   4.082  -0.007 -0.3597 -1.3238  0.9551
 1413ETH     HC12716   2.491   4.152   0.150 -1.2430  0.1010 -0.6458
 1413ETH     HC12717   2.489   4.247   0.006 -1.1649  0.8390  0.4478
 1414ETH     OH12718   6.024   4.183   5.915 -0.6115 -0.3786  0.6592
 1414ETH     CH12719   6.129   4.176   5.822 -0.6732  0.4632  0.5258
 1414ETH     CH12720   6.119   4.047   5.740 -0.4642  0.4704  0.4867
 1414ETH     HO12721   6.042   4.239   5.989 -0.0131 -0.3738  0.5099
 1414ETH     HC12722   6.132   4.262   5.754  1.2906 -1.5773 -2.0940
 1414ETH     HC12723   6.223   4.166   5.877 -0.4543  1.9102  0.4480
 1414ETH     HC12724   6.216   4.034   5.692 -1.1104 -1.8221 -0.2550
 1414ETH     HC12725   6.095   3.952   5.788  1.8506  0.7633  2.3146
 1414ETH     HC12726   6.044   4.064   5.662 -0.4925 -1.0821  0.1554
 1415ETH     OH12727   3.000   0.903   4.170  0.6313  0.1804  0.1466
 1415ETH     CH12728   2.981   1.042   4.182  0.2469  0.1587 -0.2098
 1415ETH     CH12729   2.866   1.075   4.087  0.2033  0.9915  0.1243
 1415ETH     HO12730   3.038   0.883   4.086  1.6891 -0.9562  0.8703
 1415ETH     HC12731   2.956   1.062   4.286 -0.8463  0.9907 -0.6114
 1415ETH     HC12732   3.075   1.096   4.171  0.2831 -0.3404 -2.5416
 1415ETH     HC12733   2.769   1.051   4.131  0.3776  0.2671  0.1327
 1415ETH     HC12734   2.874   1.182   4.067  1.8409  0.8909  0.1749
 1415ETH     HC12735   2.868   1.027   3.989 -0.9863 -0.1273  0.6303
 1416ETH     OH12736   3.493   1.263   0.393 -0.5668  0.0660  0.2204
 1416ETH     CH12737   3.412   1.362   0.334 -0.8309  0.0591  0.5743
 1416ETH     CH12738   3.416   1.488   0.420 -0.6039 -0.0784  0.7655
 1416ETH     HO12739   3.443   1.225   0.463 -2.3645  0.5194 -0.7863
 1416ETH     HC12740   3.437   1.387   0.231 -1.4753 -1.9921 -0.0982
 1416ETH     HC12741   3.313   1.316   0.326  1.6719 -5.3387 -1.7882
 1416ETH     HC12742   3.337   1.557   0.389 -0.8788 -0.4081  0.7385
 1416ETH     HC12743   3.403   1.475   0.527  0.1543  1.4109  1.0535
 1416ETH     HC12744   3.508   1.545   0.403 -2.1006  2.4978  0.9393
 1417ETH     OH12745   0.961   1.217   2.085 -0.4909 -0.1554 -0.2550
 1417ETH     CH12746   1.069   1.307   2.098 -0.7679  0.1674 -0.1845
 1417ETH     CH12747   1.172   1.278   1.989 -0.1125  0.7767  0.2740
 1417ETH     HO12748   0.993   1.129   2.073  1.3107  0.1213  2.1153
 1417ETH     HC12749   1.018   1.402   2.080 -2.7165 -1.0122 -1.1288
 1417ETH     HC12750   1.107   1.297   2.199  0.0002 -1.5671 -0.6246
 1417ETH     HC12751   1.184   1.174   1.959 -2.7400  0.1773  1.2329
 1417ETH     HC12752   1.153   1.336   1.899 -0.8999 -0.2380 -0.2250
 1417ETH     HC12753   1.269   1.321   2.017 -1.1470  2.9246  0.6581
 1418ETH     OH12754   4.716   0.488   2.473 -0.0086 -0.2172  0.2005
 1418ETH     CH12755   4.585   0.530   2.506  0.0063  0.0277 -0.0495
 1418ETH     CH12756   4.568   0.679   2.535  0.1405 -0.0608  0.4893
 1418ETH     HO12757   4.748   0.537   2.399 -2.0173  1.0106  0.1100
 1418ETH     HC12758   4.511   0.486   2.439  0.9568  0.5524 -1.4671
 1418ETH     HC12759   4.562   0.486   2.603  1.8457 -2.1997 -0.5801
 1418ETH     HC12760   4.609   0.740   2.454  0.2769  1.2721  1.5409
 1418ETH     HC12761   4.461   0.698   2.541 -0.4971 -2.9194 -0.7516
 1418ETH     HC12762   4.610   0.716   2.628 -0.4898  1.6269  0.1077
 1419ETH     OH12763   4.245   4.929   2.237 -0.2936  0.0721  0.1307
 1419ETH     CH12764   4.260   4.925   2.377  0.1895 -0.3437  0.0734
 1419ETH     CH12765   4.153   4.832   2.434  0.0800 -0.1247  0.2294
 1419ETH     HO12766   4.269   4.849   2.192 -1.2777  0.9704 -2.0811
 1419ETH     HC12767   4.356   4.876   2.391  0.1289 -0.7018 -0.7748
 1419ETH     HC12768   4.248   5.024   2.423 -0.0558 -1.3817  2.2981
 1419ETH     HC12769   4.184   4.728   2.443 -1.5328 -0.4196  2.7510
 1419ETH     HC12770   4.128   4.848   2.539  0.1826 -0.3597  0.2907
 1419ETH     HC12771   4.054   4.839   2.389 -0.0364 -2.9650 -0.0269
 1420ETH     OH12772   0.472   0.040   3.639  0.1251  0.0087 -0.2322
 1420ETH     CH12773   0.565  -0.036   3.712 -0.4008 -0.2983  0.1243
 1420ETH     CH12774   0.546  -0.017   3.863 -0.4769  0.6629 -0.0018
 1420ETH     HO12775   0.397  -0.017   3.650  0.9881 -1.3534 -1.3654
 1420ETH     HC12776   0.568  -0.140   3.678  0.2452 -0.4563  0.6434
 1420ETH     HC12777   0.661   0.005   3.680 -2.0745  0.7359 -3.8446
 1420ETH     HC12778   0.446  -0.042   3.898 -0.4862  1.1082  0.2850
 1420ETH     HC12779   0.617  -0.072   3.924 -0.0011  0.0901 -1.0545
 1420ETH     HC12780   0.563   0.088   3.888  0.1572  0.9543 -1.5488
 1421ETH     OH12781   0.785   0.737   0.649 -0.0511  0.1893 -0.1720
 1421ETH     CH12782   0.877   0.669   0.732  0.4089  0.4499 -0.4619
 1421ETH     CH12783   0.813   0.542   0.790  0.2983  0.6370 -0.1721
 1421ETH     HO12784   0.791   0.694   0.565  0.4492 -1.0464  0.4789
 1421ETH     HC12785   0.959   0.634   0.669  0.5476  0.3205 -0.2131
 1421ETH     HC12786   0.919   0.738   0.805 -0.6886 -1.9900  2.6098
 1421ETH     HC12787   0.798   0.467   0.712  1.2104 -0.1830  0.4256
 1421ETH     HC12788   0.873   0.501   0.871 -0.9812  1.6612  1.3163
 1421ETH     HC12789   0.720   0.572   0.837 -0.5312  2.8202 -3.0483
 1422ETH     OH12790   1.828   4.293   6.268  0.4149 -0.3093 -0.5798
 1422ETH     CH12791   1.738   4.283   6.160 -0.1883 -0.3663 -0.0713
 1422ETH     CH12792   1.795   4.325   6.024  0.2640  0.8742  0.4907
 1422ETH     HO12793   1.834   4.213   6.318  1.5895 -0.5404 -1.0631
 1422ETH     HC12794   1.713   4.177   6.156  1.8530 -0.8844  0.4110
 1422ETH     HC12795   1.650   4.346   6.176 -0.0767 -0.6442  1.7050
 1422ETH     HC12796   1.807   4.430   5.999 -1.7553  0.9366 -0.2929
 1422ETH     HC12797   1.894   4.287   6.002  0.2037  0.7253  0.4725
 1422ETH     HC12798   1.730   4.296   5.942  0.1426  0.8755  0.5853
 1423ETH     OH12799   4.728   0.048   5.390  0.0500 -0.1942  0.6219
 1423ETH     CH12800   4.591   0.014   5.379  0.0612 -0.1155  0.2509
 1423ETH     CH12801   4.511   0.130   5.439 -0.3646 -0.3237  0.0834
 1423ETH     HO12802   4.778  -0.023   5.355 -0.9144 -0.9941  0.8566
 1423ETH     HC12803   4.546  -0.011   5.282 -0.8700  1.6587  0.2099
 1423ETH     HC12804   4.581  -0.072   5.445  0.1582  0.5072  1.0743
 1423ETH     HC12805   4.405   0.105   5.430 -0.5417  0.3397  0.3317
 1423ETH     HC12806   4.539   0.147   5.543  0.2370  2.4000 -0.4872
 1423ETH     HC12807   4.523   0.218   5.376 -1.0612  0.7336  1.4266
 1424ETH     OH12808   0.744   6.274   1.352 -0.5412 -0.3633  0.3018
 1424ETH     CH12809   0.864   6.201   1.367 -0.1000  0.2122 -0.4601
 1424ETH     CH12810   0.852   6.051   1.344  0.1494  0.1545 -0.2272
 1424ETH     HO12811   0.714   6.276   1.442 -2.3162 -1.5422 -0.2398
 1424ETH     HC12812   0.936   6.245   1.297  0.8775  1.2882  1.1852
 1424ETH     HC12813   0.888   6.217   1.472 -2.8331 -1.5425  0.4787
 1424ETH     HC12814   0.789   6.026   1.258  0.4636  0.6126 -0.5896
 1424ETH     HC12815   0.954   6.017   1.325  0.8210  2.2209 -0.4229
 1424ETH     HC12816   0.811   6.002   1.432  1.6990  1.3470  1.1715
 1425ETH     OH12817   0.861   5.713   6.253  0.1552 -0.1910  0.1528
 1425ETH     CH12818   0.829   5.786   6.370 -0.6499  0.2609 -0.3406
 1425ETH     CH12819   0.836   5.700   6.496  0.0658  0.1311 -0.4634
 1425ETH     HO12820   0.835   5.769   6.181  0.1095 -1.9373 -1.2139
 1425ETH     HC12821   0.878   5.883   6.370 -0.1051  0.0076 -1.7154
 1425ETH     HC12822   0.724   5.812   6.360 -1.2772 -2.1943 -0.5014
 1425ETH     HC12823   0.934   5.654   6.507  1.2897  2.6823 -0.3059
 1425ETH     HC12824   0.836   5.766   6.583  1.7665 -1.0716  0.4704
 1425ETH     HC12825   0.764   5.620   6.511 -0.7457  0.7387 -1.0572
 1426ETH     OH12826   3.925   5.240   4.662  0.1367  0.6939  0.5646
 1426ETH     CH12827   4.042   5.163   4.657 -0.0768  0.3784  0.3878
 1426ETH     CH12828   4.045   5.041   4.749  0.6112  0.5126  0.5496
 1426ETH     HO12829   3.943   5.313   4.604  3.2214 -0.8013 -0.4510
 1426ETH     HC12830   4.056   5.130   4.554 -2.6474 -0.0361  0.1462
 1426ETH     HC12831   4.124   5.233   4.674 -1.4852  2.3463 -0.7484
 1426ETH     HC12832   4.133   4.981   4.726 -0.3243 -1.0109  0.8400
 1426ETH     HC12833   4.052   5.061   4.856  2.6192  3.4095 -0.0985
 1426ETH     HC12834   3.954   4.985   4.727  1.1454 -0.1761  0.0870
 1427ETH     OH12835   5.951   1.835   0.122  0.4703  0.1525  0.1813
 1427ETH     CH12836   5.947   1.822  -0.019 -0.7707  0.0342  0.2256
 1427ETH     CH12837   5.837   1.919  -0.064 -0.2122  0.5828  0.0398
 1427ETH     HO12838   5.976   1.750   0.154 -1.0951 -1.0880 -1.7697
 1427ETH     HC12839   6.047   1.848  -0.053 -0.9918  1.1816  0.4185
 1427ETH     HC12840   5.914   1.724  -0.054  1.5105 -0.5169 -0.4182
 1427ETH     HC12841   5.749   1.909   0.000  0.7100  0.8959  1.3727
 1427ETH     HC12842   5.875   2.020  -0.048  0.5717 -0.0201  2.1531
 1427ETH     HC12843   5.808   1.903  -0.168 -0.3571  3.1602 -0.3495
 1428ETH     OH12844   5.097   1.394   1.119 -0.6889 -0.3652 -0.1263
 1428ETH     CH12845   5.173   1.432   1.007  0.0231 -0.0061  0.4671
 1428ETH     CH12846   5.079   1.474   0.894  0.8273  0.4677 -0.0342
 1428ETH     HO12847   5.068   1.304   1.126  3.0324 -1.4958  2.4762
 1428ETH     HC12848   5.236   1.511   1.047 -0.6964  0.5899  0.4393
 1428ETH     HC12849   5.233   1.348   0.971 -0.6499 -0.8988  1.4143
 1428ETH     HC12850   5.029   1.387   0.852  1.1879  0.5184 -0.5625
 1428ETH     HC12851   5.007   1.549   0.929  1.8183  1.9870 -1.2072
 1428ETH     HC12852   5.132   1.524   0.813 -0.2416  1.0599 -0.3889
 1429ETH     OH12853   5.949   2.013   5.387  0.4218  0.5238  0.5176
 1429ETH     CH12854   5.829   2.088   5.392  0.0197 -0.0654 -0.1055
 1429ETH     CH12855   5.741   2.101   5.268  0.0022 -0.1092 -0.0958
 1429ETH     HO12856   5.915   1.931   5.353 -0.7747  0.5520  1.5901
 1429ETH     HC12857   5.768   2.071   5.481  1.0803 -1.2876  0.4285
 1429ETH     HC12858   5.870   2.186   5.417 -0.7695  0.0599  0.7001
 1429ETH     HC12859   5.792   2.120   5.174  1.5344 -0.7651  0.5905
 1429ETH     HC12860   5.677   2.015   5.250 -0.5932  0.2372  0.3361
 1429ETH     HC12861   5.682   2.191   5.284 -0.4976 -0.1506 -1.6825
 1430ETH     OH12862   2.191   1.791   2.559  0.2194 -0.3429 -0.1011
 1430ETH     CH12863   2.275   1.904   2.555 -0.3704  0.0923 -0.2360
 1430ETH     CH12864   2.214   2.025   2.627 -0.3546  0.1345 -0.2928
 1430ETH     HO12865   2.224   1.721   2.505 -1.3492 -1.1100 -0.0867
 1430ETH     HC12866   2.375   1.883   2.592 -0.5085 -1.7541 -0.8527
 1430ETH     HC12867   2.299   1.931   2.452  3.4835 -0.2542  0.5159
 1430ETH     HC12868   2.272   2.116   2.612  0.3974 -0.2210  0.4051
 1430ETH     HC12869   2.122   2.052   2.576 -1.0909  1.5717  1.7386
 1430ETH     HC12870   2.205   2.009   2.734  1.7174  1.2797  0.0788
 1431ETH     OH12871   2.277   0.322   5.580 -0.1707  0.1549  0.2707
 1431ETH     CH12872   2.384   0.240   5.621 -0.0829  0.3655  0.4656
 1431ETH     CH12873   2.388   0.216   5.772 -0.5458  0.0742  0.4325
 1431ETH     HO12874   2.287   0.331   5.487 -0.3409 -2.1656 -0.0022
 1431ETH     HC12875   2.378   0.149   5.561 -0.0122  1.7777 -1.7061
 1431ETH     HC12876   2.479   0.278   5.583  0.8499 -0.0591  2.2908
 1431ETH     HC12877   2.425   0.313   5.806 -0.9257  0.4342 -0.1657
 1431ETH     HC12878   2.294   0.198   5.825  0.1958 -1.2082  1.3313
 1431ETH     HC12879   2.465   0.144   5.797 -0.0500  0.4653  0.0414
 1432ETH     OH12880   4.116   6.199   3.704  0.2030  0.1183 -0.1545
 1432ETH     CH12881   4.181   6.269   3.600  0.7020  0.0190  0.0907
 1432ETH     CH12882   4.192   6.184   3.474 -0.2265 -0.5779  0.4060
 1432ETH     HO12883   4.083   6.253   3.773  1.4807 -0.2371  0.7599
 1432ETH     HC12884   4.135   6.363   3.571  0.9103  0.0583 -0.1109
 1432ETH     HC12885   4.277   6.300   3.642  0.6086  0.6888 -0.1959
 1432ETH     HC12886   4.218   6.079   3.485 -0.9532 -1.0327 -1.8851
 1432ETH     HC12887   4.099   6.180   3.417  0.2262 -2.7688 -0.2284
 1432ETH     HC12888   4.262   6.234   3.406 -1.3759 -1.8428 -1.7674
 1433ETH     OH12889   1.165   2.554   4.660 -0.3047  0.5952 -0.4024
 1433ETH     CH12890   1.066   2.456   4.683  0.1015  0.3021  0.1041
 1433ETH     CH12891   1.109   2.324   4.619 -0.0137  0.2010  0.2356
 1433ETH     HO12892   1.150   2.607   4.736 -1.4480  0.5047 -0.5469
 1433ETH     HC12893   1.052   2.438   4.790 -0.6071  2.5370  0.4133
 1433ETH     HC12894   0.975   2.495   4.638 -0.3681 -1.9053 -0.9066
 1433ETH     HC12895   1.200   2.291   4.669  0.6667 -0.9179 -1.7200
 1433ETH     HC12896   1.039   2.241   4.624  1.2520 -0.7803  2.5455
 1433ETH     HC12897   1.139   2.332   4.515  2.4882 -1.3718  0.7949
 1434ETH     OH12898   1.356   0.297   1.062  1.1377  0.2004  0.3374
 1434ETH     CH12899   1.358   0.162   1.102  0.1179  0.0031 -0.2615
 1434ETH     CH12900   1.403   0.086   0.977 -0.3365  0.3698 -0.6506
 1434ETH     HO12901   1.350   0.344   1.144  0.5895  1.3196 -0.3360
 1434ETH     HC12902   1.425   0.141   1.185 -2.3474  0.3946  1.8909
 1434ETH     HC12903   1.261   0.130   1.140  0.4607 -1.9341 -0.9552
 1434ETH     HC12904   1.491   0.119   0.922  1.5430  1.2562  2.7564
 1434ETH     HC12905   1.415  -0.021   0.993 -0.9272  0.4881  0.6531
 1434ETH     HC12906   1.325   0.088   0.902 -1.1967 -0.6130  0.1992
 1435ETH     OH12907   3.773   6.181   2.399  0.0851  0.4208 -0.8440
 1435ETH     CH12908   3.744   6.297   2.474  0.2719  0.0341 -0.1691
 1435ETH     CH12909   3.674   6.403   2.389  0.2572 -0.1771 -0.4215
 1435ETH     HO12910   3.831   6.129   2.452 -0.1906  0.8577 -0.1074
 1435ETH     HC12911   3.669   6.279   2.552 -4.9448  1.4976 -4.4799
 1435ETH     HC12912   3.836   6.334   2.519  0.3602 -0.8443  0.4011
 1435ETH     HC12913   3.654   6.496   2.442  1.4572  0.1181 -0.4761
 1435ETH     HC12914   3.729   6.422   2.297 -1.9487 -0.3989 -1.8278
 1435ETH     HC12915   3.575   6.382   2.349  0.1134 -0.1841 -0.0652
 1436ETH     OH12916   3.667   1.730   3.738  0.4042  0.4429  0.0403
 1436ETH     CH12917   3.571   1.833   3.745  0.2768  0.2867  0.6059
 1436ETH     CH12918   3.629   1.957   3.677 -0.3411  0.3460  0.1797
 1436ETH     HO12919   3.632   1.669   3.801 -1.7900  2.8831  1.2777
 1436ETH     HC12920   3.485   1.800   3.687 -0.5081  0.8264  1.4433
 1436ETH     HC12921   3.540   1.859   3.846 -0.4602  1.2030  0.1550
 1436ETH     HC12922   3.720   1.992   3.726  0.5296  0.6595 -1.6118
 1436ETH     HC12923   3.659   1.938   3.574 -1.1637 -3.2568  0.5107
 1436ETH     HC12924   3.556   2.037   3.686  0.7832  1.3378  0.5200
 1437ETH     OH12925   4.158   1.374   3.849  0.2605 -0.2309 -0.6240
 1437ETH     CH12926   4.176   1.512   3.825 -0.6055  0.1237  0.6846
 1437ETH     CH12927   4.256   1.573   3.939  0.2003  0.3033  0.0270
 1437ETH     HO12928   4.128   1.335   3.769 -1.0852  0.7080 -0.5947
 1437ETH     HC12929   4.232   1.530   3.733  1.2744 -0.5804  1.6581
 1437ETH     HC12930   4.073   1.547   3.817 -1.0861 -1.2143  0.9541
 1437ETH     HC12931   4.273   1.681   3.935  1.4969  0.1495  1.0947
 1437ETH     HC12932   4.187   1.562   4.023  0.1438 -0.4178 -0.1153
 1437ETH     HC12933   4.349   1.519   3.955  0.1752 -0.0413 -0.9476
 1438ETH     OH12934   4.838   1.965   3.146  0.0137  0.3953  0.3824
 1438ETH     CH12935   4.708   1.979   3.198  0.0901 -0.9655  0.9520
 1438ETH     CH12936   4.614   1.879   3.131  0.1600 -0.2465 -0.2319
 1438ETH     HO12937   4.880   1.892   3.189  0.4156  0.3892 -0.0100
 1438ETH     HC12938   4.715   1.973   3.307  0.6315  0.6599  1.0127
 1438ETH     HC12939   4.680   2.082   3.176  0.4450 -0.2038  3.8972
 1438ETH     HC12940   4.647   1.856   3.029  1.3147 -1.5591  0.4023
 1438ETH     HC12941   4.618   1.786   3.189 -0.7636 -0.0612  0.1300
 1438ETH     HC12942   4.509   1.907   3.140 -0.3697 -0.8534 -3.7442
 1439ETH     OH12943   6.067   0.977   0.620  0.2351 -0.5337  0.5391
 1439ETH     CH12944   6.020   0.887   0.523  0.0026 -0.3587  0.4887
 1439ETH     CH12945   6.141   0.809   0.470  0.1433  0.2605 -0.1143
 1439ETH     HO12946   6.068   1.065   0.585 -0.4952  0.1468  2.1692
 1439ETH     HC12947   5.946   0.817   0.564 -1.0642 -1.0589 -2.4667
 1439ETH     HC12948   5.984   0.930   0.430 -4.1242 -2.7979  0.8050
 1439ETH     HC12949   6.219   0.871   0.428 -1.7066  1.4505 -1.8664
 1439ETH     HC12950   6.191   0.756   0.552  3.7331  0.5402 -2.0440
 1439ETH     HC12951   6.115   0.739   0.391 -0.8178  1.1226 -0.5726
 1440ETH     OH12952   3.287   0.134   4.997 -0.1777 -0.0566 -1.0478
 1440ETH     CH12953   3.347   0.261   4.983  0.0871  0.0281  0.7148
 1440ETH     CH12954   3.231   0.361   4.977  0.0373 -0.0712 -0.0332
 1440ETH     HO12955   3.347   0.062   4.986 -0.3960 -0.3397 -0.4551
 1440ETH     HC12956   3.409   0.287   5.068 -1.1188  1.0969  1.2893
 1440ETH     HC12957   3.408   0.269   4.893 -0.5077 -0.4238  0.2686
 1440ETH     HC12958   3.175   0.351   4.884  0.9650  3.2287 -1.0259
 1440ETH     HC12959   3.162   0.358   5.062 -0.9965  0.4931 -0.8450
 1440ETH     HC12960   3.271   0.462   4.963 -1.3654  0.1675 -2.5526
 1441ETH     OH12961   2.824   2.748   5.512 -0.0992  0.1452 -0.1327
 1441ETH     CH12962   2.962   2.759   5.540 -0.1106 -0.0593  0.0019
 1441ETH     CH12963   2.992   2.690   5.673 -0.3007  0.5345  0.3545
 1441ETH     HO12964   2.816   2.750   5.418 -0.7707 -1.0644 -0.1080
 1441ETH     HC12965   3.009   2.708   5.456 -2.3585 -0.6243 -0.9523
 1441ETH     HC12966   3.001   2.861   5.545  0.1739 -0.1458 -0.4685
 1441ETH     HC12967   2.912   2.722   5.740 -1.5862  0.4694 -1.1244
 1441ETH     HC12968   2.979   2.582   5.660  0.7118  0.3642  0.6482
 1441ETH     HC12969   3.099   2.699   5.694 -0.4625  0.1961  1.3528
 1442ETH     OH12970   5.194   0.827   3.677 -0.2856  0.6116 -0.1675
 1442ETH     CH12971   5.112   0.722   3.722  0.3389  0.0515 -0.3313
 1442ETH     CH12972   5.162   0.585   3.676 -0.3314 -0.5687  0.7557
 1442ETH     HO12973   5.241   0.863   3.750 -1.0004  0.9713  0.1249
 1442ETH     HC12974   5.131   0.718   3.829  2.1540  0.9930 -0.5955
 1442ETH     HC12975   5.009   0.742   3.689 -0.1563 -2.2999 -0.3284
 1442ETH     HC12976   5.155   0.594   3.567 -0.2589  1.4766  0.9026
 1442ETH     HC12977   5.264   0.567   3.709  0.4724  2.0575 -0.1188
 1442ETH     HC12978   5.089   0.510   3.704 -1.2678  0.5916  1.4700
 1443ETH     OH12979   0.510   3.430   1.508  0.0041  0.2190 -0.1533
 1443ETH     CH12980   0.583   3.516   1.424  0.3328  0.2655  0.1769
 1443ETH     CH12981   0.518   3.517   1.286 -0.2374  0.1615  0.4448
 1443ETH     HO12982   0.548   3.450   1.593  0.8856  0.7527 -0.6676
 1443ETH     HC12983   0.582   3.617   1.464 -0.2857  0.1989  0.3289
 1443ETH     HC12984   0.686   3.479   1.422  0.4524  0.6173 -3.0058
 1443ETH     HC12985   0.564   3.595   1.226 -0.2441 -0.4625 -0.3756
 1443ETH     HC12986   0.529   3.423   1.232 -1.3074  0.0902  0.3407
 1443ETH     HC12987   0.410   3.533   1.291 -0.1325  0.7521  0.9409
 1444ETH     OH12988   5.686   0.382   0.668 -1.0323 -0.0779  0.1231
 1444ETH     CH12989   5.657   0.259   0.730 -0.4297 -0.2746  0.0163
 1444ETH     CH12990   5.522   0.202   0.689 -0.2089 -1.0109  0.2958
 1444ETH     HO12991   5.738   0.373   0.590  1.5059 -1.0310  1.8795
 1444ETH     HC12992   5.739   0.190   0.710  1.3789  2.2958 -1.6523
 1444ETH     HC12993   5.666   0.275   0.838 -0.0660 -0.8591  0.0772
 1444ETH     HC12994   5.442   0.274   0.709 -0.1863 -0.5476 -1.1790
 1444ETH     HC12995   5.523   0.198   0.580  1.0980 -0.4158  0.2866
 1444ETH     HC12996   5.499   0.105   0.735 -1.5770 -0.7414  0.2224
 1445ETH     OH12997   2.278   5.659   4.536  0.3007  0.3454  0.4396
 1445ETH     CH12998   2.362   5.638   4.424 -0.1173  0.6853  0.0647
 1445ETH     CH12999   2.496   5.712   4.431  0.1245  0.2839 -0.3399
 1445ETH     HO13000   2.189   5.646   4.507  0.5035  1.2078 -0.5922
 1445ETH     HC13001   2.380   5.532   4.409 -0.5496  0.7745 -1.1134
 1445ETH     HC13002   2.296   5.672   4.344 -0.4240  1.6527  0.7071
 1445ETH     HC13003   2.556   5.703   4.340  0.3826  1.1851 -0.2548
 1445ETH     HC13004   2.485   5.815   4.464  0.5078 -0.5376  2.4049
 1445ETH     HC13005   2.554   5.655   4.504 -0.6504  1.6105  1.3419
 1446ETH     OH13006   0.370   5.224   1.729 -0.1810 -0.4699  0.0086
 1446ETH     CH13007   0.306   5.158   1.622 -0.4334  0.4338 -0.4044
 1446ETH     CH13008   0.182   5.103   1.693 -0.1425  0.0817 -0.1719
 1446ETH     HO13009   0.444   5.270   1.690 -0.1199 -0.0790  0.5750
 1446ETH     HC13010   0.273   5.223   1.541  0.7579  1.1922 -0.3025
 1446ETH     HC13011   0.367   5.082   1.573 -0.6361 -1.3778  2.0575
 1446ETH     HC13012   0.108   5.065   1.624  1.4621  0.5432 -2.2028
 1446ETH     HC13013   0.217   5.006   1.730  1.6547  1.5864  2.2488
 1446ETH     HC13014   0.133   5.168   1.765  1.2023  1.4956 -0.4924
 1447ETH     OH13015   0.277   4.942   0.970  0.0173 -0.4803 -0.4460
 1447ETH     CH13016   0.341   5.060   0.928  0.1166 -0.3410  0.1059
 1447ETH     CH13017   0.294   5.193   0.986 -0.3719 -0.4815  0.0340
 1447ETH     HO13018   0.314   4.868   0.924  0.8340 -0.3732  0.0410
 1447ETH     HC13019   0.449   5.047   0.941  0.3845  0.2480 -1.3924
 1447ETH     HC13020   0.332   5.068   0.820  1.9782  1.3950  0.0360
 1447ETH     HC13021   0.370   5.272   0.983 -0.5238 -0.3771 -1.2777
 1447ETH     HC13022   0.200   5.229   0.944  1.7047  2.5662 -2.2496
 1447ETH     HC13023   0.283   5.180   1.094  1.5681 -2.7871 -0.0043
 1448ETH     OH13024   3.294   4.275   6.041  0.2345 -0.1617  0.1207
 1448ETH     CH13025   3.267   4.402   6.097 -0.1982 -0.0657 -0.2922
 1448ETH     CH13026   3.165   4.485   6.019 -0.7504 -0.1106  0.3766
 1448ETH     HO13027   3.264   4.213   6.105 -2.0663 -0.7243 -1.4359
 1448ETH     HC13028   3.249   4.401   6.204 -0.7469 -0.4984 -0.3888
 1448ETH     HC13029   3.356   4.464   6.089 -1.3681  1.5155 -1.2664
 1448ETH     HC13030   3.213   4.507   5.923 -0.0513  0.1891  0.7901
 1448ETH     HC13031   3.071   4.441   5.988  0.0589 -0.3571 -1.8412
 1448ETH     HC13032   3.153   4.587   6.056 -1.3012 -0.0197 -0.0450
 1449ETH     OH13033   2.250   0.504   3.870  0.0314 -0.3008  0.2379
 1449ETH     CH13034   2.278   0.426   3.756 -0.1474  0.2175 -0.1650
 1449ETH     CH13035   2.230   0.283   3.781 -0.3804  0.2450 -0.4565
 1449ETH     HO13036   2.225   0.594   3.855 -1.1921 -0.7909 -0.7509
 1449ETH     HC13037   2.225   0.461   3.668  1.6380  4.0442  0.1478
 1449ETH     HC13038   2.384   0.433   3.729 -0.6318  1.4570 -1.8105
 1449ETH     HC13039   2.280   0.249   3.872 -0.5454 -0.8854 -0.7750
 1449ETH     HC13040   2.123   0.291   3.801  0.4862  2.8784  3.8368
 1449ETH     HC13041   2.251   0.207   3.706 -1.0720 -1.2696  0.8496
 1450ETH     OH13042   0.020   1.738   0.740  0.2829  0.1706 -0.2762
 1450ETH     CH13043   0.158   1.710   0.758  0.1662 -0.3369 -0.1656
 1450ETH     CH13044   0.180   1.559   0.769  0.4580 -0.2962 -0.2019
 1450ETH     HO13045  -0.014   1.730   0.828  2.7553 -0.7378  0.6443
 1450ETH     HC13046   0.222   1.755   0.682  1.6083 -1.2583  0.4869
 1450ETH     HC13047   0.189   1.761   0.848 -0.8649  1.4798 -0.8101
 1450ETH     HC13048   0.288   1.541   0.772  0.4409 -0.2658  0.6751
 1450ETH     HC13049   0.141   1.520   0.862 -0.9389  2.9306  0.6282
 1450ETH     HC13050   0.148   1.504   0.680 -2.2664 -1.6631  1.5649
 1451ETH     OH13051   4.765   2.654   0.422  0.0669  0.1458  0.0005
 1451ETH     CH13052   4.720   2.786   0.402  0.0086  0.0808 -0.2886
 1451ETH     CH13053   4.731   2.858   0.536  0.3153 -0.0664 -0.2351
 1451ETH     HO13054   4.851   2.641   0.386  1.5591  3.0883  2.2934
 1451ETH     HC13055   4.782   2.834   0.326  1.3035 -1.8398 -0.4893
 1451ETH     HC13056   4.615   2.774   0.377 -0.1789  2.1148 -0.5752
 1451ETH     HC13057   4.834   2.863   0.572  0.2453  0.4362 -0.1106
 1451ETH     HC13058   4.686   2.957   0.536  1.2056  0.3588 -1.7996
 1451ETH     HC13059   4.674   2.804   0.612 -1.2466  1.9154  0.0162
 1452ETH     OH13060   4.677   3.428   5.624 -0.1892  0.4785 -0.7226
 1452ETH     CH13061   4.581   3.514   5.568 -0.3660  0.0867 -1.0242
 1452ETH     CH13062   4.620   3.503   5.421  0.8199 -0.0166 -0.7063
 1452ETH     HO13063   4.747   3.489   5.640 -0.9890  0.4645  3.5111
 1452ETH     HC13064   4.481   3.474   5.587 -0.5724  1.0253 -0.0865
 1452ETH     HC13065   4.582   3.616   5.607  1.0483  0.2962 -1.5740
 1452ETH     HC13066   4.556   3.573   5.367  1.4012 -0.1910 -1.6300
 1452ETH     HC13067   4.722   3.535   5.400  0.1422  0.3649 -3.6869
 1452ETH     HC13068   4.617   3.400   5.385  0.3794 -1.3834  3.0489
 1453ETH     OH13069   3.980   2.439   0.508 -0.0153 -0.1655 -0.3274
 1453ETH     CH13070   4.026   2.546   0.588 -0.2951 -0.1495 -0.1892
 1453ETH     CH13071   4.030   2.509   0.737 -0.0742  0.2219 -0.1038
 1453ETH     HO13072   3.886   2.450   0.509 -0.0410  0.1406 -2.5412
 1453ETH     HC13073   4.125   2.566   0.549  0.3642  1.9178  2.4095
 1453ETH     HC13074   3.966   2.635   0.572 -0.6334 -0.8987 -3.2692
 1453ETH     HC13075   4.093   2.573   0.799  1.4977  0.4367 -1.8656
 1453ETH     HC13076   3.930   2.502   0.781 -0.2889  1.0972 -0.4370
 1453ETH     HC13077   4.076   2.413   0.756  0.3531  0.1476 -1.5005
 1454ETH     OH13078   1.472   2.195   0.336  0.1385  0.3432 -0.4632
 1454ETH     CH13079   1.572   2.287   0.295  0.1433  0.5181 -0.0604
 1454ETH     CH13080   1.711   2.237   0.331 -0.2060 -0.2934  0.1822
 1454ETH     HO13081   1.465   2.193   0.430  3.1717  0.8700 -0.1832
 1454ETH     HC13082   1.569   2.315   0.190 -2.0838  0.6851  0.0048
 1454ETH     HC13083   1.555   2.381   0.346  2.4422  1.2722 -0.6454
 1454ETH     HC13084   1.790   2.308   0.308 -1.2477  1.5257  2.0954
 1454ETH     HC13085   1.711   2.229   0.440  0.8849 -1.4602  0.1242
 1454ETH     HC13086   1.730   2.140   0.284  3.9114  1.1426 -1.3982
 1455ETH     OH13087   0.514   6.190   4.462 -0.8493 -0.4550 -0.6314
 1455ETH     CH13088   0.583   6.115   4.559 -0.5143  0.4772 -0.1396
 1455ETH     CH13089   0.732   6.149   4.551 -0.3651 -0.1140  0.0831
 1455ETH     HO13090   0.457   6.127   4.421  0.6191 -2.4119  0.2523
 1455ETH     HC13091   0.541   6.143   4.656  0.1376  0.3701  0.1756
 1455ETH     HC13092   0.580   6.007   4.545  0.3721  0.7298 -2.5001
 1455ETH     HC13093   0.787   6.115   4.639  1.3345  1.3536 -0.3925
 1455ETH     HC13094   0.787   6.097   4.473  2.0331  0.1860  1.5325
 1455ETH     HC13095   0.761   6.253   4.536 -2.2889  0.0119 -3.2702
 1456ETH     OH13096   0.063   4.961   1.155  0.0133 -0.2460  0.0208
 1456ETH     CH13097   0.085   5.017   1.282 -0.0493  0.4979 -0.2932
 1456ETH     CH13098  -0.039   5.102   1.307 -0.7521 -0.5588 -0.1330
 1456ETH     HO13099   0.138   4.979   1.100  0.5357  0.9904  1.1388
 1456ETH     HC13100   0.114   4.936   1.350 -2.0301 -0.3952 -0.4736
 1456ETH     HC13101   0.163   5.090   1.261  1.4083 -1.2379 -1.0341
 1456ETH     HC13102  -0.037   5.181   1.232 -0.4311  0.0219  0.4836
 1456ETH     HC13103  -0.134   5.051   1.290 -0.7490 -0.8543  0.7165
 1456ETH     HC13104  -0.037   5.144   1.408  1.2487 -1.6771  0.3103
 1457ETH     OH13105   2.623   4.426   2.532  0.1190 -0.1142 -0.3864
 1457ETH     CH13106   2.647   4.553   2.476  0.0296  0.2428  0.3832
 1457ETH     CH13107   2.525   4.581   2.387  0.2157 -0.2089 -0.0139
 1457ETH     HO13108   2.536   4.415   2.567  0.2445  1.4391  0.4617
 1457ETH     HC13109   2.647   4.633   2.551 -2.1457  1.2216 -0.6002
 1457ETH     HC13110   2.742   4.559   2.423 -0.8293  2.6917 -0.9940
 1457ETH     HC13111   2.432   4.571   2.444 -0.1032 -0.0674 -0.5096
 1457ETH     HC13112   2.525   4.682   2.348 -0.7394  0.0777  0.7285
 1457ETH     HC13113   2.528   4.519   2.298 -1.0460 -1.0071  0.4769
 1458ETH     OH13114   0.765   5.346   2.108  0.3757 -0.2942  0.2872
 1458ETH     CH13115   0.726   5.324   2.242 -0.2998 -0.3192  0.0884
 1458ETH     CH13116   0.734   5.460   2.313  0.1858  0.0115 -0.5894
 1458ETH     HO13117   0.698   5.392   2.060  2.5302  0.3209 -2.2435
 1458ETH     HC13118   0.625   5.283   2.241  0.4620 -2.1986 -0.9018
 1458ETH     HC13119   0.798   5.258   2.289 -1.6619  0.0032  2.7328
 1458ETH     HC13120   0.817   5.527   2.291  0.1588 -0.0769 -0.9660
 1458ETH     HC13121   0.641   5.513   2.293  0.8200  0.8265 -1.4392
 1458ETH     HC13122   0.733   5.450   2.422  0.1695  2.2588 -0.3775
 1459ETH     OH13123   5.327   5.378   1.253  0.6360 -0.0777 -0.3739
 1459ETH     CH13124   5.289   5.286   1.352  0.1214  0.1846 -0.3261
 1459ETH     CH13125   5.311   5.332   1.496 -0.5821 -0.6835  0.0687
 1459ETH     HO13126   5.313   5.333   1.171 -2.7935  0.7888 -0.3512
 1459ETH     HC13127   5.193   5.239   1.328  0.4716 -1.4100  1.2861
 1459ETH     HC13128   5.358   5.202   1.359  1.1369  1.2156  3.3818
 1459ETH     HC13129   5.416   5.333   1.527 -0.2366  0.5175 -1.1125
 1459ETH     HC13130   5.248   5.413   1.533 -0.6208 -1.2856  1.3753
 1459ETH     HC13131   5.274   5.244   1.549  1.3805 -0.5654  1.7147
 1460ETH     OH13132   5.736   5.417   1.829 -0.4161 -0.2484 -0.1368
 1460ETH     CH13133   5.616   5.490   1.834 -0.2004  0.1026 -0.0540
 1460ETH     CH13134   5.639   5.640   1.812  0.1761  0.0424 -0.0759
 1460ETH     HO13135   5.762   5.417   1.738 -0.5674 -1.1443 -0.1847
 1460ETH     HC13136   5.540   5.456   1.764  0.7657 -0.7587 -0.7002
 1460ETH     HC13137   5.570   5.473   1.931 -1.0589 -0.5319 -0.5631
 1460ETH     HC13138   5.545   5.693   1.820  0.2475  0.2087 -0.3351
 1460ETH     HC13139   5.695   5.675   1.898  1.1183  0.9350 -1.0314
 1460ETH     HC13140   5.691   5.672   1.722  0.3547 -2.1454 -0.7889
 1461ETH     OH13141   2.139   3.808   3.207 -0.2229 -0.3847  0.6793
 1461ETH     CH13142   2.185   3.832   3.338 -0.1994  0.1342  0.5784
 1461ETH     CH13143   2.117   3.748   3.446 -0.3844 -0.1466  0.2467
 1461ETH     HO13144   2.093   3.726   3.197 -0.4980  0.0935 -2.5851
 1461ETH     HC13145   2.292   3.816   3.340 -0.2517 -0.9972 -2.4148
 1461ETH     HC13146   2.165   3.935   3.366  1.1094  0.2857  0.9617
 1461ETH     HC13147   2.013   3.729   3.420 -0.3027  0.7202 -0.7568
 1461ETH     HC13148   2.166   3.652   3.457  2.2211  0.8950 -1.8012
 1461ETH     HC13149   2.122   3.788   3.548 -0.3931  2.7889 -0.8696
 1462ETH     OH13150   5.379   4.816   5.941 -0.0142 -0.1644 -0.3263
 1462ETH     CH13151   5.377   4.676   5.923 -0.1754 -0.1233 -0.6269
 1462ETH     CH13152   5.276   4.631   6.028  0.4886  0.1056  0.1110
 1462ETH     HO13153   5.301   4.847   5.897 -2.4301 -1.7818  2.6329
 1462ETH     HC13154   5.349   4.647   5.822 -0.3755  3.9472 -1.8593
 1462ETH     HC13155   5.473   4.632   5.948  0.0598  1.3294  1.1512
 1462ETH     HC13156   5.297   4.679   6.124 -1.0549  0.3835  0.3204
 1462ETH     HC13157   5.182   4.660   5.982  0.5451  0.7016  0.3649
 1462ETH     HC13158   5.267   4.522   6.032 -1.6000  0.2837  0.6459
 1463ETH     OH13159   2.540   2.716   2.086  0.2978 -0.1396 -0.2248
 1463ETH     CH13160   2.440   2.745   2.180  0.3845 -0.6921  0.0381
 1463ETH     CH13161   2.307   2.691   2.129  0.5190 -0.6145 -0.3971
 1463ETH     HO13162   2.612   2.773   2.110 -0.5573  0.7466  0.2202
 1463ETH     HC13163   2.462   2.704   2.279  0.8656  0.3151  0.3529
 1463ETH     HC13164   2.434   2.852   2.194 -0.5512 -0.7924  0.4437
 1463ETH     HC13165   2.223   2.707   2.198 -0.8652 -2.0482 -1.6886
 1463ETH     HC13166   2.276   2.737   2.035  1.8658 -0.1013 -0.5889
 1463ETH     HC13167   2.310   2.586   2.099 -0.9541 -0.1301 -2.3705
 1464ETH     OH13168   0.362   2.872   0.556  0.3497  0.5255  0.4232
 1464ETH     CH13169   0.405   2.882   0.690 -0.1540 -0.1122  0.6378
 1464ETH     CH13170   0.506   2.996   0.702  0.2155 -0.3292 -0.3317
 1464ETH     HO13171   0.340   2.783   0.533  0.1754  0.7402 -0.2645
 1464ETH     HC13172   0.322   2.896   0.758 -0.3969  1.0545  0.1127
 1464ETH     HC13173   0.469   2.797   0.713  0.2132 -0.0408 -0.0963
 1464ETH     HC13174   0.476   3.094   0.665  0.0666 -0.0188  0.5831
 1464ETH     HC13175   0.531   3.021   0.805  0.3221  0.1587 -0.4731
 1464ETH     HC13176   0.603   2.968   0.662  0.4774  0.4766 -0.2745
 1465ETH     OH13177   4.232   3.335   0.664 -0.2941 -0.0917 -0.2595
 1465ETH     CH13178   4.196   3.444   0.746  0.0919  0.1172 -0.3683
 1465ETH     CH13179   4.082   3.413   0.843  0.1284  0.9389 -0.0522
 1465ETH     HO13180   4.299   3.362   0.603 -1.7183  1.1688 -1.3092
 1465ETH     HC13181   4.282   3.463   0.810  1.4202 -2.2222 -1.4000
 1465ETH     HC13182   4.181   3.535   0.688  2.3517 -0.6259 -2.2117
 1465ETH     HC13183   4.114   3.338   0.915 -0.0735  1.2009  0.3070
 1465ETH     HC13184   4.059   3.501   0.902 -0.4467 -1.2336  3.0603
 1465ETH     HC13185   3.987   3.388   0.794  0.6481 -1.7854  0.2362
 1466ETH     OH13186   2.219   2.491   5.692  0.1734  0.5908  0.4401
 1466ETH     CH13187   2.254   2.533   5.822 -0.0178  0.2472  0.6044
 1466ETH     CH13188   2.156   2.488   5.930  0.3916  0.2771  0.9880
 1466ETH     HO13189   2.278   2.542   5.638  0.0966 -0.2522 -0.4512
 1466ETH     HC13190   2.357   2.502   5.841 -0.2896  0.1333  1.8991
 1466ETH     HC13191   2.260   2.642   5.832 -2.2096  0.2052  2.6479
 1466ETH     HC13192   2.176   2.520   6.032  0.3797 -0.1950  1.1374
 1466ETH     HC13193   2.051   2.499   5.906  1.0250 -1.2723 -2.8160
 1466ETH     HC13194   2.158   2.380   5.941 -1.9636  0.3616  2.5970
 1467ETH     OH13195   4.892   5.805   2.169 -0.3198 -0.3688  0.2601
 1467ETH     CH13196   4.816   5.780   2.052 -0.3039  0.3185  0.0988
 1467ETH     CH13197   4.796   5.904   1.966 -0.0379  0.1097 -0.2616
 1467ETH     HO13198   4.936   5.726   2.196  1.1437  0.9819  1.9748
 1467ETH     HC13199   4.881   5.717   1.991 -0.1989  2.6594 -2.2833
 1467ETH     HC13200   4.718   5.740   2.077 -0.2726 -0.5836 -1.1911
 1467ETH     HC13201   4.748   5.984   2.022  1.5054  1.1008 -0.3115
 1467ETH     HC13202   4.896   5.943   1.943 -0.6536  1.2446 -1.0921
 1467ETH     HC13203   4.739   5.891   1.873 -0.8428  0.4873  0.1729
 1468ETH     OH13204   2.942   3.910   1.509 -0.2439  0.3202 -0.2391
 1468ETH     CH13205   3.046   3.896   1.414  0.1988  0.5215  0.2151
 1468ETH     CH13206   3.187   3.919   1.469  0.3541  0.3513 -0.1089
 1468ETH     HO13207   2.937   3.840   1.573 -0.3864  1.3970  0.9299
 1468ETH     HC13208   3.032   3.804   1.357 -2.6533  0.3732  1.0596
 1468ETH     HC13209   3.024   3.966   1.334  0.6553  1.5890  1.0185
 1468ETH     HC13210   3.221   4.016   1.506 -3.0169  0.8738  1.8110
 1468ETH     HC13211   3.196   3.838   1.542 -1.8651 -0.7807 -1.0327
 1468ETH     HC13212   3.266   3.900   1.396  1.0833  0.0949  0.7341
 1469ETH     OH13213   1.156   4.939   5.718  0.1722  0.0899  0.6028
 1469ETH     CH13214   1.230   4.827   5.760 -0.1177 -0.2655  0.1807
 1469ETH     CH13215   1.135   4.722   5.816 -0.4256 -0.1002 -0.0316
 1469ETH     HO13216   1.208   5.018   5.721 -0.8645  0.8866 -1.1261
 1469ETH     HC13217   1.288   4.785   5.678  0.1470  0.1571  0.1455
 1469ETH     HC13218   1.308   4.853   5.832  0.1320 -4.9294  1.7419
 1469ETH     HC13219   1.191   4.628   5.823  1.2520  0.8978  0.1369
 1469ETH     HC13220   1.110   4.756   5.916 -1.0019  1.4034 -0.6676
 1469ETH     HC13221   1.047   4.707   5.753 -2.1055  1.7002  1.8352
 1470ETH     OH13222   1.553   2.705   5.502  0.5728  0.5438 -0.1338
 1470ETH     CH13223   1.430   2.774   5.498  0.3210  0.0679 -0.6796
 1470ETH     CH13224   1.465   2.918   5.462  0.3795  0.3589  0.5250
 1470ETH     HO13225   1.593   2.734   5.582 -1.0060  0.7430  0.6091
 1470ETH     HC13226   1.358   2.732   5.428  0.4782  0.3755 -1.0226
 1470ETH     HC13227   1.388   2.769   5.599 -0.0090  2.7228 -0.6644
 1470ETH     HC13228   1.525   2.915   5.371  1.1235 -2.7758  1.0772
 1470ETH     HC13229   1.381   2.987   5.473  2.0288  2.0866  2.8073
 1470ETH     HC13230   1.536   2.962   5.533 -0.3694  0.0344  1.4891
 1471ETH     OH13231   5.645   3.864   2.607  0.3432 -0.3935 -0.0045
 1471ETH     CH13232   5.535   3.915   2.537  0.5475  0.0122 -0.0287
 1471ETH     CH13233   5.528   3.851   2.398  0.5093  0.2891 -0.1567
 1471ETH     HO13234   5.616   3.866   2.697  0.6104  0.2671  0.0734
 1471ETH     HC13235   5.444   3.887   2.590 -0.5201 -0.3329 -2.0116
 1471ETH     HC13236   5.531   4.024   2.526  2.3723 -0.0639 -1.7909
 1471ETH     HC13237   5.608   3.888   2.334 -0.0762  1.5428 -0.1722
 1471ETH     HC13238   5.554   3.745   2.402  3.1524  0.9063  0.5014
 1471ETH     HC13239   5.433   3.867   2.349  1.1563  1.4812 -1.0404
 1472ETH     OH13240   4.885   2.727   3.081 -0.6427 -0.3268 -0.7107
 1472ETH     CH13241   4.992   2.640   3.053 -0.3364 -0.0326 -0.4650
 1472ETH     CH13242   4.922   2.551   2.950 -0.3575 -0.0676 -0.4212
 1472ETH     HO13243   4.829   2.687   3.145  0.1559 -0.5995 -0.1807
 1472ETH     HC13244   5.078   2.683   3.002 -1.7116  1.2387 -1.7875
 1472ETH     HC13245   5.025   2.578   3.136  1.5588  2.2003  0.4929
 1472ETH     HC13246   4.816   2.538   2.971 -1.1469  1.7944 -3.0213
 1472ETH     HC13247   4.932   2.587   2.848 -0.9056  1.3229  0.0052
 1472ETH     HC13248   4.962   2.450   2.954  0.8760  0.3949 -0.8929
 1473ETH     OH13249   1.448   5.510   5.181  0.2365  0.4290  0.2150
 1473ETH     CH13250   1.347   5.412   5.197  0.2971  0.3429  0.0844
 1473ETH     CH13251   1.205   5.452   5.157 -0.0376 -1.1090 -0.1933
 1473ETH     HO13252   1.531   5.469   5.197 -1.1497 -2.6401  0.0751
 1473ETH     HC13253   1.366   5.317   5.147 -0.2727 -0.8266  2.0424
 1473ETH     HC13254   1.348   5.385   5.302  1.6896  1.4495  0.3668
 1473ETH     HC13255   1.208   5.451   5.048 -0.4950 -0.5088 -0.2182
 1473ETH     HC13256   1.140   5.372   5.194 -2.3016  0.7303 -0.0770
 1473ETH     HC13257   1.169   5.546   5.200 -0.3526 -0.8703 -0.9682
 1474ETH     OH13258   6.179   4.311   1.585 -0.2056  0.1035  0.2656
 1474ETH     CH13259   6.182   4.452   1.581  0.3525  0.0820 -0.0629
 1474ETH     CH13260   6.238   4.509   1.451  0.6287  0.8033  0.3664
 1474ETH     HO13261   6.122   4.269   1.523  1.8180 -1.7168 -0.4062
 1474ETH     HC13262   6.076   4.474   1.593  0.7541  0.3526  3.6984
 1474ETH     HC13263   6.250   4.481   1.662 -0.0150  0.3235  0.1612
 1474ETH     HC13264   6.221   4.617   1.455 -2.5321  0.4297 -1.0971
 1474ETH     HC13265   6.345   4.491   1.438  0.2958 -0.1721 -1.2644
 1474ETH     HC13266   6.177   4.469   1.370  1.1823  1.1819 -0.2480
 1475ETH     OH13267   3.204   0.245   0.953 -0.5107 -0.5342 -0.5451
 1475ETH     CH13268   3.126   0.297   0.847 -0.1550  0.0385 -0.5314
 1475ETH     CH13269   3.048   0.418   0.898  0.2296  0.2969 -0.5524
 1475ETH     HO13270   3.253   0.171   0.921  2.7560  0.8816  0.9108
 1475ETH     HC13271   3.193   0.308   0.762 -0.1320  1.6212 -0.3166
 1475ETH     HC13272   3.051   0.230   0.805 -2.2077  0.5055  2.2729
 1475ETH     HC13273   2.985   0.450   0.815  1.3244  0.3159 -1.3791
 1475ETH     HC13274   2.987   0.394   0.985 -0.4753 -1.5876 -1.5344
 1475ETH     HC13275   3.122   0.492   0.926  0.2932 -0.3558  1.0432
 1476ETH     OH13276   0.633   4.989   5.218  0.3372  0.1514 -0.7829
 1476ETH     CH13277   0.676   4.885   5.302 -0.1980  0.2362 -0.3996
 1476ETH     CH13278   0.552   4.852   5.385  0.1130 -0.4627 -0.2048
 1476ETH     HO13279   0.553   4.955   5.180 -0.2422 -0.2069  0.7344
 1476ETH     HC13280   0.697   4.794   5.246 -0.8203 -0.3442  0.2928
 1476ETH     HC13281   0.764   4.924   5.353  1.1347 -2.2799 -0.6915
 1476ETH     HC13282   0.580   4.796   5.474 -2.5570 -0.0035  0.9894
 1476ETH     HC13283   0.528   4.946   5.434  0.5491 -0.0276 -0.8220
 1476ETH     HC13284   0.467   4.797   5.344  1.2654 -1.4247 -1.3702
 1477ETH     OH13285   2.448   5.401   2.705 -0.8184 -0.2879 -0.3085
 1477ETH     CH13286   2.453   5.265   2.742  0.4996 -0.1495  0.0433
 1477ETH     CH13287   2.428   5.241   2.891  0.2099  0.1651  0.0466
 1477ETH     HO13288   2.522   5.451   2.736 -1.8707  0.6852  0.6727
 1477ETH     HC13289   2.381   5.212   2.680  1.4021 -2.1060  0.6082
 1477ETH     HC13290   2.549   5.226   2.709 -0.8061 -2.6380 -0.9588
 1477ETH     HC13291   2.325   5.268   2.916 -0.2245 -0.3879 -1.1177
 1477ETH     HC13292   2.451   5.137   2.916 -0.4396  0.3130  1.3079
 1477ETH     HC13293   2.499   5.295   2.953  0.9995 -0.7401 -0.0560
 1478ETH     OH13294   3.266   2.175   5.259 -0.2082  0.2380 -0.4116
 1478ETH     CH13295   3.373   2.153   5.347 -0.6216 -0.3274 -0.0518
 1478ETH     CH13296   3.481   2.064   5.285 -0.0321  0.2617  0.1156
 1478ETH     HO13297   3.200   2.217   5.311  0.1194  0.1170  0.1009
 1478ETH     HC13298   3.417   2.249   5.374  1.5911 -1.1843 -0.4379
 1478ETH     HC13299   3.338   2.104   5.439  0.1823 -2.5630 -0.8842
 1478ETH     HC13300   3.442   1.964   5.262 -4.2595  0.5634  5.1569
 1478ETH     HC13301   3.532   2.098   5.195 -2.6096  2.1489 -0.6907
 1478ETH     HC13302   3.558   2.032   5.355 -1.1000  1.3873  1.8269
 1479ETH     OH13303   4.439   4.931   5.518 -0.1101  0.1327  0.0968
 1479ETH     CH13304   4.448   4.967   5.382  0.4413  0.2209  0.1557
 1479ETH     CH13305   4.523   4.854   5.311  0.0694  0.3666 -0.4730
 1479ETH     HO13306   4.411   5.010   5.561 -0.9285 -0.7149  1.1393
 1479ETH     HC13307   4.345   4.965   5.348 -0.3654  3.6258  2.1872
 1479ETH     HC13308   4.494   5.065   5.368  2.0515 -0.0963  2.8779
 1479ETH     HC13309   4.523   4.867   5.203  0.3610  1.3247 -0.3681
 1479ETH     HC13310   4.630   4.854   5.333 -0.2814 -0.4507  1.3076
 1479ETH     HC13311   4.478   4.756   5.324 -2.0884  0.9504 -3.0900
 1480ETH     OH13312   4.063   1.180   2.231  0.1598 -0.0064 -0.0432
 1480ETH     CH13313   4.016   1.313   2.215  0.0537 -0.0688 -0.2651
 1480ETH     CH13314   3.875   1.305   2.157 -0.0669  0.2815 -0.0155
 1480ETH     HO13315   4.102   1.152   2.149 -0.2011 -1.9332  0.4223
 1480ETH     HC13316   4.007   1.361   2.313  2.9404 -1.6669  0.8520
 1480ETH     HC13317   4.088   1.363   2.150 -3.1664  4.4640 -0.5767
 1480ETH     HC13318   3.856   1.252   2.064  1.3124 -1.4569  0.6602
 1480ETH     HC13319   3.810   1.248   2.224  1.6191 -3.2357 -1.2620
 1480ETH     HC13320   3.828   1.402   2.139  0.4592  0.5585  0.0803
 1481ETH     OH13321   5.455   4.067   1.880  0.1223  0.6970 -0.3131
 1481ETH     CH13322   5.434   4.096   1.744 -0.3507 -0.0005 -0.3902
 1481ETH     CH13323   5.422   3.971   1.657  0.3387  0.0418 -0.5497
 1481ETH     HO13324   5.544   4.040   1.896 -0.5499 -1.7823 -0.5872
 1481ETH     HC13325   5.345   4.158   1.733  0.5140  1.4319  0.4655
 1481ETH     HC13326   5.518   4.157   1.710 -0.1026  0.8056  1.6149
 1481ETH     HC13327   5.386   3.985   1.555 -0.5259  2.0349 -0.0080
 1481ETH     HC13328   5.518   3.920   1.654  0.4191  0.1555  0.1707
 1481ETH     HC13329   5.349   3.903   1.702  3.0918 -2.6489 -0.0247
 1482ETH     OH13330   1.565   1.555   4.750 -0.4425 -0.0598 -0.0791
 1482ETH     CH13331   1.636   1.466   4.834 -0.2839  0.3322  0.2033
 1482ETH     CH13332   1.535   1.363   4.885 -0.1847  0.2172  0.1679
 1482ETH     HO13333   1.526   1.512   4.675 -1.2749 -0.0997  0.3754
 1482ETH     HC13334   1.712   1.415   4.774 -2.1785 -1.2453 -0.9293
 1482ETH     HC13335   1.666   1.513   4.927 -0.8771 -0.5769  0.8655
 1482ETH     HC13336   1.576   1.309   4.971  0.6701  1.6427  0.6760
 1482ETH     HC13337   1.439   1.395   4.925 -1.4284 -2.2381 -0.7660
 1482ETH     HC13338   1.525   1.287   4.808 -0.4893  0.9320 -0.4946
 1483ETH     OH13339   1.876   3.518   5.313  0.1351 -0.0081 -0.1363
 1483ETH     CH13340   1.840   3.581   5.433  0.1330 -0.2771  0.0047
 1483ETH     CH13341   1.701   3.639   5.409  0.2498  0.3914  0.9242
 1483ETH     HO13342   1.967   3.494   5.325  0.0718 -0.4047 -0.4472
 1483ETH     HC13343   1.838   3.515   5.520 -0.5615  0.6090  0.6749
 1483ETH     HC13344   1.913   3.656   5.466  0.3020 -0.4747  0.0844
 1483ETH     HC13345   1.624   3.562   5.407 -1.8549  2.4528  0.0708
 1483ETH     HC13346   1.672   3.695   5.498 -0.9137 -0.9016  1.3686
 1483ETH     HC13347   1.699   3.705   5.322  2.4859 -0.8094 -0.0555
 1484ETH     OH13348   4.517   4.343   4.205  1.1272  0.2831  0.2790
 1484ETH     CH13349   4.533   4.334   4.345 -0.2671 -0.8290  0.3895
 1484ETH     CH13350   4.668   4.265   4.368 -0.1463 -0.6297  0.2887
 1484ETH     HO13351   4.426   4.366   4.192  1.0992  1.5849  2.5322
 1484ETH     HC13352   4.536   4.441   4.368 -1.5243 -0.6323 -0.3403
 1484ETH     HC13353   4.448   4.287   4.393 -0.5927 -1.1970 -0.5442
 1484ETH     HC13354   4.649   4.160   4.344 -0.5546 -0.5491  0.2583
 1484ETH     HC13355   4.736   4.297   4.290  0.9231 -0.6457  1.1996
 1484ETH     HC13356   4.708   4.291   4.466  1.6535 -0.9752 -0.3479
 1485ETH     OH13357   1.016   2.880   3.321 -0.2913 -0.1352 -0.3084
 1485ETH     CH13358   0.949   2.927   3.436 -0.4329 -0.3145 -0.3187
 1485ETH     CH13359   0.945   2.820   3.545 -0.2674  0.2784  0.2715
 1485ETH     HO13360   1.094   2.934   3.324  0.3103 -1.0276  0.4894
 1485ETH     HC13361   0.997   3.018   3.471  0.6144 -0.5802 -1.0467
 1485ETH     HC13362   0.844   2.935   3.407 -0.9064 -0.7053  1.2268
 1485ETH     HC13363   1.045   2.790   3.579 -0.5580 -0.8421  0.1522
 1485ETH     HC13364   0.902   2.858   3.638  0.5564 -1.0686  1.2295
 1485ETH     HC13365   0.889   2.729   3.521  0.2393 -0.0784  0.4196
 1486ETH     OH13366   4.779   1.103   5.918 -0.5643 -0.7907  0.1387
 1486ETH     CH13367   4.887   1.092   6.008 -0.4026  0.0350  0.0567
 1486ETH     CH13368   4.846   1.042   6.147 -0.1299 -0.2440  0.0372
 1486ETH     HO13369   4.786   1.187   5.874 -1.0711 -1.0515 -0.4525
 1486ETH     HC13370   4.955   1.019   5.964 -0.9849 -1.0095  0.8614
 1486ETH     HC13371   4.949   1.181   6.017  0.7678 -0.9508  2.0755
 1486ETH     HC13372   4.929   1.025   6.215  0.1862 -3.0135 -0.9582
 1486ETH     HC13373   4.792   1.114   6.207  0.6918 -0.8687  1.5513
 1486ETH     HC13374   4.794   0.946   6.142  1.9519 -1.3760 -0.7992
 1487ETH     OH13375   3.242   1.708   6.098 -0.4099 -0.3311 -0.2424
 1487ETH     CH13376   3.103   1.731   6.095 -0.3887 -0.1202  0.2319
 1487ETH     CH13377   3.047   1.689   6.231 -1.1112  0.7354  0.2028
 1487ETH     HO13378   3.284   1.765   6.036  0.4255 -0.9851 -0.2702
 1487ETH     HC13379   3.082   1.838   6.089 -0.2282 -0.1079 -0.1200
 1487ETH     HC13380   3.053   1.672   6.017  0.7631  2.4876 -2.5806
 1487ETH     HC13381   3.098   1.754   6.303  1.2709 -0.9046  0.0569
 1487ETH     HC13382   2.939   1.703   6.239 -1.4939 -0.6224 -2.1837
 1487ETH     HC13383   3.061   1.582   6.242 -4.1634  0.3439  0.5767
 1488ETH     OH13384   4.400   3.178   0.304  0.0983 -0.6418  0.2033
 1488ETH     CH13385   4.303   3.124   0.216 -0.3025 -0.0253  0.2610
 1488ETH     CH13386   4.172   3.198   0.245 -0.3208  0.1706 -0.3200
 1488ETH     HO13387   4.482   3.133   0.292  1.1151  0.9853  0.9150
 1488ETH     HC13388   4.330   3.132   0.111 -1.2847  0.1386  0.0218
 1488ETH     HC13389   4.275   3.020   0.232  0.3415 -0.5646 -1.9650
 1488ETH     HC13390   4.089   3.179   0.178  0.2105  0.1222 -0.9700
 1488ETH     HC13391   4.130   3.171   0.342  1.9845 -0.4692  0.5416
 1488ETH     HC13392   4.183   3.307   0.242  2.4497 -0.0387  0.3852
 1489ETH     OH13393   1.867   4.880   5.894  0.3131 -0.1056 -0.5190
 1489ETH     CH13394   1.948   4.959   5.979  0.2553 -0.6237  0.0135
 1489ETH     CH13395   1.937   4.918   6.126  0.6393  0.5862  0.3790
 1489ETH     HO13396   1.928   4.829   5.843 -0.2307 -1.8346  0.5548
 1489ETH     HC13397   2.052   4.944   5.950  0.5785 -0.6452  1.1370
 1489ETH     HC13398   1.928   5.066   5.981 -0.0706 -0.6861  0.0897
 1489ETH     HC13399   2.018   4.966   6.182  1.3461 -1.8579  1.5178
 1489ETH     HC13400   1.847   4.954   6.176  0.5863  0.7644  0.1585
 1489ETH     HC13401   1.951   4.812   6.148  3.3847  0.9591  0.6028
 1490ETH     OH13402   2.295   4.403   0.356 -0.2344  0.4596  0.5231
 1490ETH     CH13403   2.266   4.324   0.469  0.2253 -0.4443  0.0162
 1490ETH     CH13404   2.377   4.222   0.494  0.1192 -0.6470 -0.3446
 1490ETH     HO13405   2.230   4.471   0.357 -0.3141  0.3959 -0.3608
 1490ETH     HC13406   2.254   4.379   0.563 -0.9097  0.0883 -0.4205
 1490ETH     HC13407   2.171   4.271   0.455  1.3459 -2.3749 -0.4521
 1490ETH     HC13408   2.359   4.171   0.589 -2.0336  0.4870 -0.1171
 1490ETH     HC13409   2.389   4.148   0.415  0.2655  0.7146 -1.6245
 1490ETH     HC13410   2.471   4.271   0.519  0.3823 -1.2962 -0.0426
 1491ETH     OH13411   4.803   1.119   0.909 -0.1096  0.3797 -0.3793
 1491ETH     CH13412   4.674   1.064   0.927  0.3030 -0.3852  0.2250
 1491ETH     CH13413   4.567   1.171   0.908 -0.0486 -0.7662  0.0336
 1491ETH     HO13414   4.809   1.139   0.817 -0.9815 -0.2037 -0.5675
 1491ETH     HC13415   4.644   0.985   0.858  2.3206 -1.1874  0.2106
 1491ETH     HC13416   4.663   1.022   1.027  1.5621 -1.0023  0.1277
 1491ETH     HC13417   4.581   1.215   0.809  1.1528  1.5308  1.1738
 1491ETH     HC13418   4.466   1.133   0.921  0.8410 -3.0600  0.5451
 1491ETH     HC13419   4.579   1.260   0.971 -0.4403  0.8498 -2.1274
 1492ETH     OH13420   2.675   4.879   1.645 -0.3342 -0.0839  0.0282
 1492ETH     CH13421   2.798   4.813   1.663 -0.5659 -0.3193  0.7597
 1492ETH     CH13422   2.767   4.668   1.700 -0.3423 -0.5156  0.1782
 1492ETH     HO13423   2.644   4.907   1.730 -0.3053 -3.7347  1.3167
 1492ETH     HC13424   2.835   4.813   1.560 -0.6856 -2.4850  0.6998
 1492ETH     HC13425   2.875   4.854   1.728  1.2779  1.4923 -2.4657
 1492ETH     HC13426   2.714   4.683   1.794 -0.0636  0.3244  0.2102
 1492ETH     HC13427   2.704   4.612   1.631 -0.0592  0.1905 -0.6694
 1492ETH     HC13428   2.864   4.620   1.716  0.2223  0.1076 -1.2520
 1493ETH     OH13429   4.731   2.068   2.254  0.0016 -0.3599 -0.0664
 1493ETH     CH13430   4.772   1.945   2.310 -0.5282 -0.4416  0.1496
 1493ETH     CH13431   4.779   1.971   2.461  0.3526  0.3818 -0.0292
 1493ETH     HO13432   4.754   2.068   2.162 -2.3292  0.8619 -0.7070
 1493ETH     HC13433   4.705   1.865   2.282 -3.5701  1.6420  1.1196
 1493ETH     HC13434   4.871   1.913   2.278  0.2025  1.1382  0.7374
 1493ETH     HC13435   4.681   1.991   2.503 -0.6393 -1.9659 -1.1646
 1493ETH     HC13436   4.816   1.879   2.506  0.1611  0.3981  0.1595
 1493ETH     HC13437   4.852   2.050   2.478  0.6112  0.2821 -0.6689
 1494ETH     OH13438   5.704   4.415   6.115 -0.0360 -0.3582 -0.3424
 1494ETH     CH13439   5.693   4.552   6.082  0.0793 -0.2829 -0.0643
 1494ETH     CH13440   5.587   4.622   6.167  0.0264 -0.0868 -0.2920
 1494ETH     HO13441   5.765   4.396   6.184 -0.3793 -0.6310 -0.1052
 1494ETH     HC13442   5.793   4.594   6.092  1.2039 -2.7135 -0.5819
 1494ETH     HC13443   5.673   4.560   5.975  0.4810 -0.4134 -0.1506
 1494ETH     HC13444   5.612   4.626   6.273  0.8360 -3.0669 -0.3120
 1494ETH     HC13445   5.581   4.720   6.120 -1.4869  0.8284  1.7312
 1494ETH     HC13446   5.489   4.574   6.163 -0.6935  1.4293 -1.6436
 1495ETH     OH13447   0.771   1.945   2.259  0.9264  0.2746  0.1249
 1495ETH     CH13448   0.770   2.045   2.358  0.2266 -0.4522  0.8643
 1495ETH     CH13449   0.900   2.121   2.333 -0.0473 -0.2033  0.1798
 1495ETH     HO13450   0.838   1.881   2.276  2.0493  1.2417 -0.6556
 1495ETH     HC13451   0.694   2.124   2.352 -0.7337 -1.4077  0.3576
 1495ETH     HC13452   0.760   2.009   2.460 -0.7866 -0.3337  0.8112
 1495ETH     HC13453   0.894   2.199   2.257 -0.2367  0.9520  1.3551
 1495ETH     HC13454   0.919   2.189   2.416 -1.5918 -1.2316  1.3958
 1495ETH     HC13455   0.991   2.065   2.313  0.7062  0.2599  2.1313
 1496ETH     OH13456   3.068   3.967   2.268  0.0383  0.1087  0.1861
 1496ETH     CH13457   3.077   3.902   2.392 -0.0338  0.2538  0.2669
 1496ETH     CH13458   3.187   3.797   2.382  0.0484  0.3907 -0.2544
 1496ETH     HO13459   2.980   3.996   2.248  0.9997  2.4453 -0.7409
 1496ETH     HC13460   3.100   3.980   2.464  2.2495 -0.7333  0.6375
 1496ETH     HC13461   2.976   3.861   2.403 -0.1119  0.5676  0.7335
 1496ETH     HC13462   3.272   3.842   2.331 -0.1267 -0.9619 -1.7695
 1496ETH     HC13463   3.230   3.773   2.480  0.6863  0.7418 -0.4443
 1496ETH     HC13464   3.147   3.711   2.328 -1.2429 -0.4425  1.9504
 1497ETH     OH13465   2.036   2.580   4.987 -0.1932  0.3553  0.7343
 1497ETH     CH13466   2.003   2.676   4.890  0.8222 -0.5035 -0.4893
 1497ETH     CH13467   1.922   2.608   4.779 -0.0097  0.3781 -0.4355
 1497ETH     HO13468   2.074   2.625   5.061 -0.5915  3.6126 -0.9563
 1497ETH     HC13469   1.938   2.747   4.941 -0.2346 -0.4359 -1.8983
 1497ETH     HC13470   2.082   2.731   4.838  1.3631 -2.0142 -1.2919
 1497ETH     HC13471   1.965   2.514   4.744 -3.4234 -1.3458 -0.1916
 1497ETH     HC13472   1.824   2.579   4.816 -0.0563 -1.2137 -1.7482
 1497ETH     HC13473   1.911   2.657   4.682 -0.6540 -0.8328 -0.9807
 1498ETH     OH13474   1.328   2.412   4.242 -0.1856 -0.1452 -0.0195
 1498ETH     CH13475   1.305   2.317   4.140  0.1685 -0.0826 -0.1594
 1498ETH     CH13476   1.164   2.259   4.151  0.1414  0.0697  0.3310
 1498ETH     HO13477   1.329   2.367   4.325 -1.2144 -2.9842 -1.4689
 1498ETH     HC13478   1.309   2.364   4.042 -1.3621 -0.5865 -0.4778
 1498ETH     HC13479   1.379   2.237   4.141  0.2411 -0.0130  0.2789
 1498ETH     HC13480   1.125   2.204   4.065  1.0565  1.7041 -1.1661
 1498ETH     HC13481   1.151   2.184   4.228 -0.7876  0.4212  0.5260
 1498ETH     HC13482   1.094   2.340   4.171  0.3756  0.4560 -0.3724
 1499ETH     OH13483   6.067   4.342   6.111 -0.4124 -0.5977  0.6577
 1499ETH     CH13484   6.111   4.454   6.038 -0.6928 -0.7524  0.2528
 1499ETH     CH13485   6.260   4.479   6.063 -0.6815 -0.0065 -0.5144
 1499ETH     HO13486   6.029   4.372   6.192 -4.1015 -2.7466 -0.1809
 1499ETH     HC13487   6.101   4.452   5.929  0.4668  3.5038 -0.0189
 1499ETH     HC13488   6.065   4.540   6.085 -1.2146 -1.1435  0.4569
 1499ETH     HC13489   6.277   4.473   6.171 -0.9593 -1.6846 -0.5504
 1499ETH     HC13490   6.332   4.415   6.013  0.5347 -0.3517  1.6179
 1499ETH     HC13491   6.287   4.580   6.033 -0.1588 -0.2985 -1.0233
 1500ETH     OH13492   1.939   5.154   1.836  0.2067  0.3448  0.5068
 1500ETH     CH13493   1.934   5.294   1.853 -0.1820  0.4089 -0.1165
 1500ETH     CH13494   1.862   5.333   1.982  0.3644  0.4828  0.1684
 1500ETH     HO13495   1.907   5.129   1.751  0.3321 -0.5835  0.7246
 1500ETH     HC13496   2.028   5.349   1.843  0.6488 -0.9882 -0.2146
 1500ETH     HC13497   1.861   5.323   1.778 -0.3428 -0.5040 -0.3222
 1500ETH     HC13498   1.866   5.441   1.999  1.6879  0.4310  0.2359
 1500ETH     HC13499   1.759   5.299   1.981  0.6788 -0.5303  0.9131
 1500ETH     HC13500   1.914   5.291   2.068  0.5920  0.1029 -0.1529
 1501ETH     OH13501   5.092   5.072   0.177 -0.2005  0.3760  0.2418
 1501ETH     CH13502   4.993   5.131   0.096  0.5572  0.7866 -0.3942
 1501ETH     CH13503   5.023   5.100  -0.051 -0.2286 -0.5081 -0.2917
 1501ETH     HO13504   5.070   5.103   0.263  1.4319 -1.1542  1.2466
 1501ETH     HC13505   4.898   5.081   0.115  1.4634 -0.1660  1.7493
 1501ETH     HC13506   4.969   5.234   0.125  2.0490  1.0625 -0.0965
 1501ETH     HC13507   5.022   4.994  -0.075  2.0320 -0.1376 -2.1628
 1501ETH     HC13508   4.956   5.164  -0.109 -0.3712 -0.8170 -0.4637
 1501ETH     HC13509   5.117   5.133  -0.094  0.6339 -0.9174  1.2243
 1502ETH     OH13510   4.672   3.758   4.704 -0.0146  0.2161 -0.1173
 1502ETH     CH13511   4.768   3.825   4.784  0.1325  0.1518 -0.2376
 1502ETH     CH13512   4.910   3.775   4.757  0.0496  0.1747 -0.7159
 1502ETH     HO13513   4.591   3.798   4.730 -0.0670 -0.3967  0.6991
 1502ETH     HC13514   4.761   3.933   4.780  2.1592  0.3257  0.5061
 1502ETH     HC13515   4.747   3.803   4.888  1.8495 -3.3737 -0.5565
 1502ETH     HC13516   4.983   3.821   4.823  1.2230  0.7505 -2.3914
 1502ETH     HC13517   4.918   3.666   4.765  2.6895  0.2459 -2.0348
 1502ETH     HC13518   4.946   3.793   4.655  0.3367 -0.4527 -0.7271
 1503ETH     OH13519   2.114   0.678   3.004  0.3316  0.0402 -0.2496
 1503ETH     CH13520   2.247   0.639   3.030  0.2972  0.3825  0.4325
 1503ETH     CH13521   2.339   0.706   2.929 -0.2780 -0.1571 -0.4548
 1503ETH     HO13522   2.086   0.654   2.917 -0.6073 -2.9387  0.8083
 1503ETH     HC13523   2.286   0.641   3.132 -2.6985  1.6515  1.6392
 1503ETH     HC13524   2.259   0.532   3.012  0.1143  0.5497 -0.6783
 1503ETH     HC13525   2.343   0.663   2.829  2.1066  1.4828 -1.1233
 1503ETH     HC13526   2.322   0.812   2.916 -1.5514 -0.3939 -0.7732
 1503ETH     HC13527   2.436   0.703   2.980 -0.5845 -0.6710  0.1145
 1504ETH     OH13528   4.570   4.659   0.085  0.1808  0.5541 -0.3081
 1504ETH     CH13529   4.626   4.530   0.074  0.1328  0.5045  0.0348
 1504ETH     CH13530   4.540   4.422   0.140  0.1248  0.1377 -0.5704
 1504ETH     HO13531   4.635   4.719   0.051 -0.7396 -0.3884 -3.8940
 1504ETH     HC13532   4.632   4.516  -0.034  0.2144 -1.0310  0.2363
 1504ETH     HC13533   4.726   4.527   0.116  0.2093 -0.5194 -0.2211
 1504ETH     HC13534   4.440   4.427   0.098 -0.4454  0.6503  0.8112
 1504ETH     HC13535   4.587   4.327   0.114  1.3722 -0.2365  2.7946
 1504ETH     HC13536   4.529   4.433   0.248 -3.1112  1.7155 -0.9973
 1505ETH     OH13537   2.124   1.918   0.009 -0.1239  0.0767 -0.6916
 1505ETH     CH13538   1.993   1.933   0.059  0.0363  0.6368 -0.4298
 1505ETH     CH13539   1.888   1.907  -0.049 -0.5169 -0.6232  0.3934
 1505ETH     HO13540   2.178   1.984   0.051  0.3502 -0.1742 -0.9084
 1505ETH     HC13541   1.983   1.860   0.140  1.1225 -1.0733 -1.7892
 1505ETH     HC13542   1.969   2.033   0.093 -1.7172  0.2406 -0.4583
 1505ETH     HC13543   1.882   1.989  -0.121  0.7126 -0.9625 -0.1046
 1505ETH     HC13544   1.919   1.819  -0.104  1.3815  0.8168 -0.8985
 1505ETH     HC13545   1.787   1.897  -0.009 -1.3769 -0.5431 -1.7108
 1506ETH     OH13546   4.160   0.934   1.192 -0.0400  0.0328 -0.1579
 1506ETH     CH13547   4.180   0.795   1.178 -0.0612 -0.0499  0.6639
 1506ETH     CH13548   4.063   0.732   1.103  0.3328 -0.1349  0.1200
 1506ETH     HO13549   4.245   0.975   1.192  0.5930 -1.2284  0.0049
 1506ETH     HC13550   4.264   0.774   1.111 -0.0440  0.0183  0.6647
 1506ETH     HC13551   4.186   0.740   1.273  0.1731  0.4353  0.9311
 1506ETH     HC13552   4.061   0.782   1.006 -0.0565 -0.0036  0.1969
 1506ETH     HC13553   4.058   0.625   1.080 -1.4116 -0.1714  0.6444
 1506ETH     HC13554   3.972   0.755   1.157  1.2516 -0.2803  1.7652
 1507ETH     OH13555   2.424   4.085   4.032  0.6561 -0.0625  0.8359
 1507ETH     CH13556   2.544   4.013   4.018  0.4691 -0.1484 -0.4071
 1507ETH     CH13557   2.647   4.076   4.112  0.2619 -0.2629 -0.1022
 1507ETH     HO13558   2.372   4.043   4.099  0.1624  0.9760  1.1023
 1507ETH     HC13559   2.536   3.906   4.035  0.0247 -0.1983 -0.9306
 1507ETH     HC13560   2.575   4.033   3.915 -0.9558  1.6706 -0.5162
 1507ETH     HC13561   2.630   4.054   4.217 -2.5938 -1.2624 -0.7362
 1507ETH     HC13562   2.745   4.032   4.091  0.5691 -0.2969  1.3269
 1507ETH     HC13563   2.647   4.184   4.096  1.1052  0.1440  2.4768
 1508ETH     OH13564   5.708   4.029   4.630 -0.0422  0.0018 -0.2145
 1508ETH     CH13565   5.782   4.143   4.596 -0.2152  0.0605 -0.3953
 1508ETH     CH13566   5.924   4.087   4.597 -0.3708 -0.3207  0.4069
 1508ETH     HO13567   5.616   4.050   4.625 -0.2890 -1.0050 -0.1200
 1508ETH     HC13568   5.737   4.181   4.503  0.5822 -0.0316 -0.8239
 1508ETH     HC13569   5.765   4.215   4.676 -1.9188  1.6623 -2.1312
 1508ETH     HC13570   5.938   3.999   4.535  2.3202  0.2092  0.1842
 1508ETH     HC13571   5.997   4.152   4.548  0.3333 -2.0716 -0.9006
 1508ETH     HC13572   5.956   4.058   4.697  1.9627  1.3464  0.1957
 1509ETH     OH13573   5.651   1.019   3.994  0.3674 -0.5166 -0.0129
 1509ETH     CH13574   5.728   1.123   3.938  0.1700 -0.4396 -0.1426
 1509ETH     CH13575   5.670   1.260   3.972  0.4549 -0.2861 -0.2815
 1509ETH     HO13576   5.657   1.006   4.088 -3.2447 -0.4400  0.3006
 1509ETH     HC13577   5.832   1.113   3.969 -0.1908 -1.9027  0.6271
 1509ETH     HC13578   5.733   1.118   3.829  1.7613  3.0439 -0.2670
 1509ETH     HC13579   5.743   1.337   3.946 -0.4007  0.9377  0.8648
 1509ETH     HC13580   5.574   1.273   3.922  0.2429  2.8597  0.8241
 1509ETH     HC13581   5.647   1.272   4.077  1.2845  0.6422 -0.1951
 1510ETH     OH13582   2.169   4.297   0.102 -0.4866  0.2336 -0.1428
 1510ETH     CH13583   2.169   4.167   0.156  0.6349  0.3424  0.1324
 1510ETH     CH13584   2.089   4.069   0.071  0.2675  0.5896  0.1951
 1510ETH     HO13585   2.215   4.359   0.157 -0.3123  0.7272 -0.8450
 1510ETH     HC13586   2.270   4.126   0.161 -0.5468 -2.7043  0.0067
 1510ETH     HC13587   2.144   4.173   0.262  3.6005 -0.5042  0.9363
 1510ETH     HC13588   2.108   3.968   0.105  1.4725  1.4380  2.1342
 1510ETH     HC13589   1.983   4.092   0.082  0.1797  0.2480  0.0546
 1510ETH     HC13590   2.118   4.059  -0.033 -1.8301  0.8967 -0.4464
 1511ETH     OH13591   0.102   3.371   3.359 -0.0651 -0.1465 -0.1292
 1511ETH     CH13592   0.078   3.242   3.409  0.2019 -0.2448 -0.2502
 1511ETH     CH13593   0.152   3.211   3.539 -0.0263  0.0530 -0.0476
 1511ETH     HO13594   0.059   3.377   3.275  2.0978  1.7922 -1.1713
 1511ETH     HC13595  -0.030   3.227   3.416  0.0406  1.3406  0.9370
 1511ETH     HC13596   0.102   3.164   3.337  1.3048  1.0595 -1.3030
 1511ETH     HC13597   0.138   3.107   3.570 -0.5011 -0.0267 -0.5339
 1511ETH     HC13598   0.256   3.240   3.530  0.1948 -0.8030 -0.3486
 1511ETH     HC13599   0.109   3.266   3.623  2.1589  0.7989  0.6153
 1512ETH     OH13600   3.276   4.948   5.393 -0.3577  0.0821  0.3659
 1512ETH     CH13601   3.335   5.076   5.394  0.0124 -0.0903  1.1076
 1512ETH     CH13602   3.226   5.180   5.365  0.7550  0.3451 -0.1528
 1512ETH     HO13603   3.220   4.940   5.318 -0.3919 -0.0280  0.4032
 1512ETH     HC13604   3.374   5.088   5.496  2.7527 -0.8924  0.1975
 1512ETH     HC13605   3.421   5.089   5.328 -0.4913  2.8936  0.9735
 1512ETH     HC13606   3.149   5.171   5.442 -0.4322  1.1045 -1.2341
 1512ETH     HC13607   3.256   5.284   5.374 -2.4577  1.3826 -1.0523
 1512ETH     HC13608   3.166   5.172   5.275  1.4297 -2.5067 -0.4068
 1513ETH     OH13609   5.753   4.125   2.712  0.0680  0.6366 -0.3733
 1513ETH     CH13610   5.891   4.125   2.740 -0.0324 -1.1145  0.2313
 1513ETH     CH13611   5.942   4.253   2.807 -0.4958 -0.6065 -0.3684
 1513ETH     HO13612   5.732   4.033   2.709  1.0181  0.4429 -1.6018
 1513ETH     HC13613   5.915   4.036   2.797  0.1993 -2.4740 -1.9194
 1513ETH     HC13614   5.945   4.108   2.647  0.3926 -0.0211  0.2701
 1513ETH     HC13615   5.938   4.254   2.916  0.8546 -0.0390 -0.3172
 1513ETH     HC13616   6.048   4.273   2.791 -0.7021  1.4621  0.6380
 1513ETH     HC13617   5.900   4.341   2.759  0.7915  1.2972  1.8796
 1514ETH     OH13618   3.243   2.245   1.249 -0.0461 -0.2866  0.0559
 1514ETH     CH13619   3.345   2.332   1.205 -0.0126 -0.3092  0.0885
 1514ETH     CH13620   3.290   2.453   1.129  0.9481  0.3445  0.4247
 1514ETH     HO13621   3.202   2.281   1.327  1.7659  3.3096 -0.5385
 1514ETH     HC13622   3.401   2.366   1.292 -2.0278  1.0985  0.8843
 1514ETH     HC13623   3.416   2.280   1.140 -1.7892 -1.2968 -1.1006
 1514ETH     HC13624   3.219   2.507   1.190  0.6458 -1.2593  1.5464
 1514ETH     HC13625   3.366   2.523   1.095 -0.4497  0.8773 -1.7115
 1514ETH     HC13626   3.234   2.430   1.038  2.0759  0.1649 -0.2341
 1515ETH     OH13627   2.236   1.123   6.079 -0.0301  0.1251  0.0825
 1515ETH     CH13628   2.363   1.143   6.022 -0.2826  0.2316 -0.4409
 1515ETH     CH13629   2.382   1.076   5.885 -0.5741 -0.3732 -0.1867
 1515ETH     HO13630   2.223   1.168   6.162  0.1232 -0.2636  0.3155
 1515ETH     HC13631   2.386   1.249   6.033 -0.5259  0.1363  1.0577
 1515ETH     HC13632   2.426   1.108   6.103 -2.3184  0.3273  1.2415
 1515ETH     HC13633   2.358   1.134   5.796 -0.8845  0.3668  0.3706
 1515ETH     HC13634   2.488   1.053   5.877 -1.0232 -2.8032  0.4632
 1515ETH     HC13635   2.329   0.981   5.883 -0.0234 -0.6672 -0.9441
 1516ETH     OH13636   5.567   2.460   5.695 -0.0907  0.4064  0.4240
 1516ETH     CH13637   5.676   2.499   5.616 -0.3586  0.1070 -0.0936
 1516ETH     CH13638   5.745   2.376   5.556 -0.7533 -0.0583 -0.2077
 1516ETH     HO13639   5.503   2.417   5.641  1.1788  1.2538 -1.7870
 1516ETH     HC13640   5.641   2.562   5.534 -2.8361 -0.4640  0.4982
 1516ETH     HC13641   5.744   2.552   5.682  0.4360 -0.4767 -0.4409
 1516ETH     HC13642   5.675   2.320   5.494  0.2451 -0.8736 -0.5927
 1516ETH     HC13643   5.824   2.410   5.490 -0.9602  1.4066  0.2817
 1516ETH     HC13644   5.802   2.318   5.628 -0.6830  0.8566  0.4872
 1517ETH     OH13645   2.956   3.570   4.176 -0.2221  0.2377 -0.3191
 1517ETH     CH13646   3.009   3.620   4.055  0.1297  0.3944 -0.1016
 1517ETH     CH13647   3.130   3.531   4.028 -0.0978  0.3007 -0.8179
 1517ETH     HO13648   2.880   3.625   4.191  1.0230  1.3944  2.0985
 1517ETH     HC13649   2.929   3.599   3.984 -1.7171 -0.0712  2.0668
 1517ETH     HC13650   3.038   3.725   4.063  0.6106  0.2110  0.6714
 1517ETH     HC13651   3.204   3.521   4.107 -1.7378  0.3215  0.7570
 1517ETH     HC13652   3.090   3.431   4.010  0.7579 -0.2257  0.1284
 1517ETH     HC13653   3.177   3.563   3.935 -0.3189 -1.7838 -1.6762
 1518ETH     OH13654   5.769   2.345   0.264 -0.0985 -0.1528  0.1829
 1518ETH     CH13655   5.790   2.412   0.386 -0.0796 -0.2640  0.2409
 1518ETH     CH13656   5.815   2.318   0.504 -0.2921 -0.9558 -0.2647
 1518ETH     HO13657   5.834   2.278   0.249  1.6477  1.4346  0.4769
 1518ETH     HC13658   5.873   2.483   0.376 -1.0686  1.2431  2.4206
 1518ETH     HC13659   5.707   2.482   0.394 -0.3025 -0.6484  1.3372
 1518ETH     HC13660   5.799   2.377   0.594  0.8119  0.9086 -1.2486
 1518ETH     HC13661   5.746   2.234   0.515 -0.4273 -0.7159  0.7226
 1518ETH     HC13662   5.918   2.283   0.502 -0.3728 -1.3356  1.3263
 1519ETH     OH13663   4.276   0.261   1.388  0.5017  0.5142 -0.4508
 1519ETH     CH13664   4.266   0.154   1.297 -0.3254 -0.0940  0.3459
 1519ETH     CH13665   4.173   0.050   1.359 -0.4034  0.0020  0.3873
 1519ETH     HO13666   4.331   0.331   1.357  0.5745  1.2667  1.3288
 1519ETH     HC13667   4.224   0.185   1.202  0.5403  0.8757  0.2742
 1519ETH     HC13668   4.363   0.106   1.282 -0.6765 -0.5725 -0.4194
 1519ETH     HC13669   4.080   0.098   1.390 -0.7728 -1.0063  0.8757
 1519ETH     HC13670   4.137  -0.023   1.287  0.3202  0.2975 -0.2757
 1519ETH     HC13671   4.212  -0.005   1.445  1.2085  1.0607  0.3423
 1520ETH     OH13672   2.808   0.476   4.251  0.2465  0.2534  0.2750
 1520ETH     CH13673   2.846   0.610   4.229  0.4144  0.1749  0.0908
 1520ETH     CH13674   2.767   0.699   4.324 -0.1421 -0.0351 -0.1735
 1520ETH     HO13675   2.828   0.438   4.166 -1.4632  2.6854 -1.2960
 1520ETH     HC13676   2.955   0.613   4.238  0.3158  1.5731  0.9903
 1520ETH     HC13677   2.832   0.641   4.125 -1.4800 -0.8451  0.0245
 1520ETH     HC13678   2.807   0.798   4.346  0.2628 -0.4202  0.8549
 1520ETH     HC13679   2.668   0.719   4.284 -0.6058 -0.4548  0.7495
 1520ETH     HC13680   2.761   0.649   4.421  1.2357  2.3046  1.1754
 1521ETH     OH13681   1.643   4.020   0.055  0.0809 -0.4207  0.4383
 1521ETH     CH13682   1.530   4.100   0.087  0.2727  0.0142  0.0360
 1521ETH     CH13683   1.411   4.010   0.054  0.2433  0.2158 -0.4048
 1521ETH     HO13684   1.710   4.039   0.119  0.7718  3.7247 -1.3621
 1521ETH     HC13685   1.538   4.129   0.192 -0.4796 -0.5434  0.2512
 1521ETH     HC13686   1.526   4.189   0.024 -2.2358 -0.6344 -0.7476
 1521ETH     HC13687   1.341   4.073   0.000 -2.2020 -0.9969  1.2849
 1521ETH     HC13688   1.426   3.940  -0.028  1.2071 -0.8735  0.6805
 1521ETH     HC13689   1.358   3.976   0.143  2.0995  0.0228  0.6557
 1522ETH     OH13690   5.991   3.970   3.533 -0.3898 -0.1643  0.0363
 1522ETH     CH13691   5.995   4.111   3.547  0.4040 -0.1270 -0.5271
 1522ETH     CH13692   5.929   4.190   3.435 -0.3238 -0.1787 -0.1397
 1522ETH     HO13693   6.072   3.946   3.491  0.3249 -1.8293  2.2833
 1522ETH     HC13694   5.933   4.125   3.636 -0.0566  0.0514 -0.8743
 1522ETH     HC13695   6.099   4.136   3.570 -0.3608  0.2596  2.8335
 1522ETH     HC13696   5.976   4.159   3.341  0.1237  0.6375 -0.1897
 1522ETH     HC13697   5.821   4.175   3.432  0.0589 -3.0883 -0.9381
 1522ETH     HC13698   5.936   4.297   3.456  0.0930  0.3985 -2.9167
 1523ETH     OH13699   6.279   5.447   0.412  0.5577  0.1081  0.0853
 1523ETH     CH13700   6.303   5.493   0.281  0.4029 -0.3396 -0.1050
 1523ETH     CH13701   6.403   5.608   0.262  0.1006  0.0447  0.5960
 1523ETH     HO13702   6.326   5.492   0.480 -0.7892  2.2644 -0.3708
 1523ETH     HC13703   6.351   5.406   0.237 -2.0983 -2.0788  0.5056
 1523ETH     HC13704   6.214   5.509   0.220  0.3206  5.4899  1.2248
 1523ETH     HC13705   6.489   5.615   0.329  1.0141 -1.8032 -0.3631
 1523ETH     HC13706   6.444   5.624   0.163  0.5457  0.9140  0.9137
 1523ETH     HC13707   6.349   5.698   0.292  0.8707  1.0916 -1.1147
 1524ETH     OH13708   1.789   1.936   2.304 -0.5622 -0.4441 -0.1335
 1524ETH     CH13709   1.885   1.935   2.407 -0.0994  0.4129 -0.5543
 1524ETH     CH13710   1.845   2.007   2.536 -0.2965  0.0213 -0.3956
 1524ETH     HO13711   1.826   1.873   2.244  0.0538  0.3195 -0.5518
 1524ETH     HC13712   1.904   1.829   2.420 -0.3824  0.2384 -1.4942
 1524ETH     HC13713   1.981   1.972   2.372  1.4222 -1.6504  1.3216
 1524ETH     HC13714   1.853   2.116   2.531 -2.3009  0.1548 -0.9032
 1524ETH     HC13715   1.744   1.971   2.555  0.3451 -3.2595 -2.8063
 1524ETH     HC13716   1.909   1.975   2.619 -1.5374  0.7539  0.8659
 1525ETH     OH13717   5.723   6.185   5.894 -0.1665  0.4260 -0.2538
 1525ETH     CH13718   5.835   6.172   5.810 -0.0520  0.0993 -0.0508
 1525ETH     CH13719   5.901   6.305   5.776  0.1307 -0.0629 -0.3353
 1525ETH     HO13720   5.661   6.234   5.843  2.9309  3.0769 -1.6613
 1525ETH     HC13721   5.913   6.117   5.863 -1.2114 -0.7163  0.8495
 1525ETH     HC13722   5.813   6.113   5.720  0.8695 -0.2374 -0.0616
 1525ETH     HC13723   5.927   6.352   5.871 -2.5160  1.1881 -0.1630
 1525ETH     HC13724   5.983   6.299   5.704  1.2716 -2.6563  1.1347
 1525ETH     HC13725   5.824   6.363   5.724 -0.7181 -1.1258 -0.2717
 1526ETH     OH13726   4.643   3.633   3.366  0.0645  0.3679  0.0622
 1526ETH     CH13727   4.757   3.553   3.349  0.2012  0.5677  0.0325
 1526ETH     CH13728   4.867   3.657   3.372  0.4254  0.3766 -0.1594
 1526ETH     HO13729   4.637   3.668   3.454 -3.0187  3.1785 -1.1781
 1526ETH     HC13730   4.756   3.474   3.424 -1.1064  0.8502  0.3071
 1526ETH     HC13731   4.760   3.507   3.250  1.1344  0.5664  0.0556
 1526ETH     HC13732   4.962   3.610   3.394 -0.3669 -1.3010 -0.2134
 1526ETH     HC13733   4.881   3.724   3.287  1.3021  0.5906  0.1544
 1526ETH     HC13734   4.830   3.725   3.449  1.7915  2.7748 -1.5548
 1527ETH     OH13735   1.341   1.554   0.281  0.3566  0.4846 -0.2821
 1527ETH     CH13736   1.227   1.585   0.204  0.1416 -0.0038 -0.1683
 1527ETH     CH13737   1.242   1.520   0.066 -0.5853 -0.1450 -0.1778
 1527ETH     HO13738   1.419   1.584   0.236  1.5106 -2.0278 -0.0677
 1527ETH     HC13739   1.134   1.562   0.254 -0.3355  1.2189 -0.4746
 1527ETH     HC13740   1.230   1.693   0.187 -2.4328  0.1322  0.1364
 1527ETH     HC13741   1.342   1.537   0.029 -1.2505  2.2759 -0.9616
 1527ETH     HC13742   1.235   1.412   0.065 -0.6627 -0.1645  1.0037
 1527ETH     HC13743   1.175   1.557  -0.012 -1.5022  1.7889  1.4566
 1528ETH     OH13744   3.715   5.071   4.642  0.9446  0.5142 -0.3371
 1528ETH     CH13745   3.597   5.111   4.577  0.5227 -0.4489 -0.1745
 1528ETH     CH13746   3.547   5.246   4.629  0.0176 -0.7962  0.2430
 1528ETH     HO13747   3.772   5.146   4.654  0.9332  0.7555 -1.8013
 1528ETH     HC13748   3.606   5.118   4.468 -2.1453  3.3371 -0.2814
 1528ETH     HC13749   3.516   5.039   4.589 -0.1150  0.1583 -0.7672
 1528ETH     HC13750   3.522   5.241   4.735 -0.3624  0.2281  0.2114
 1528ETH     HC13751   3.627   5.317   4.610 -1.1862  0.6696  0.4868
 1528ETH     HC13752   3.465   5.284   4.567 -1.0390 -2.2678  0.6832
 1529ETH     OH13753   0.491   5.677   0.221 -0.1614 -0.3208  0.1349
 1529ETH     CH13754   0.460   5.630   0.092  0.0951 -0.7655  0.2341
 1529ETH     CH13755   0.435   5.760   0.016  0.0836 -0.9902 -0.1526
 1529ETH     HO13756   0.511   5.606   0.280  1.1359  1.3976  1.8265
 1529ETH     HC13757   0.542   5.564   0.064  1.6349  1.1355  0.2031
 1529ETH     HC13758   0.368   5.571   0.089 -0.1298 -0.4711  1.2892
 1529ETH     HC13759   0.336   5.796   0.044  1.1394  2.1022 -0.1737
 1529ETH     HC13760   0.511   5.838   0.027 -1.2015  0.1628  0.6566
 1529ETH     HC13761   0.436   5.720  -0.085 -2.5582  0.1093 -0.6489
 1530ETH     OH13762   3.442   2.515   5.532 -0.3550 -0.7364  0.1609
 1530ETH     CH13763   3.420   2.556   5.399  0.7059 -0.1834  0.1462
 1530ETH     CH13764   3.535   2.653   5.373 -0.0769  0.6522 -0.2566
 1530ETH     HO13765   3.359   2.480   5.559 -1.1765  0.7841 -0.3635
 1530ETH     HC13766   3.438   2.472   5.331 -1.6777 -0.7090  0.0992
 1530ETH     HC13767   3.331   2.614   5.373  1.9277  0.6902 -2.2765
 1530ETH     HC13768   3.545   2.686   5.269 -0.8202  1.1717 -0.1653
 1530ETH     HC13769   3.527   2.739   5.438 -1.3516 -0.3368  0.9305
 1530ETH     HC13770   3.633   2.611   5.396  0.1913  0.7702 -1.1600
 1531ETH     OH13771   3.244   3.621   0.788  0.1903  0.2400 -0.2408
 1531ETH     CH13772   3.348   3.607   0.694  0.1401  0.3377 -0.3102
 1531ETH     CH13773   3.455   3.512   0.747  0.4279  0.2652 -1.0131
 1531ETH     HO13774   3.193   3.695   0.760 -1.4350 -0.0058  1.8889
 1531ETH     HC13775   3.307   3.579   0.596  0.4937 -0.5938 -0.1967
 1531ETH     HC13776   3.388   3.708   0.685 -2.5806  1.5851  0.8696
 1531ETH     HC13777   3.537   3.488   0.680  0.5385 -2.5933  0.0701
 1531ETH     HC13778   3.483   3.555   0.843 -1.4804 -0.2633 -0.1771
 1531ETH     HC13779   3.416   3.418   0.786  1.1804 -0.0507 -1.0152
 1532ETH     OH13780   3.668   0.040   0.852  0.0574  0.3406 -0.2713
 1532ETH     CH13781   3.589   0.147   0.898  0.3835  0.1261  0.8054
 1532ETH     CH13782   3.546   0.235   0.780  0.3649  0.4446  1.0477
 1532ETH     HO13783   3.735   0.075   0.795  2.4772  1.2602  2.9332
 1532ETH     HC13784   3.507   0.110   0.960  2.3628 -1.2677  2.6429
 1532ETH     HC13785   3.650   0.214   0.959 -1.6832  1.4703  1.4795
 1532ETH     HC13786   3.640   0.276   0.744  0.0904  0.0028 -0.2238
 1532ETH     HC13787   3.498   0.172   0.705  0.2132  4.5383 -2.4878
 1532ETH     HC13788   3.471   0.312   0.790  0.3201  0.3348  1.5637
 1533ETH     OH13789   5.421   1.712   5.840 -0.2514  0.5670  0.5975
 1533ETH     CH13790   5.295   1.737   5.898 -0.4723  0.0737  0.3334
 1533ETH     CH13791   5.184   1.732   5.793 -0.4419  0.4670  0.2827
 1533ETH     HO13792   5.397   1.631   5.798  0.5099  0.8739 -0.4330
 1533ETH     HC13793   5.283   1.671   5.984  1.6139 -1.4580 -0.4976
 1533ETH     HC13794   5.296   1.839   5.935  1.1963 -0.7895  2.8593
 1533ETH     HC13795   5.209   1.794   5.707 -1.8166 -0.2874 -0.6792
 1533ETH     HC13796   5.185   1.633   5.747  0.7275 -0.3115  1.8998
 1533ETH     HC13797   5.087   1.756   5.838  0.0079  2.8917  0.0119
 1534ETH     OH13798   2.749   2.916   2.167 -0.0053 -0.0016 -0.0936
 1534ETH     CH13799   2.719   3.051   2.193 -0.3441 -0.0865 -0.0394
 1534ETH     CH13800   2.809   3.095   2.308  0.1076 -0.2378 -0.3336
 1534ETH     HO13801   2.834   2.897   2.131  0.5330 -1.5408  1.9331
 1534ETH     HC13802   2.760   3.103   2.106 -0.3295 -0.5127 -0.2866
 1534ETH     HC13803   2.615   3.084   2.201 -0.7730 -1.5961  0.7791
 1534ETH     HC13804   2.785   3.197   2.337  0.4083  0.4421 -2.4485
 1534ETH     HC13805   2.799   3.014   2.381  1.4566 -0.4121 -0.3148
 1534ETH     HC13806   2.914   3.083   2.281  0.2905  1.0059 -0.2031
 1535ETH     OH13807   0.684   0.104   5.006  0.5308 -0.0345 -0.0693
 1535ETH     CH13808   0.611   0.063   4.893  0.3004 -0.0941  0.1008
 1535ETH     CH13809   0.590   0.189   4.810  0.1895 -0.3116 -0.2041
 1535ETH     HO13810   0.748   0.037   5.026 -1.2937 -1.4385  1.3155
 1535ETH     HC13811   0.670  -0.016   4.847 -0.3196  0.3154 -1.4254
 1535ETH     HC13812   0.521   0.022   4.939  0.0828  1.2571  0.8920
 1535ETH     HC13813   0.683   0.221   4.763 -1.2055  0.3798 -2.5966
 1535ETH     HC13814   0.535   0.164   4.719  0.2775 -2.0146  0.1963
 1535ETH     HC13815   0.557   0.279   4.862  0.2684 -0.8612  0.8080
 1536ETH     OH13816   3.519   0.728   3.601 -0.3742  0.4256 -0.0386
 1536ETH     CH13817   3.627   0.697   3.686 -0.4970  0.0372 -0.0214
 1536ETH     CH13818   3.615   0.787   3.810 -0.3266 -0.3830  0.3010
 1536ETH     HO13819   3.538   0.806   3.552  0.7111  0.3419  0.2311
 1536ETH     HC13820   3.616   0.592   3.713  0.4013 -0.1601 -0.4351
 1536ETH     HC13821   3.724   0.712   3.640 -1.1115  1.1830 -0.9776
 1536ETH     HC13822   3.706   0.785   3.870 -1.4378  0.9746  2.0460
 1536ETH     HC13823   3.602   0.893   3.788  0.6760  0.2564  2.6490
 1536ETH     HC13824   3.538   0.753   3.879  0.3060 -0.4942  0.9595
 1537ETH     OH13825   5.669   3.426   5.581  0.3770  0.2453 -0.1110
 1537ETH     CH13826   5.724   3.301   5.544  0.4294  0.4905 -0.8654
 1537ETH     CH13827   5.609   3.218   5.485  0.0997 -0.1857  0.7283
 1537ETH     HO13828   5.731   3.469   5.637  2.8974 -1.2902 -1.6139
 1537ETH     HC13829   5.789   3.323   5.459 -0.7341  2.8962 -1.1997
 1537ETH     HC13830   5.785   3.259   5.623 -0.0322  1.2071 -0.1246
 1537ETH     HC13831   5.509   3.240   5.523 -0.8859 -0.1856 -1.7973
 1537ETH     HC13832   5.604   3.228   5.377 -0.9371 -1.1244  0.6777
 1537ETH     HC13833   5.626   3.112   5.504 -0.8599 -0.5842 -0.5902
 1538ETH     OH13834   2.966   1.682   1.781 -0.0386  0.4364 -0.3636
 1538ETH     CH13835   2.998   1.669   1.645  0.0595 -0.1234 -0.2897
 1538ETH     CH13836   2.864   1.656   1.571 -0.2410  0.1252  0.2141
 1538ETH     HO13837   2.913   1.758   1.799  3.2847  2.6645  0.6815
 1538ETH     HC13838   3.045   1.763   1.615  0.5705 -0.5367 -0.7981
 1538ETH     HC13839   3.069   1.591   1.617 -2.4562 -2.2742 -0.9203
 1538ETH     HC13840   2.867   1.649   1.463  0.9563 -1.0083  0.3077
 1538ETH     HC13841   2.809   1.575   1.619  1.3470  0.1719  2.2076
 1538ETH     HC13842   2.796   1.739   1.591  1.5649  0.7048  4.5365
 1539ETH     OH13843   5.757   4.208   1.994  0.0631 -0.0560  0.4336
 1539ETH     CH13844   5.755   4.075   2.040  0.1402 -0.1311  0.2220
 1539ETH     CH13845   5.806   3.988   1.926  0.0256  0.3581 -0.2033
 1539ETH     HO13846   5.679   4.254   2.021 -0.0842 -1.3550  2.3415
 1539ETH     HC13847   5.811   4.062   2.133 -0.1830 -2.8442  0.0881
 1539ETH     HC13848   5.649   4.057   2.057  0.4920 -1.7508  0.7787
 1539ETH     HC13849   5.911   3.996   1.898  0.2951 -0.3923  0.5889
 1539ETH     HC13850   5.795   3.882   1.948  2.3510  0.4443  1.5396
 1539ETH     HC13851   5.733   3.997   1.846  0.9539  1.2241 -0.9710
 1540ETH     OH13852   0.735   1.965   1.511  0.4693  0.0843 -0.6692
 1540ETH     CH13853   0.779   1.986   1.644  0.4620 -0.0635 -0.6427
 1540ETH     CH13854   0.748   2.122   1.707  0.1315 -0.5318  0.2023
 1540ETH     HO13855   0.730   2.049   1.469  0.1305 -0.1295 -1.0590
 1540ETH     HC13856   0.740   1.907   1.707  2.4513 -0.0791  0.6324
 1540ETH     HC13857   0.886   1.972   1.659 -0.0636 -3.7514  0.0667
 1540ETH     HC13858   0.650   2.160   1.680  0.3496  0.5296  0.8588
 1540ETH     HC13859   0.761   2.120   1.816  0.4565  0.1258  0.1768
 1540ETH     HC13860   0.826   2.192   1.676 -1.2626  1.3956  0.9614
 1541ETH     OH13861   3.888   0.918   5.907  0.0798 -0.0626 -0.1995
 1541ETH     CH13862   3.823   0.799   5.868  0.3990  0.0069 -0.9412
 1541ETH     CH13863   3.757   0.822   5.732  0.0057 -0.2697 -0.7946
 1541ETH     HO13864   3.838   0.998   5.898  0.0780  0.3431  2.7476
 1541ETH     HC13865   3.877   0.705   5.867 -0.9666 -0.7862 -1.4998
 1541ETH     HC13866   3.745   0.782   5.942  0.9821 -1.1866 -0.5949
 1541ETH     HC13867   3.697   0.911   5.752 -0.7583 -1.1325  0.9008
 1541ETH     HC13868   3.837   0.837   5.660  0.6482 -2.2759 -0.5259
 1541ETH     HC13869   3.690   0.743   5.698 -1.0656  0.2239  0.1307
 1542ETH     OH13870   3.744   1.692   0.645 -0.0273 -0.3347  0.4985
 1542ETH     CH13871   3.623   1.743   0.698 -0.2016  0.0106 -0.2241
 1542ETH     CH13872   3.531   1.790   0.585 -0.1518  0.1208 -0.2193
 1542ETH     HO13873   3.725   1.624   0.582 -0.0439 -0.8263  1.0340
 1542ETH     HC13874   3.573   1.665   0.755  0.8073 -0.9948 -0.6912
 1542ETH     HC13875   3.642   1.825   0.767  0.4143 -0.8982  0.7069
 1542ETH     HC13876   3.479   1.707   0.535  3.3424 -1.2818 -1.6808
 1542ETH     HC13877   3.449   1.853   0.619  0.5510  1.1378 -0.4250
 1542ETH     HC13878   3.578   1.831   0.496  1.5207 -2.3134 -0.5081
 1543ETH     OH13879   1.760   0.099   3.153 -0.6959 -0.5532  0.4480
 1543ETH     CH13880   1.715  -0.033   3.130 -0.4041 -0.5318 -0.2482
 1543ETH     CH13881   1.789  -0.109   3.020  0.1687 -0.0726 -0.1850
 1543ETH     HO13882   1.847   0.095   3.187  0.2636  0.8344 -1.6886
 1543ETH     HC13883   1.710  -0.080   3.228  1.6627 -0.8070 -0.2486
 1543ETH     HC13884   1.610  -0.029   3.104 -0.2132  0.6390 -0.9154
 1543ETH     HC13885   1.730  -0.189   2.976  0.3478  0.5565 -1.6192
 1543ETH     HC13886   1.815  -0.036   2.943 -1.0552  0.0457 -0.4868
 1543ETH     HC13887   1.885  -0.148   3.055  0.4075 -0.7849 -1.5788
 1544ETH     OH13888   3.780   4.498   4.645 -0.6009  0.2056 -0.1952
 1544ETH     CH13889   3.670   4.439   4.710 -0.4411 -0.3357 -0.4144
 1544ETH     CH13890   3.717   4.304   4.764 -0.6042 -0.0019  0.5815
 1544ETH     HO13891   3.764   4.591   4.640 -0.7734  0.2197  0.5954
 1544ETH     HC13892   3.639   4.504   4.791 -3.1984 -2.5704  0.3922
 1544ETH     HC13893   3.590   4.444   4.636 -0.2808 -0.8707 -0.6224
 1544ETH     HC13894   3.793   4.307   4.842  0.2630 -0.8236 -0.2087
 1544ETH     HC13895   3.634   4.245   4.802 -1.1460 -1.3497 -2.4837
 1544ETH     HC13896   3.771   4.244   4.690 -3.8414 -2.7105  0.2734
 1545ETH     OH13897   1.790   3.701   2.002 -0.2158 -0.2525  0.0306
 1545ETH     CH13898   1.785   3.705   2.143 -0.1283  0.7441  0.0148
 1545ETH     CH13899   1.641   3.693   2.194 -0.1930  0.1443 -0.3061
 1545ETH     HO13900   1.878   3.726   1.978  0.3978 -2.1711  0.2389
 1545ETH     HC13901   1.860   3.635   2.180 -0.2820 -0.2484 -1.4872
 1545ETH     HC13902   1.819   3.803   2.175  0.4966  0.1236  1.2990
 1545ETH     HC13903   1.599   3.597   2.161  2.5663 -1.2245  0.0092
 1545ETH     HC13904   1.638   3.714   2.301  0.4726 -0.1384 -0.2260
 1545ETH     HC13905   1.584   3.769   2.142  2.3052  2.2033 -0.1283
 1546ETH     OH13906   4.080   2.472   4.803  0.1366  0.1083 -0.0682
 1546ETH     CH13907   4.121   2.341   4.836  0.1640  0.0157 -0.4683
 1546ETH     CH13908   4.054   2.230   4.753 -0.3805 -0.2525  0.3187
 1546ETH     HO13909   3.990   2.485   4.829  0.3321  4.6060 -1.2315
 1546ETH     HC13910   4.230   2.337   4.834  0.1360 -1.1317 -0.1406
 1546ETH     HC13911   4.088   2.332   4.939  0.3761 -0.7863 -0.4653
 1546ETH     HC13912   4.091   2.129   4.767 -1.1788 -0.7514 -1.1784
 1546ETH     HC13913   3.946   2.230   4.767 -0.3291 -2.1602  0.7786
 1546ETH     HC13914   4.075   2.242   4.647 -1.5711 -0.2947  0.0737
 1547ETH     OH13915   3.385   1.274   0.865 -0.2242  0.1546  0.1802
 1547ETH     CH13916   3.422   1.195   0.976  0.3690  0.4328  0.1820
 1547ETH     CH13917   3.295   1.166   1.056  0.0940  0.2927 -0.3041
 1547ETH     HO13918   3.428   1.356   0.883  0.0605 -0.0466  0.4272
 1547ETH     HC13919   3.469   1.100   0.949 -0.0553 -0.2867  1.9036
 1547ETH     HC13920   3.499   1.245   1.036 -0.7378  3.0265 -0.4891
 1547ETH     HC13921   3.317   1.114   1.149 -1.9466  1.7909  1.0608
 1547ETH     HC13922   3.239   1.255   1.086 -0.9937 -0.3749 -0.3242
 1547ETH     HC13923   3.224   1.112   0.994 -1.5049  0.3853  1.4152
 1548ETH     OH13924   0.251   3.329   2.358 -0.4347  0.2004  0.5563
 1548ETH     CH13925   0.233   3.438   2.271 -0.0837 -0.0925  0.1163
 1548ETH     CH13926   0.108   3.415   2.186  0.1358 -0.8241 -0.0078
 1548ETH     HO13927   0.336   3.341   2.398 -0.7850 -0.0769  1.3915
 1548ETH     HC13928   0.210   3.529   2.326 -0.8790  0.2962 -0.8304
 1548ETH     HC13929   0.314   3.476   2.208 -1.3027 -2.8876 -3.3516
 1548ETH     HC13930   0.015   3.393   2.238  0.1315  4.1289  2.3393
 1548ETH     HC13931   0.090   3.510   2.136 -1.4153 -1.5396 -0.8239
 1548ETH     HC13932   0.126   3.333   2.115 -0.3056 -1.2977  0.4272
 1549ETH     OH13933   1.473   5.943   3.674 -0.5229  0.0189  0.1864
 1549ETH     CH13934   1.461   6.083   3.675  0.2251  0.0919 -0.3538
 1549ETH     CH13935   1.495   6.144   3.539  0.1644  0.1631 -0.3368
 1549ETH     HO13936   1.441   5.908   3.756  2.5402 -1.1062  0.9762
 1549ETH     HC13937   1.362   6.108   3.713  0.4648 -2.0101  1.7669
 1549ETH     HC13938   1.530   6.124   3.749 -1.3968  1.2592  0.5481
 1549ETH     HC13939   1.599   6.122   3.513 -1.0946 -2.4877 -3.4465
 1549ETH     HC13940   1.430   6.091   3.469 -1.4613  2.7424 -0.8198
 1549ETH     HC13941   1.469   6.249   3.527  0.2875  0.1450 -0.7564
 1550ETH     OH13942   4.702   4.208   1.982  0.0154 -0.2947  0.4948
 1550ETH     CH13943   4.571   4.167   1.950  0.0079 -0.0048  0.1540
 1550ETH     CH13944   4.469   4.211   2.056 -0.3571 -0.3123 -0.0724
 1550ETH     HO13945   4.760   4.134   1.972  1.7518  0.9364  1.0838
 1550ETH     HC13946   4.568   4.058   1.955 -0.6327  0.0372  0.7458
 1550ETH     HC13947   4.534   4.202   1.854  1.5385 -1.1218 -0.8657
 1550ETH     HC13948   4.369   4.182   2.024 -0.7477  0.7009  0.2366
 1550ETH     HC13949   4.492   4.179   2.157 -2.3283 -0.9086  0.2182
 1550ETH     HC13950   4.469   4.319   2.042 -1.3976 -0.3825 -0.6591
 1551ETH     OH13951   4.743   0.723   5.271  0.0252  0.9541 -0.1848
 1551ETH     CH13952   4.830   0.674   5.171  0.4798  0.5787  0.3877
 1551ETH     CH13953   4.973   0.722   5.195  0.4441  0.6596  0.4485
 1551ETH     HO13954   4.710   0.807   5.243  2.5324  1.4880 -1.6447
 1551ETH     HC13955   4.827   0.566   5.168 -0.4640  0.6377 -1.6114
 1551ETH     HC13956   4.795   0.718   5.078  0.5445 -0.1830  0.0053
 1551ETH     HC13957   4.969   0.828   5.170  1.3385  0.7273  0.5655
 1551ETH     HC13958   4.999   0.715   5.301 -1.8833 -1.1048  0.9519
 1551ETH     HC13959   5.049   0.674   5.134 -0.4461 -1.2187  0.7752
 1552ETH     OH13960   5.062   0.373   5.161  0.3440  0.3779 -0.3203
 1552ETH     CH13961   5.045   0.314   5.035  0.0514 -0.0861 -0.0643
 1552ETH     CH13962   4.991   0.176   5.072  0.0543 -0.0979 -0.1049
 1552ETH     HO13963   4.988   0.368   5.220  1.6571 -0.3892  1.3221
 1552ETH     HC13964   5.135   0.302   4.974  0.8118  0.3539  0.9612
 1552ETH     HC13965   4.972   0.378   4.985  0.1763  0.1026 -0.0079
 1552ETH     HC13966   4.897   0.185   5.127  0.1925 -0.4983  0.1977
 1552ETH     HC13967   4.962   0.115   4.987 -0.1445 -0.2950  0.1023
 1552ETH     HC13968   5.058   0.113   5.130  0.7917 -0.2494 -1.0967
 1553ETH     OH13969   5.969   5.526   0.913  0.1373 -0.2728 -0.4088
 1553ETH     CH13970   5.962   5.417   1.003 -0.1363 -0.1286 -0.2542
 1553ETH     CH13971   6.096   5.412   1.076 -0.0471 -0.5044 -0.4421
 1553ETH     HO13972   5.885   5.569   0.911  0.6730  0.7194 -2.4319
 1553ETH     HC13973   5.879   5.439   1.070  0.9256  3.8129 -0.1310
 1553ETH     HC13974   5.932   5.330   0.944 -0.6479 -0.8425  1.0564
 1553ETH     HC13975   6.121   5.313   1.115  2.6549  1.1949  2.2709
 1553ETH     HC13976   6.176   5.441   1.007  1.2670 -3.3601 -0.1807
 1553ETH     HC13977   6.101   5.482   1.159 -0.4478 -0.3410 -0.5570
 1554ETH     OH13978   2.918   4.751   5.197 -0.0535  0.1063 -0.2539
 1554ETH     CH13979   2.830   4.860   5.210  0.0879  0.2071 -0.1301
 1554ETH     CH13980   2.687   4.806   5.220  0.1867 -0.0477 -0.1195
 1554ETH     HO13981   3.000   4.795   5.182 -0.9293  1.0523 -2.5760
 1554ETH     HC13982   2.846   4.925   5.296  1.2665 -1.1145  0.6694
 1554ETH     HC13983   2.848   4.914   5.117  2.2202 -1.2699 -0.6035
 1554ETH     HC13984   2.623   4.891   5.239 -1.4985 -1.0602 -1.1157
 1554ETH     HC13985   2.649   4.768   5.125 -2.5540 -0.0552  0.9395
 1554ETH     HC13986   2.671   4.733   5.300 -2.3258  0.6730  0.0529
 1555ETH     OH13987   0.087   0.313   6.020  0.2349 -0.2029 -0.0144
 1555ETH     CH13988   0.187   0.246   6.094  0.0425 -0.1701  0.2759
 1555ETH     CH13989   0.152   0.248   6.243  0.2509 -0.7581  0.3372
 1555ETH     HO13990   0.088   0.263   5.940  2.5997  0.5681 -0.5128
 1555ETH     HC13991   0.180   0.142   6.061  2.7737 -0.2457 -0.2164
 1555ETH     HC13992   0.287   0.286   6.077 -0.1256  0.7024  1.3012
 1555ETH     HC13993   0.150   0.354   6.266 -1.0054 -0.9953  1.3948
 1555ETH     HC13994   0.048   0.218   6.253  0.1299 -0.4001  0.1590
 1555ETH     HC13995   0.212   0.182   6.306  1.0443  0.7928  1.2378
 1556ETH     OH13996   1.574   1.653   0.185  0.1638  0.4262 -0.0896
 1556ETH     CH13997   1.630   1.765   0.249 -0.1022  0.5400 -0.0528
 1556ETH     CH13998   1.524   1.875   0.256  0.2026  0.8336 -0.0547
 1556ETH     HO13999   1.622   1.580   0.220 -0.3287 -1.0973 -2.4581
 1556ETH     HC14000   1.686   1.731   0.337  0.8001 -0.4288 -0.9747
 1556ETH     HC14001   1.716   1.787   0.185 -1.5977  2.5897 -1.4055
 1556ETH     HC14002   1.563   1.960   0.312 -2.0461  0.1332  2.6620
 1556ETH     HC14003   1.497   1.916   0.159  0.4789 -0.9470 -0.9119
 1556ETH     HC14004   1.435   1.843   0.310  1.1944 -0.7877  0.6698
 1557ETH     OH14005   0.063   5.822   1.892 -0.1762  0.3433 -0.1434
 1557ETH     CH14006   0.135   5.863   2.006 -0.2871  0.3418 -0.0733
 1557ETH     CH14007   0.095   5.783   2.131  0.0852  0.1354 -0.0849
 1557ETH     HO14008   0.030   5.736   1.913 -3.5342  1.7364  0.6030
 1557ETH     HC14009   0.237   5.834   1.981 -1.4707 -3.0713 -1.2544
 1557ETH     HC14010   0.125   5.968   2.034  2.9567  0.5325  0.5326
 1557ETH     HC14011  -0.008   5.807   2.157 -0.0061 -1.1091  0.7658
 1557ETH     HC14012   0.109   5.675   2.120 -0.0014  0.0404  0.6928
 1557ETH     HC14013   0.155   5.816   2.216  0.8313  0.8513 -0.8805
 1558ETH     OH14014   4.288   2.956   2.409 -0.8774  0.5604 -0.1323
 1558ETH     CH14015   4.390   3.045   2.448 -0.0859 -0.4625  0.1500
 1558ETH     CH14016   4.497   2.973   2.530  0.0084  0.1113  0.5307
 1558ETH     HO14017   4.250   3.006   2.338  2.4146  1.3936 -1.4083
 1558ETH     HC14018   4.426   3.081   2.352  0.5819 -0.8469  0.2532
 1558ETH     HC14019   4.349   3.132   2.498  0.3881 -0.7764  1.0884
 1558ETH     HC14020   4.446   2.917   2.608 -0.6347  0.3076  0.2499
 1558ETH     HC14021   4.551   2.894   2.477  0.9948 -0.2545  2.0267
 1558ETH     HC14022   4.571   3.042   2.572 -0.3259  2.1602 -2.1379
 1559ETH     OH14023   5.395   2.617   2.546 -0.1872  0.2533  0.5144
 1559ETH     CH14024   5.527   2.639   2.502 -0.2184  0.0244  0.3100
 1559ETH     CH14025   5.602   2.511   2.539  0.0482  0.2540  0.5575
 1559ETH     HO14026   5.346   2.560   2.489 -0.4833  2.2236 -1.2895
 1559ETH     HC14027   5.515   2.654   2.394 -1.0073  0.6495  0.4829
 1559ETH     HC14028   5.574   2.725   2.548  0.6632 -1.0481  1.4733
 1559ETH     HC14029   5.623   2.526   2.645 -1.0916 -0.7837  0.9340
 1559ETH     HC14030   5.549   2.416   2.531  1.5965 -0.5882 -0.0485
 1559ETH     HC14031   5.693   2.504   2.479  1.1190 -0.6588  2.2473
 1560ETH     OH14032   3.447   5.701   5.666 -0.0806  0.3277  0.2826
 1560ETH     CH14033   3.466   5.811   5.579  0.0573  0.2643  0.2322
 1560ETH     CH14034   3.386   5.802   5.450  0.3065  0.4585  0.0646
 1560ETH     HO14035   3.498   5.713   5.745  1.5289 -0.4569 -0.6128
 1560ETH     HC14036   3.439   5.897   5.640 -0.2257 -0.2266  0.8183
 1560ETH     HC14037   3.572   5.831   5.561 -0.0126  0.4701  0.0582
 1560ETH     HC14038   3.375   5.899   5.401  0.4504 -1.2299 -3.4483
 1560ETH     HC14039   3.425   5.731   5.377 -1.6637 -0.4443 -0.1484
 1560ETH     HC14040   3.286   5.758   5.455  1.2545 -1.8859 -0.7718
 1561ETH     OH14041   1.128   5.970   5.408  0.3038  0.4954 -0.4131
 1561ETH     CH14042   1.057   6.025   5.517 -0.0617 -0.3180 -0.2373
 1561ETH     CH14043   1.017   6.170   5.491  0.0099 -0.2555  0.0007
 1561ETH     HO14044   1.213   6.011   5.401  1.0433 -1.3114 -2.2689
 1561ETH     HC14045   0.972   5.963   5.547 -0.5185  0.7398  0.6862
 1561ETH     HC14046   1.117   6.011   5.606  2.1859  1.1583 -1.4886
 1561ETH     HC14047   1.103   6.236   5.480  1.1707 -1.6029  0.8831
 1561ETH     HC14048   0.951   6.185   5.406 -0.3448 -1.9141 -0.0330
 1561ETH     HC14049   0.969   6.211   5.580  0.1572  0.9111 -0.4455
 1562ETH     OH14050   4.615   3.441   1.116  0.1190 -0.2768  0.3163
 1562ETH     CH14051   4.504   3.367   1.159 -0.1210 -0.2721 -0.2831
 1562ETH     CH14052   4.445   3.279   1.048  0.2011 -0.4818 -0.2888
 1562ETH     HO14053   4.634   3.505   1.182  0.3107  1.2736 -1.1883
 1562ETH     HC14054   4.548   3.305   1.238  1.0563 -1.9335 -2.2095
 1562ETH     HC14055   4.431   3.437   1.200  0.9143  0.9471 -0.5052
 1562ETH     HC14056   4.372   3.208   1.086 -0.1326  0.1195  0.2164
 1562ETH     HC14057   4.388   3.353   0.991  1.0553  0.8085  0.5136
 1562ETH     HC14058   4.521   3.233   0.985  1.1654 -0.0827  0.5755
 1563ETH     OH14059   0.656   1.153   3.159 -0.0291  0.4998  0.0786
 1563ETH     CH14060   0.621   1.084   3.041 -0.1131 -0.2513  0.5391
 1563ETH     CH14061   0.481   1.024   3.055 -0.2590  0.0786  0.4860
 1563ETH     HO14062   0.666   1.087   3.226  2.5289  0.2114 -0.5334
 1563ETH     HC14063   0.637   1.151   2.956  1.4760 -1.0169  0.2062
 1563ETH     HC14064   0.688   0.999   3.026  1.7917  1.6816 -2.6555
 1563ETH     HC14065   0.451   0.991   2.956 -0.3907 -1.7106  1.1111
 1563ETH     HC14066   0.472   0.939   3.123  0.1349  0.5942  1.1931
 1563ETH     HC14067   0.416   1.107   3.083  0.7266  1.8500 -2.2915
 1564ETH     OH14068   1.452   1.177   1.001 -0.4706  0.0099  0.9582
 1564ETH     CH14069   1.319   1.225   1.007 -0.5719 -0.0608 -0.5370
 1564ETH     CH14070   1.247   1.113   1.083  0.2571  0.0320  0.3975
 1564ETH     HO14071   1.452   1.084   0.984 -2.9494 -0.0948  1.3463
 1564ETH     HC14072   1.311   1.321   1.057  0.4038 -0.4971  0.5013
 1564ETH     HC14073   1.275   1.229   0.908  1.8051 -2.0473 -1.7511
 1564ETH     HC14074   1.281   1.093   1.185  4.0980  2.8579 -0.1974
 1564ETH     HC14075   1.144   1.145   1.069  0.1587 -0.2155  0.5737
 1564ETH     HC14076   1.247   1.020   1.027 -0.3265 -0.0293  0.4946
 1565ETH     OH14077   4.061   3.946   2.061  0.0048 -0.4372 -0.4193
 1565ETH     CH14078   4.095   3.895   1.934 -0.3449 -0.1079 -0.6447
 1565ETH     CH14079   4.194   3.780   1.947 -0.2869  0.0139  0.0211
 1565ETH     HO14080   4.012   4.026   2.048  1.0255  0.1469 -0.7020
 1565ETH     HC14081   4.000   3.864   1.889 -0.6798  0.0238 -0.0347
 1565ETH     HC14082   4.147   3.962   1.866 -0.4917  1.1179  0.4282
 1565ETH     HC14083   4.298   3.800   1.972 -0.6091 -0.5975  1.9332
 1565ETH     HC14084   4.171   3.707   2.025  2.6756 -0.0975  0.8597
 1565ETH     HC14085   4.199   3.726   1.852  1.1999 -1.3069  0.8256
 1566ETH     OH14086   5.444   5.529   5.590  0.3747  0.2048 -0.0406
 1566ETH     CH14087   5.529   5.436   5.527 -0.1390 -0.2930 -0.0035
 1566ETH     CH14088   5.453   5.356   5.422 -0.1156 -0.1232 -0.1474
 1566ETH     HO14089   5.493   5.564   5.663 -0.2915 -0.0442  0.5265
 1566ETH     HC14090   5.614   5.478   5.474  0.0382 -1.6167 -0.7914
 1566ETH     HC14091   5.570   5.369   5.604  1.9784  3.9723  2.8170
 1566ETH     HC14092   5.383   5.288   5.471 -2.3340  3.2639  1.5841
 1566ETH     HC14093   5.408   5.408   5.338  2.0816 -1.3285 -2.1372
 1566ETH     HC14094   5.522   5.291   5.368  1.6922  0.7167  1.1054
 1567ETH     OH14095   5.464   1.577   1.847 -0.1966 -0.0744 -0.0539
 1567ETH     CH14096   5.465   1.483   1.951  0.1746  0.0184  0.0274
 1567ETH     CH14097   5.328   1.481   2.020 -0.0363  0.6833 -0.3714
 1567ETH     HO14098   5.503   1.535   1.772  0.3623 -1.6619  1.1083
 1567ETH     HC14099   5.483   1.382   1.914 -2.0858 -0.1398 -0.7320
 1567ETH     HC14100   5.544   1.498   2.024 -0.7783 -2.3787  1.6282
 1567ETH     HC14101   5.329   1.419   2.109  1.6328  1.7334  0.3739
 1567ETH     HC14102   5.300   1.582   2.051  0.9871  0.6885  0.5794
 1567ETH     HC14103   5.249   1.453   1.951  0.0192 -0.0348 -0.1444
 1568ETH     OH14104   4.835   4.470   3.659  0.1923  0.6098 -0.1611
 1568ETH     CH14105   4.697   4.486   3.635  0.0423 -0.3098  0.0780
 1568ETH     CH14106   4.615   4.460   3.761  0.0356 -0.3018  0.0750
 1568ETH     HO14107   4.847   4.413   3.734 -0.1309 -0.7465 -1.1111
 1568ETH     HC14108   4.692   4.584   3.589 -0.1589 -0.3274  0.0587
 1568ETH     HC14109   4.668   4.404   3.570  2.5805  0.6022 -2.3024
 1568ETH     HC14110   4.623   4.358   3.798 -0.2791  0.1072  1.3244
 1568ETH     HC14111   4.628   4.531   3.843 -1.2020 -0.3445  0.3191
 1568ETH     HC14112   4.510   4.475   3.736  0.0615  0.6482  0.5173
 1569ETH     OH14113   2.284   5.762   3.483  0.4080  0.6810  0.1694
 1569ETH     CH14114   2.387   5.730   3.392 -0.1077  0.9600 -0.5219
 1569ETH     CH14115   2.519   5.774   3.457  0.1094 -0.4294 -0.0075
 1569ETH     HO14116   2.300   5.720   3.565 -0.6785 -0.1891 -0.0589
 1569ETH     HC14117   2.387   5.622   3.379 -0.1902  0.6282  1.9317
 1569ETH     HC14118   2.367   5.776   3.295 -0.2075  0.8084 -0.5721
 1569ETH     HC14119   2.501   5.846   3.537 -0.1859 -0.7033  0.1732
 1569ETH     HC14120   2.553   5.683   3.506 -1.7912 -0.7175  0.7926
 1569ETH     HC14121   2.596   5.813   3.390  1.6438  0.8972  2.4831
 1570ETH     OH14122   2.949   3.119   4.723 -0.4345  0.0574 -0.2101
 1570ETH     CH14123   3.084   3.146   4.692 -0.1584 -0.5828  0.4377
 1570ETH     CH14124   3.158   3.018   4.654  0.1515 -0.3341  0.2026
 1570ETH     HO14125   2.895   3.129   4.646 -0.0376  1.9916 -0.2735
 1570ETH     HC14126   3.099   3.217   4.611  2.3212 -0.4301  0.9774
 1570ETH     HC14127   3.129   3.194   4.779 -1.7842  1.5580  0.1245
 1570ETH     HC14128   3.189   2.972   4.748 -1.0229 -2.3263 -0.3664
 1570ETH     HC14129   3.096   2.943   4.605  0.0790 -1.2113  1.5925
 1570ETH     HC14130   3.250   3.044   4.601  0.6407 -0.6604  0.8749
 1571ETH     OH14131   3.593   2.758   1.026  0.2023 -0.4070  0.1331
 1571ETH     CH14132   3.667   2.847   0.945 -0.3517  0.0777  0.1576
 1571ETH     CH14133   3.753   2.769   0.846 -1.1033 -0.6440  0.0677
 1571ETH     HO14134   3.524   2.803   1.072 -0.3405 -1.5630  0.4607
 1571ETH     HC14135   3.604   2.918   0.890 -1.0401 -0.1724  0.6196
 1571ETH     HC14136   3.730   2.911   1.007 -1.6508 -0.1256  1.7211
 1571ETH     HC14137   3.705   2.708   0.769 -0.8755  0.6635 -1.1276
 1571ETH     HC14138   3.805   2.845   0.788 -0.5804 -1.8864 -1.1427
 1571ETH     HC14139   3.831   2.718   0.904 -0.8861  0.8107  1.0744
 1572ETH     OH14140   2.955   1.345   0.994 -0.0224  0.1025  0.3313
 1572ETH     CH14141   2.956   1.486   0.988 -0.3768  0.0877 -0.1648
 1572ETH     CH14142   2.810   1.522   1.018 -0.1921  0.7189 -0.0116
 1572ETH     HO14143   3.029   1.328   0.937  1.4771 -0.2555  2.3525
 1572ETH     HC14144   3.031   1.533   1.051  0.9922 -0.3627 -1.4242
 1572ETH     HC14145   2.989   1.517   0.889  0.3659 -2.3981 -0.7307
 1572ETH     HC14146   2.788   1.473   1.113  1.9719  0.1404  0.2179
 1572ETH     HC14147   2.784   1.626   1.032  1.5600  0.9811  1.4069
 1572ETH     HC14148   2.742   1.493   0.937  0.9951 -0.1717 -0.7189
 1573ETH     OH14149   1.522   0.097   2.146 -0.3510  0.1356 -0.1505
 1573ETH     CH14150   1.617   0.020   2.076 -0.2230 -0.2490  0.4414
 1573ETH     CH14151   1.671  -0.092   2.166  0.0202 -0.0629  0.5263
 1573ETH     HO14152   1.505   0.171   2.091  0.0630  1.1935  1.1040
 1573ETH     HC14153   1.578  -0.024   1.984  0.9721  0.7929 -0.5781
 1573ETH     HC14154   1.694   0.085   2.034 -0.7212 -0.9284 -1.5742
 1573ETH     HC14155   1.604  -0.173   2.195 -0.2626 -0.5650 -1.4769
 1573ETH     HC14156   1.763  -0.124   2.118  0.1315  0.3116  0.4844
 1573ETH     HC14157   1.713  -0.056   2.260  0.9420 -0.0085  0.0953
 1574ETH     OH14158   3.156   2.462   4.221 -0.3522  0.5769  0.1422
 1574ETH     CH14159   3.071   2.395   4.131  0.0036 -0.1008  0.3034
 1574ETH     CH14160   3.029   2.483   4.013 -0.2360  0.6028  0.9118
 1574ETH     HO14161   3.245   2.447   4.192 -0.3060 -2.2846  1.5760
 1574ETH     HC14162   3.114   2.303   4.092 -0.4604  0.3885 -1.3949
 1574ETH     HC14163   2.981   2.357   4.179  0.2443 -1.1825 -0.0975
 1574ETH     HC14164   2.948   2.429   3.964 -0.9444  0.1093  2.5923
 1574ETH     HC14165   2.984   2.577   4.045 -0.2802  1.1208 -0.6220
 1574ETH     HC14166   3.112   2.503   3.945 -0.5288 -1.7186 -0.1728
 1575ETH     OH14167   5.843   3.797   4.679 -0.1446 -0.1240 -0.2482
 1575ETH     CH14168   5.769   3.692   4.736 -0.3894  0.1294 -0.0940
 1575ETH     CH14169   5.675   3.619   4.639  0.0244  0.0653 -0.4475
 1575ETH     HO14170   5.792   3.877   4.672 -0.2519 -0.0665  0.9464
 1575ETH     HC14171   5.835   3.620   4.784  0.6676  0.1052 -1.5696
 1575ETH     HC14172   5.708   3.740   4.813  0.3053 -0.9823  1.1793
 1575ETH     HC14173   5.724   3.537   4.588 -1.2029 -0.1300 -1.3279
 1575ETH     HC14174   5.589   3.576   4.691  1.7635 -1.8566  0.9354
 1575ETH     HC14175   5.635   3.673   4.553  0.9421  0.5384 -0.5910
 1576ETH     OH14176   2.159   2.391   3.041 -0.2690 -0.0618 -0.1904
 1576ETH     CH14177   2.226   2.269   3.064 -0.2150  0.0712  0.3742
 1576ETH     CH14178   2.269   2.210   2.930  0.3656  0.7998  0.2342
 1576ETH     HO14179   2.218   2.453   3.001 -3.0149  4.0837  1.8016
 1576ETH     HC14180   2.306   2.289   3.135 -1.1795  2.3602  0.8582
 1576ETH     HC14181   2.162   2.197   3.115 -0.0385  1.1879  2.2284
 1576ETH     HC14182   2.348   2.273   2.889  1.6014 -1.0207 -0.2367
 1576ETH     HC14183   2.312   2.111   2.947  0.2587  1.3174  3.8349
 1576ETH     HC14184   2.184   2.206   2.861 -0.4449 -2.9669  1.3502
 1577ETH     OH14185   0.998   4.212   4.334  0.0449  0.7345  0.1501
 1577ETH     CH14186   0.964   4.232   4.469  0.4874  0.2132  0.3370
 1577ETH     CH14187   1.092   4.241   4.552  0.4743 -0.3600  0.4258
 1577ETH     HO14188   0.929   4.165   4.290 -0.8827  3.0104 -0.9051
 1577ETH     HC14189   0.909   4.326   4.464 -0.1133 -0.1677 -0.2425
 1577ETH     HC14190   0.894   4.151   4.492 -2.9771  2.6162 -1.2408
 1577ETH     HC14191   1.167   4.301   4.500  0.0576  0.1767  0.4416
 1577ETH     HC14192   1.066   4.287   4.647 -1.0658  1.0905 -0.6480
 1577ETH     HC14193   1.136   4.143   4.571 -0.9711 -0.9200  0.9241
 1578ETH     OH14194   1.343   5.794   2.333 -0.0849 -0.4175 -0.1604
 1578ETH     CH14195   1.437   5.886   2.384  0.0011 -0.3265 -0.4802
 1578ETH     CH14196   1.563   5.872   2.299  0.3207 -0.6522  0.0480
 1578ETH     HO14197   1.287   5.763   2.403  2.2848 -2.1521  1.0082
 1578ETH     HC14198   1.398   5.988   2.379  3.2822  1.0973  1.6480
 1578ETH     HC14199   1.449   5.849   2.486 -1.1259 -0.6484 -0.4570
 1578ETH     HC14200   1.609   5.775   2.316  0.2774 -0.8060 -0.7048
 1578ETH     HC14201   1.543   5.902   2.196  1.4733  1.5928  0.4480
 1578ETH     HC14202   1.634   5.947   2.336  0.1707 -0.8538  0.7572
 1579ETH     OH14203   0.075   4.268   4.389  0.2793 -0.0974 -0.2175
 1579ETH     CH14204  -0.023   4.167   4.380  0.1297  0.0204  0.0742
 1579ETH     CH14205   0.025   4.077   4.266  0.2797 -0.0578  0.1987
 1579ETH     HO14206   0.077   4.302   4.477 -0.9120 -3.5414  1.2110
 1579ETH     HC14207  -0.029   4.117   4.477  1.0590 -1.3043 -0.5242
 1579ETH     HC14208  -0.122   4.203   4.355 -1.0390 -0.0674  4.2907
 1579ETH     HC14209   0.041   4.118   4.166 -1.5348 -4.1268 -1.8805
 1579ETH     HC14210   0.123   4.032   4.285 -0.4045 -0.4805  2.8760
 1579ETH     HC14211  -0.047   3.996   4.270 -0.0131  0.1293 -0.9161
 1580ETH     OH14212   3.665   5.214   5.043  0.3493  0.0098  0.6771
 1580ETH     CH14213   3.687   5.311   4.943 -0.1010  0.1511  0.7134
 1580ETH     CH14214   3.817   5.376   4.991  0.0884  0.5408 -0.2975
 1580ETH     HO14215   3.618   5.137   5.015 -0.0649  0.5813 -0.2119
 1580ETH     HC14216   3.712   5.264   4.847  2.8826  0.1689  1.4105
 1580ETH     HC14217   3.604   5.380   4.929  0.7001  1.0662  0.4091
 1580ETH     HC14218   3.903   5.309   4.984  0.0004  0.5138 -1.0794
 1580ETH     HC14219   3.837   5.459   4.924 -2.9659  1.2104 -0.4511
 1580ETH     HC14220   3.821   5.411   5.094  0.2803 -1.2704  0.3410
 1581ETH     OH14221   1.552   1.033   5.862 -0.7467  0.2266  0.0686
 1581ETH     CH14222   1.663   1.080   5.788 -0.4103 -0.0659  0.3862
 1581ETH     CH14223   1.632   1.205   5.705  0.4838  0.3283  0.6404
 1581ETH     HO14224   1.576   0.955   5.908 -0.1407  0.4154  0.0764
 1581ETH     HC14225   1.741   1.097   5.862 -1.8963  2.0096  1.5525
 1581ETH     HC14226   1.699   1.001   5.723  1.4573 -0.0901  1.4170
 1581ETH     HC14227   1.563   1.174   5.626 -0.0796  0.4047  1.0958
 1581ETH     HC14228   1.576   1.287   5.749 -1.6015 -0.9806  0.5210
 1581ETH     HC14229   1.721   1.245   5.657  1.2617 -0.3317  1.5234
 1582ETH     OH14230   0.702   3.460   0.428 -0.0873 -0.1306 -0.6593
 1582ETH     CH14231   0.604   3.361   0.450 -0.1335 -0.0678 -0.5796
 1582ETH     CH14232   0.659   3.218   0.452 -0.2223 -0.0900  0.7514
 1582ETH     HO14233   0.725   3.491   0.514 -1.6393 -0.5457 -0.0702
 1582ETH     HC14234   0.560   3.371   0.549  1.5278 -0.5643  0.2316
 1582ETH     HC14235   0.523   3.369   0.377  0.3671 -2.2304 -1.4242
 1582ETH     HC14236   0.730   3.203   0.532 -0.3497 -1.2129  0.6628
 1582ETH     HC14237   0.580   3.146   0.473  1.5086 -1.5768  2.3548
 1582ETH     HC14238   0.689   3.185   0.353 -0.0497  1.6014  0.2229
 1583ETH     OH14239   0.392   1.853   6.004  0.4013 -0.0103  0.0443
 1583ETH     CH14240   0.520   1.807   5.965  0.5424  0.1107  0.3612
 1583ETH     CH14241   0.507   1.663   5.914  0.6161  0.2964 -0.1812
 1583ETH     HO14242   0.347   1.905   5.939  2.7122  1.0118 -0.8017
 1583ETH     HC14243   0.570   1.860   5.884 -0.4530 -1.2403 -1.1769
 1583ETH     HC14244   0.587   1.813   6.051 -0.4908 -0.3348  1.2074
 1583ETH     HC14245   0.604   1.631   5.875 -0.0784  1.5717 -3.0934
 1583ETH     HC14246   0.473   1.603   5.998  1.6422  1.2008  0.9020
 1583ETH     HC14247   0.443   1.662   5.826  1.9973 -2.2713 -1.2141
 1584ETH     OH14248   5.426   2.164   0.056 -0.3009  0.2321 -0.4755
 1584ETH     CH14249   5.504   2.145   0.172 -0.1501  0.7731 -0.4876
 1584ETH     CH14250   5.455   2.229   0.290 -0.8094  0.2012 -0.3479
 1584ETH     HO14251   5.386   2.078   0.055  1.5003 -0.6394 -0.3950
 1584ETH     HC14252   5.499   2.042   0.208  1.4864  1.6395  2.3527
 1584ETH     HC14253   5.609   2.155   0.146 -0.0775  0.9007 -0.1456
 1584ETH     HC14254   5.348   2.214   0.297 -0.3527 -3.1284  0.3764
 1584ETH     HC14255   5.491   2.191   0.386  1.7761 -0.2783 -1.4509
 1584ETH     HC14256   5.475   2.336   0.282  0.1589  0.0317 -0.2737
 1585ETH     OH14257   0.834   1.790   5.548 -0.1870  0.4374  0.2010
 1585ETH     CH14258   0.847   1.654   5.582  0.5229  0.4642  0.0500
 1585ETH     CH14259   0.993   1.635   5.622  0.1823 -0.9057  0.7005
 1585ETH     HO14260   0.748   1.805   5.512  0.0821 -0.3525 -0.8004
 1585ETH     HC14261   0.782   1.620   5.663  0.9380 -0.0777  0.1513
 1585ETH     HC14262   0.826   1.592   5.495  1.4551 -1.3927  1.1270
 1585ETH     HC14263   1.023   1.701   5.704  3.2039 -0.4886 -0.6527
 1585ETH     HC14264   1.017   1.531   5.641  1.1784 -0.6092  1.0907
 1585ETH     HC14265   1.049   1.660   5.531 -0.2502  0.3453  0.7582
 1586ETH     OH14266   0.072   6.214   4.678  0.2734  0.1553 -0.6103
 1586ETH     CH14267   0.172   6.227   4.580  0.3562  0.3223 -0.5038
 1586ETH     CH14268   0.114   6.308   4.464 -0.0955  0.2951 -0.2943
 1586ETH     HO14269   0.053   6.300   4.711 -0.1623 -1.2740  3.1936
 1586ETH     HC14270   0.257   6.277   4.627  0.9545 -1.5431  0.4327
 1586ETH     HC14271   0.193   6.126   4.545 -1.2520 -0.6880  1.3276
 1586ETH     HC14272   0.205   6.331   4.409 -0.0309  0.3009 -0.1845
 1586ETH     HC14273   0.054   6.244   4.398 -2.7633  0.5621  1.7464
 1586ETH     HC14274   0.059   6.394   4.502  0.0817  0.3320 -0.1259
 1587ETH     OH14275   1.414   6.118   4.980 -0.1835  0.3045 -0.0835
 1587ETH     CH14276   1.532   6.187   4.945 -0.0727 -0.0102 -0.3342
 1587ETH     CH14277   1.557   6.291   5.054 -0.3185  0.1149 -0.3975
 1587ETH     HO14278   1.433   6.053   5.046 -1.1782 -1.2375 -1.2758
 1587ETH     HC14279   1.613   6.114   4.944  1.1814  1.3558  0.2009
 1587ETH     HC14280   1.517   6.238   4.850  1.1992  2.8523  0.9630
 1587ETH     HC14281   1.486   6.373   5.038 -0.2838  0.0741 -0.7808
 1587ETH     HC14282   1.540   6.256   5.155 -0.9956  0.5580 -0.3542
 1587ETH     HC14283   1.662   6.316   5.038 -0.1812  0.4122  0.9253
 1588ETH     OH14284   0.002   0.589   6.022  0.2698  0.4178 -0.0804
 1588ETH     CH14285  -0.018   0.636   6.154  0.1823  0.0148  0.0505
 1588ETH     CH14286  -0.121   0.749   6.141  0.0614 -0.1428 -0.3636
 1588ETH     HO14287   0.047   0.507   6.022 -1.7006 -0.7759 -3.6595
 1588ETH     HC14288  -0.073   0.565   6.216  1.2780  0.5991  1.7147
 1588ETH     HC14289   0.068   0.659   6.217 -0.4674 -1.7394  1.6141
 1588ETH     HC14290  -0.087   0.842   6.096  0.6068 -0.0163  0.3007
 1588ETH     HC14291  -0.199   0.710   6.076  0.9664  0.4900 -1.8777
 1588ETH     HC14292  -0.163   0.775   6.238  3.2733 -0.1998  1.1063
 1589ETH     OH14293   1.892   3.634   0.678  0.1360 -0.0939 -0.0295
 1589ETH     CH14294   1.876   3.561   0.558 -0.0885 -0.0436 -0.0306
 1589ETH     CH14295   1.727   3.530   0.539 -0.0638 -0.4050  0.3663
 1589ETH     HO14296   1.976   3.676   0.677  0.8057 -1.3832  0.9577
 1589ETH     HC14297   1.937   3.614   0.485  1.7825 -1.0473  0.7745
 1589ETH     HC14298   1.943   3.475   0.563  0.5082  0.5073  1.6099
 1589ETH     HC14299   1.707   3.468   0.452 -1.7774  0.7731 -0.1072
 1589ETH     HC14300   1.685   3.476   0.624 -3.3885  1.4763  0.0094
 1589ETH     HC14301   1.673   3.623   0.524  0.1566 -0.2397  0.5996
 1590ETH     OH14302   2.913   2.309   5.519 -0.1569 -0.2865 -0.4232
 1590ETH     CH14303   2.793   2.370   5.478 -0.4074 -0.3485  0.2037
 1590ETH     CH14304   2.732   2.284   5.367 -0.2713 -0.3731  0.1468
 1590ETH     HO14305   2.893   2.249   5.589 -0.8476 -0.8470 -1.1074
 1590ETH     HC14306   2.725   2.376   5.562  2.8276  4.5408  2.7020
 1590ETH     HC14307   2.818   2.470   5.440 -0.1260 -0.1168  0.9985
 1590ETH     HC14308   2.798   2.267   5.283 -0.1723  1.4858 -0.1792
 1590ETH     HC14309   2.702   2.189   5.413 -0.8842  0.0945  0.7309
 1590ETH     HC14310   2.636   2.325   5.336  1.2749  1.1448 -2.8375
 1591ETH     OH14311   0.100   2.290   5.127 -0.3601  0.4198  0.4650
 1591ETH     CH14312   0.205   2.198   5.108 -0.3256  0.4119  0.6896
 1591ETH     CH14313   0.299   2.208   5.228  0.0856 -0.0380  0.4097
 1591ETH     HO14314   0.128   2.372   5.091  0.2959  0.4502  1.0382
 1591ETH     HC14315   0.158   2.100   5.106  1.0413 -0.3153  2.6261
 1591ETH     HC14316   0.247   2.224   5.011  0.3808  1.4712  1.2673
 1591ETH     HC14317   0.327   2.313   5.228 -0.8025  0.2537 -2.8164
 1591ETH     HC14318   0.235   2.197   5.316 -1.5699  2.1908 -0.4669
 1591ETH     HC14319   0.381   2.137   5.234  1.1282  1.1905  0.9853
 1592ETH     OH14320   2.613   3.860   1.174 -0.0640 -0.4976 -0.2063
 1592ETH     CH14321   2.662   3.814   1.299 -0.1277  0.5004  0.1894
 1592ETH     CH14322   2.558   3.725   1.367 -0.3731  0.7072  0.0832
 1592ETH     HO14323   2.672   3.928   1.146 -0.5037  1.1603  2.6571
 1592ETH     HC14324   2.756   3.758   1.296  0.2215  1.1023 -0.3128
 1592ETH     HC14325   2.694   3.902   1.355 -2.0920  0.4305  1.4540
 1592ETH     HC14326   2.452   3.747   1.349 -1.2145  0.2339  3.9847
 1592ETH     HC14327   2.561   3.622   1.331  1.3653  0.7867 -0.0220
 1592ETH     HC14328   2.578   3.716   1.473  1.1781  3.9757  0.1345
 1593ETH     OH14329   4.792   3.642   6.022 -0.4605 -0.1749 -0.1202
 1593ETH     CH14330   4.733   3.703   5.909  0.0154 -0.0172 -0.2825
 1593ETH     CH14331   4.647   3.826   5.937 -0.3264 -0.3554  0.1486
 1593ETH     HO14332   4.830   3.564   5.984 -0.4998 -1.5626  2.5653
 1593ETH     HC14333   4.808   3.736   5.837  1.5535 -1.4950  0.5903
 1593ETH     HC14334   4.673   3.628   5.858 -0.5431  1.5125 -1.9584
 1593ETH     HC14335   4.711   3.908   5.969  0.5602 -2.0496  2.9193
 1593ETH     HC14336   4.597   3.863   5.848  0.4958 -1.2296 -0.6789
 1593ETH     HC14337   4.563   3.804   6.003 -2.9133  0.9859 -2.5965
 1594ETH     OH14338   1.524   4.375   5.279  0.8027 -0.8853  0.3934
 1594ETH     CH14339   1.439   4.334   5.384  0.2437  0.7539  0.5946
 1594ETH     CH14340   1.497   4.382   5.518  0.2364 -0.3577  1.0005
 1594ETH     HO14341   1.479   4.380   5.196  2.1240  0.8548 -0.2360
 1594ETH     HC14342   1.339   4.371   5.367  1.0144  2.5434 -0.1360
 1594ETH     HC14343   1.424   4.226   5.382 -0.0694  0.8064  0.2228
 1594ETH     HC14344   1.494   4.490   5.528 -0.5614 -0.1146 -1.4412
 1594ETH     HC14345   1.446   4.335   5.602  0.6362 -0.9043  0.9415
 1594ETH     HC14346   1.603   4.357   5.515  1.3286  3.9671  0.4291
 1595ETH     OH14347   1.041   5.056   2.071  0.8484 -0.3409  0.0039
 1595ETH     CH14348   0.972   4.976   1.977  0.2268 -0.0837  0.2353
 1595ETH     CH14349   1.078   4.889   1.909  0.2619  0.4988 -0.4626
 1595ETH     HO14350   0.977   5.118   2.104 -1.9650 -1.9741 -2.1036
 1595ETH     HC14351   0.900   4.910   2.025  1.3991 -0.3987  1.6028
 1595ETH     HC14352   0.921   5.037   1.903  2.9716  1.1631 -0.6894
 1595ETH     HC14353   1.135   4.847   1.992  0.4809  2.0229  0.1715
 1595ETH     HC14354   1.035   4.815   1.842 -0.7630  1.0076 -0.3807
 1595ETH     HC14355   1.158   4.941   1.856  1.2770  0.1601  0.7111
 1596ETH     OH14356   3.768   2.003   2.539  0.0942  0.8996  0.4134
 1596ETH     CH14357   3.676   1.967   2.640 -0.1352 -0.4171 -0.2519
 1596ETH     CH14358   3.551   1.895   2.592  0.0170 -0.8419 -0.0123
 1596ETH     HO14359   3.849   2.012   2.588 -0.3079  0.4234  1.1833
 1596ETH     HC14360   3.743   1.912   2.707  1.1452 -0.3562 -1.4484
 1596ETH     HC14361   3.656   2.051   2.708  1.6592  0.4796 -0.7793
 1596ETH     HC14362   3.502   1.825   2.660 -1.5497  0.4047  0.1667
 1596ETH     HC14363   3.476   1.970   2.566  0.6915  0.7784  2.4930
 1596ETH     HC14364   3.575   1.835   2.505 -1.2545 -0.7940 -0.4092
 1597ETH     OH14365   0.682   5.166   0.104 -0.0802  0.1954 -0.1766
 1597ETH     CH14366   0.752   5.051   0.147 -0.0886  0.2078 -0.1313
 1597ETH     CH14367   0.700   4.939   0.058  0.4647 -0.0765 -0.0999
 1597ETH     HO14368   0.743   5.231   0.075  0.8561  0.1115  1.5389
 1597ETH     HC14369   0.860   5.063   0.137 -0.1522  1.4117  0.4056
 1597ETH     HC14370   0.729   5.026   0.251  0.4824  2.0876  0.4859
 1597ETH     HC14371   0.750   4.845   0.083  2.4150  0.8481 -0.4221
 1597ETH     HC14372   0.591   4.929   0.056  0.2597  1.9189 -0.7852
 1597ETH     HC14373   0.718   4.966  -0.046 -0.4974 -0.2402 -0.3196
 1598ETH     OH14374   3.570   4.676   2.054  0.2469 -0.0924  0.0909
 1598ETH     CH14375   3.623   4.692   2.183  0.5580 -0.4455  0.0057
 1598ETH     CH14376   3.758   4.764   2.175  0.3814 -0.0659  0.4301
 1598ETH     HO14377   3.531   4.757   2.025  0.5168  0.7355  2.0077
 1598ETH     HC14378   3.551   4.747   2.244  1.5874 -0.4319  1.2382
 1598ETH     HC14379   3.641   4.597   2.235 -0.6485 -0.8993 -0.4070
 1598ETH     HC14380   3.826   4.705   2.114 -0.6873  0.8972 -1.7497
 1598ETH     HC14381   3.758   4.861   2.127  3.4777 -0.2477 -0.0368
 1598ETH     HC14382   3.789   4.788   2.277 -0.4872 -2.9539  1.4211
 1599ETH     OH14383   3.187   5.562   5.647 -0.6874 -0.1460 -0.4665
 1599ETH     CH14384   3.207   5.461   5.743 -0.5723  0.0743 -0.2541
 1599ETH     CH14385   3.089   5.363   5.748 -0.1925 -0.3656  0.0515
 1599ETH     HO14386   3.253   5.630   5.655  1.3208 -2.0129 -0.9468
 1599ETH     HC14387   3.298   5.410   5.710  0.1819  0.4720  1.1875
 1599ETH     HC14388   3.219   5.495   5.845 -2.9161 -1.9337  0.7645
 1599ETH     HC14389   2.997   5.419   5.762 -1.3503 -2.0879 -0.4287
 1599ETH     HC14390   3.076   5.319   5.649  2.0370 -0.8526 -0.0632
 1599ETH     HC14391   3.100   5.282   5.820  0.4139  0.8324  1.3314
 1600ETH     OH14392   1.171   2.650   4.207 -0.1530 -0.3908  0.0009
 1600ETH     CH14393   1.175   2.725   4.326 -0.4659  0.0394 -0.2584
 1600ETH     CH14394   1.234   2.863   4.299 -0.0870 -0.0828 -0.0696
 1600ETH     HO14395   1.236   2.581   4.215 -0.1803 -0.8420 -2.8452
 1600ETH     HC14396   1.070   2.732   4.352 -0.2436 -1.1562  1.0048
 1600ETH     HC14397   1.237   2.675   4.400 -1.1425 -0.0546  0.2446
 1600ETH     HC14398   1.229   2.927   4.388 -2.3435  0.8453 -0.8048
 1600ETH     HC14399   1.335   2.839   4.269 -1.4069  0.1865 -5.1639
 1600ETH     HC14400   1.183   2.915   4.217  0.5239  1.2427  0.3742
 1601ETH     OH14401   4.038   4.447   4.746 -0.2837  0.2647 -0.1532
 1601ETH     CH14402   4.109   4.471   4.627  0.2323  0.1526  0.1297
 1601ETH     CH14403   4.247   4.407   4.638  0.2834  0.3751  0.8043
 1601ETH     HO14404   3.949   4.478   4.739 -0.2919  0.1629 -0.4888
 1601ETH     HC14405   4.057   4.431   4.540  1.3284 -0.1659 -0.3891
 1601ETH     HC14406   4.120   4.578   4.608  2.7268 -0.1628 -0.3736
 1601ETH     HC14407   4.302   4.449   4.554 -0.5003  0.7108  0.4497
 1601ETH     HC14408   4.298   4.448   4.725  0.8728 -1.7392  1.4828
 1601ETH     HC14409   4.251   4.298   4.637 -4.2259  0.0939  0.9567
 1602ETH     OH14410   3.417   3.053   4.202 -0.1271  0.1382  0.2516
 1602ETH     CH14411   3.389   3.176   4.266  0.1994  0.1988  0.2789
 1602ETH     CH14412   3.242   3.217   4.263  0.1414  0.0107  0.4956
 1602ETH     HO14413   3.510   3.053   4.185 -0.0167  0.5470  0.8391
 1602ETH     HC14414   3.430   3.161   4.367 -1.5047  2.1969  1.2965
 1602ETH     HC14415   3.450   3.251   4.217  1.1617 -1.4153 -1.0439
 1602ETH     HC14416   3.232   3.305   4.327  1.6688  0.8754 -0.4292
 1602ETH     HC14417   3.216   3.249   4.162  0.2300  2.4330  1.2035
 1602ETH     HC14418   3.175   3.139   4.297  0.2850 -0.3124  0.0361
 1603ETH     OH14419   4.225   1.901   1.163 -0.0972 -0.0993 -0.1213
 1603ETH     CH14420   4.278   1.779   1.211  0.4062  0.0861 -0.1950
 1603ETH     CH14421   4.373   1.816   1.325  0.3393 -0.2095 -0.0426
 1603ETH     HO14422   4.149   1.924   1.213  0.3405  0.2193  0.4109
 1603ETH     HC14423   4.191   1.718   1.238 -1.3312  1.5141 -2.3436
 1603ETH     HC14424   4.334   1.719   1.139 -0.8438 -0.2491 -0.9052
 1603ETH     HC14425   4.416   1.726   1.369  1.6146  0.5701  0.3357
 1603ETH     HC14426   4.459   1.874   1.293 -0.7130  2.4796  1.7951
 1603ETH     HC14427   4.327   1.878   1.402  1.0227  0.0837  0.1342
 1604ETH     OH14428   1.410   4.456   2.279  0.1896 -0.0902  0.0739
 1604ETH     CH14429   1.350   4.503   2.398  0.0865 -0.3243  0.1167
 1604ETH     CH14430   1.257   4.397   2.456  0.2649 -0.2289  0.5835
 1604ETH     HO14431   1.412   4.361   2.283  0.8297 -0.1757 -1.9845
 1604ETH     HC14432   1.426   4.520   2.474 -0.4308  0.8019  0.4065
 1604ETH     HC14433   1.308   4.602   2.380  0.6979 -0.3306 -1.4817
 1604ETH     HC14434   1.226   4.427   2.556  0.1025  1.2672  0.1015
 1604ETH     HC14435   1.171   4.394   2.389  1.8501  1.2398 -1.5802
 1604ETH     HC14436   1.311   4.303   2.466  0.2638 -0.4807 -1.5202
 1605ETH     OH14437   4.379   6.172   1.927 -0.4832  0.3430 -0.2693
 1605ETH     CH14438   4.462   6.149   2.039 -0.2704  0.1167 -0.4731
 1605ETH     CH14439   4.377   6.122   2.163  0.0022  0.2784 -0.2489
 1605ETH     HO14440   4.432   6.225   1.870  0.9444 -1.9633 -1.1875
 1605ETH     HC14441   4.527   6.065   2.012 -0.5186 -0.8692  1.9050
 1605ETH     HC14442   4.539   6.226   2.045 -0.6195  0.3024  1.8189
 1605ETH     HC14443   4.302   6.198   2.186 -0.4553 -0.3977  0.5341
 1605ETH     HC14444   4.316   6.033   2.147 -1.1843  1.3382 -1.9357
 1605ETH     HC14445   4.431   6.100   2.254 -3.6043  0.9087  2.1481
 1606ETH     OH14446   0.092   2.636   2.966  0.2745 -0.0322 -0.4311
 1606ETH     CH14447   0.022   2.542   3.046  0.0982  0.5715  0.1286
 1606ETH     CH14448   0.117   2.505   3.160  0.2911 -0.0166 -0.2220
 1606ETH     HO14449   0.078   2.720   3.008 -1.1069 -0.3388 -0.2303
 1606ETH     HC14450  -0.072   2.581   3.085  0.1130  0.5643  0.1718
 1606ETH     HC14451  -0.003   2.448   2.998 -1.2658 -0.5726  3.0210
 1606ETH     HC14452   0.067   2.432   3.225  0.1646 -0.5903 -0.9631
 1606ETH     HC14453   0.205   2.451   3.125  1.0908  0.2115  1.3754
 1606ETH     HC14454   0.137   2.584   3.232  0.1944  0.1908 -0.4225
 1607ETH     OH14455   3.839   6.126   0.949  0.3417  0.3988  0.1034
 1607ETH     CH14456   3.830   6.054   1.070  0.0310 -0.1463 -0.2446
 1607ETH     CH14457   3.972   6.046   1.126 -0.0668  0.1291  0.0433
 1607ETH     HO14458   3.767   6.188   0.942  1.4516  1.8578  1.2978
 1607ETH     HC14459   3.750   6.090   1.134 -0.9276 -2.2430 -0.2252
 1607ETH     HC14460   3.805   5.951   1.044  1.7175 -0.6038 -0.0693
 1607ETH     HC14461   3.979   6.041   1.235  0.4746  0.6048  0.0272
 1607ETH     HC14462   4.030   5.965   1.082 -2.3265 -0.9612 -1.0479
 1607ETH     HC14463   4.018   6.140   1.099  1.5576 -0.8745 -0.7414
 1608ETH     OH14464   2.053   5.226   0.611  0.0129  0.1226  0.1560
 1608ETH     CH14465   2.184   5.237   0.662  0.2915  0.6893 -0.6708
 1608ETH     CH14466   2.203   5.385   0.693  0.2177  0.5356  0.1314
 1608ETH     HO14467   2.053   5.132   0.614  0.4133  0.0645 -1.3330
 1608ETH     HC14468   2.199   5.169   0.746 -1.6651  1.1302  0.0412
 1608ETH     HC14469   2.245   5.207   0.576 -0.9021 -1.1366 -0.9058
 1608ETH     HC14470   2.168   5.445   0.608 -0.9815 -0.9049 -0.4086
 1608ETH     HC14471   2.154   5.410   0.787  1.9761  1.4469  0.8313
 1608ETH     HC14472   2.309   5.410   0.702  0.4181  0.5288 -1.8318
 1609ETH     OH14473   5.698   5.276   4.340  0.0466  0.0037 -0.0794
 1609ETH     CH14474   5.590   5.198   4.292 -0.0798  0.1151  0.0243
 1609ETH     CH14475   5.451   5.262   4.295 -0.0378  0.2226 -0.2488
 1609ETH     HO14476   5.762   5.209   4.321 -0.2543 -0.4240  0.3780
 1609ETH     HC14477   5.612   5.168   4.189 -0.2022 -1.4856  0.4578
 1609ETH     HC14478   5.597   5.102   4.343  2.0372  0.6359  0.7760
 1609ETH     HC14479   5.378   5.207   4.237  0.3903  0.6855 -1.2456
 1609ETH     HC14480   5.422   5.273   4.400 -1.5400 -0.2451 -0.6088
 1609ETH     HC14481   5.451   5.359   4.245  1.8499 -0.1944 -1.0866
 1610ETH     OH14482   5.861   5.049   4.301 -0.2781 -0.2445  0.4601
 1610ETH     CH14483   5.971   5.006   4.223 -0.6333  0.0456 -0.2066
 1610ETH     CH14484   6.021   5.123   4.139 -0.0180 -0.3999 -0.4591
 1610ETH     HO14485   5.832   4.974   4.351 -1.0699 -0.1162  0.2126
 1610ETH     HC14486   6.052   4.963   4.281  1.0946  3.9859  0.4848
 1610ETH     HC14487   5.934   4.929   4.156  0.8457  1.0576 -2.2100
 1610ETH     HC14488   6.087   5.082   4.062 -0.3164 -0.3800 -0.7276
 1610ETH     HC14489   5.942   5.179   4.090 -1.9350  0.3119  3.2882
 1610ETH     HC14490   6.075   5.196   4.200 -1.0786  1.8122 -2.0798
 1611ETH     OH14491   2.758   4.270   3.866 -0.1159  0.1019 -0.4786
 1611ETH     CH14492   2.678   4.336   3.771 -0.6181 -0.0502 -0.1639
 1611ETH     CH14493   2.582   4.241   3.699  0.1652 -0.3063 -0.8791
 1611ETH     HO14494   2.697   4.223   3.920 -0.9252  0.5726 -0.9704
 1611ETH     HC14495   2.637   4.430   3.809  0.5534  1.5117 -2.5848
 1611ETH     HC14496   2.736   4.379   3.689 -1.8574  0.2536 -0.8859
 1611ETH     HC14497   2.529   4.298   3.622  0.3191  1.5359  0.3341
 1611ETH     HC14498   2.642   4.166   3.647  0.0049  0.0308 -1.5611
 1611ETH     HC14499   2.511   4.193   3.766  1.4812  0.8325  1.4168
 1612ETH     OH14500   0.527   2.232   4.568 -0.1829 -0.0468  0.0303
 1612ETH     CH14501   0.560   2.216   4.704  0.0407 -0.4244 -0.0677
 1612ETH     CH14502   0.711   2.236   4.720 -0.0152  0.0482 -0.1395
 1612ETH     HO14503   0.571   2.173   4.509  1.7176  2.7484 -1.4443
 1612ETH     HC14504   0.506   2.293   4.759 -1.1253 -1.1089 -0.2353
 1612ETH     HC14505   0.524   2.118   4.736  0.7073 -0.9712 -0.9801
 1612ETH     HC14506   0.739   2.341   4.735 -1.9852  0.4897  0.6789
 1612ETH     HC14507   0.734   2.187   4.814  1.3768  0.5265 -0.2174
 1612ETH     HC14508   0.761   2.178   4.643 -2.2829 -2.7678  0.4220
 1613ETH     OH14509   5.003   3.041   5.678 -0.2144  0.1376  0.0746
 1613ETH     CH14510   5.134   3.093   5.663 -0.0091 -0.4731 -0.2821
 1613ETH     CH14511   5.188   3.169   5.784 -0.0439  0.1798 -0.6721
 1613ETH     HO14512   4.939   3.108   5.691  2.2208  2.7256 -0.7258
 1613ETH     HC14513   5.194   3.013   5.620 -2.1448 -2.1181 -0.3112
 1613ETH     HC14514   5.115   3.170   5.589  0.4464  0.0719  0.1685
 1613ETH     HC14515   5.289   3.205   5.767  0.8824 -1.7481  0.5143
 1613ETH     HC14516   5.117   3.249   5.804  2.1032  2.3585 -1.6053
 1613ETH     HC14517   5.197   3.096   5.865 -1.7368  0.1017 -0.5447
 1614ETH     OH14518   3.595   4.113   2.917  0.3672 -0.2816  0.0352
 1614ETH     CH14519   3.552   4.043   3.032  0.0511 -0.1254  0.0121
 1614ETH     CH14520   3.409   4.089   3.062  0.0853  0.5864 -0.8789
 1614ETH     HO14521   3.661   4.065   2.869 -1.0796  0.6408 -3.0112
 1614ETH     HC14522   3.571   3.945   2.990  1.0864 -0.1665  0.5495
 1614ETH     HC14523   3.629   4.054   3.108 -1.0533 -0.1540  1.1505
 1614ETH     HC14524   3.417   4.192   3.095  0.0385 -0.2427  1.8434
 1614ETH     HC14525   3.356   4.096   2.967  1.4531 -1.5964 -1.8713
 1614ETH     HC14526   3.354   4.024   3.130  0.9517 -0.0514 -0.7730
 1615ETH     OH14527   3.411   4.000   5.206 -0.2802 -0.1323 -0.5452
 1615ETH     CH14528   3.423   3.897   5.301  0.2699  0.2816 -0.1609
 1615ETH     CH14529   3.295   3.875   5.381  0.1196 -0.1872 -0.5259
 1615ETH     HO14530   3.422   4.085   5.247 -0.7917  1.2003 -3.0549
 1615ETH     HC14531   3.457   3.809   5.245  0.0957  0.3446 -0.3640
 1615ETH     HC14532   3.510   3.914   5.365 -0.3275  2.3195  0.1304
 1615ETH     HC14533   3.205   3.875   5.318 -2.4086 -0.7578  2.9454
 1615ETH     HC14534   3.289   3.788   5.445  0.4013  0.5153  0.4642
 1615ETH     HC14535   3.298   3.957   5.452 -3.9886 -0.5996  0.2328
 1616ETH     OH14536   2.970   1.398   3.583  0.1030 -0.2586  0.4373
 1616ETH     CH14537   2.967   1.372   3.721  0.2324  0.1764  0.5234
 1616ETH     CH14538   3.061   1.255   3.753 -0.0835 -0.1783  0.1680
 1616ETH     HO14539   2.890   1.362   3.546 -0.1200  1.7790 -1.1248
 1616ETH     HC14540   3.003   1.462   3.770 -2.3092  1.1301  0.7196
 1616ETH     HC14541   2.870   1.341   3.760  0.2243 -1.3161 -0.6190
 1616ETH     HC14542   3.033   1.177   3.683  1.3430  1.3832 -2.2648
 1616ETH     HC14543   3.167   1.270   3.730  0.1659 -2.1298 -0.0173
 1616ETH     HC14544   3.059   1.225   3.858 -1.5056  1.5491  0.6538
 1617ETH     OH14545   3.590   3.294   3.024 -0.2206  0.0744 -0.7422
 1617ETH     CH14546   3.692   3.366   2.959  0.3164  0.1937  0.2330
 1617ETH     CH14547   3.713   3.480   3.059 -0.1467  0.2177  0.3047
 1617ETH     HO14548   3.508   3.323   2.986  0.5803  1.5953 -1.3399
 1617ETH     HC14549   3.788   3.316   2.953  0.2783  0.1339  0.1230
 1617ETH     HC14550   3.670   3.409   2.861  0.2749 -0.9409 -0.2615
 1617ETH     HC14551   3.755   3.452   3.156  0.1823  0.8443  0.3487
 1617ETH     HC14552   3.773   3.557   3.011 -2.6648  1.7184 -0.5513
 1617ETH     HC14553   3.624   3.540   3.078 -0.7455 -1.0691  1.6170
 1618ETH     OH14554   5.650   4.579   2.764  0.6846 -0.6836 -1.0274
 1618ETH     CH14555   5.557   4.637   2.675 -0.4702  0.2229  0.7378
 1618ETH     CH14556   5.569   4.789   2.661  0.3897  0.0433 -0.5385
 1618ETH     HO14557   5.622   4.491   2.785  0.0139 -0.3810 -0.6191
 1618ETH     HC14558   5.554   4.581   2.581 -0.0875 -0.0571  0.8902
 1618ETH     HC14559   5.462   4.619   2.725 -0.4133 -0.8717  0.4660
 1618ETH     HC14560   5.488   4.824   2.596  2.5424  0.6197 -2.9899
 1618ETH     HC14561   5.555   4.827   2.762 -0.7815  2.2569 -1.5081
 1618ETH     HC14562   5.672   4.817   2.637  0.9259 -1.7976 -0.4698
 1619ETH     OH14563   3.259   3.096   0.418  0.9810  0.0961  0.3510
 1619ETH     CH14564   3.218   3.123   0.551 -0.6969 -0.0479 -0.1232
 1619ETH     CH14565   3.340   3.191   0.612 -0.4572 -0.3902 -0.2158
 1619ETH     HO14566   3.176   3.063   0.385  0.9345 -1.0269  1.5269
 1619ETH     HC14567   3.134   3.192   0.544 -1.2268 -0.5876  0.8146
 1619ETH     HC14568   3.177   3.039   0.607 -0.9758  0.5799  0.6129
 1619ETH     HC14569   3.371   3.280   0.557  0.8963  0.3116  1.6262
 1619ETH     HC14570   3.313   3.229   0.711 -1.0103  2.2484 -1.3353
 1619ETH     HC14571   3.431   3.132   0.618  0.0471  0.3218 -0.9045
 1620ETH     OH14572   5.664   4.259   2.293  0.1312  0.0112 -0.1200
 1620ETH     CH14573   5.732   4.317   2.402  0.4612 -0.2320 -0.1950
 1620ETH     CH14574   5.795   4.448   2.355 -0.4343  0.1965 -0.2143
 1620ETH     HO14575   5.589   4.214   2.331  1.0588 -0.2326  1.5121
 1620ETH     HC14576   5.661   4.337   2.483  0.7124  0.3227 -0.1092
 1620ETH     HC14577   5.804   4.243   2.437 -0.3416 -2.0447 -2.2655
 1620ETH     HC14578   5.729   4.509   2.293 -1.3663  0.3472  0.9044
 1620ETH     HC14579   5.825   4.497   2.448 -1.4195 -0.3538  0.4034
 1620ETH     HC14580   5.881   4.436   2.289  1.1659  1.0254  1.6868
 1621ETH     OH14581   5.776   6.143   2.161  0.1775 -0.2245  0.4195
 1621ETH     CH14582   5.792   6.145   2.020 -0.2598  0.1782  0.3734
 1621ETH     CH14583   5.792   6.004   1.962  0.2529  0.3486 -0.0392
 1621ETH     HO14584   5.855   6.111   2.201 -0.5520 -2.5776  0.0500
 1621ETH     HC14585   5.718   6.211   1.976 -1.7289 -2.4864 -1.2707
 1621ETH     HC14586   5.889   6.195   2.008  0.7299 -1.3337  1.7538
 1621ETH     HC14587   5.791   6.018   1.854  0.4389  0.6704  0.0012
 1621ETH     HC14588   5.874   5.942   1.998 -0.4064  1.0977  2.8633
 1621ETH     HC14589   5.705   5.942   1.984  0.1059  0.2726 -0.7951
 1622ETH     OH14590   4.212   4.647   5.960 -0.0846  0.5103 -0.1532
 1622ETH     CH14591   4.353   4.647   5.955 -0.0519 -0.4937  0.5718
 1622ETH     CH14592   4.417   4.607   6.087 -0.2816 -0.3820  0.7164
 1622ETH     HO14593   4.180   4.665   5.873 -1.8424 -0.5744  0.2374
 1622ETH     HC14594   4.382   4.575   5.878 -0.9204  1.3577 -1.5543
 1622ETH     HC14595   4.390   4.745   5.928 -2.8522  0.5431  0.3127
 1622ETH     HC14596   4.525   4.621   6.078 -0.6358  2.4509  0.3004
 1622ETH     HC14597   4.372   4.674   6.161  2.6765  0.6719  1.6596
 1622ETH     HC14598   4.394   4.507   6.122  0.3816 -1.2030 -1.1608
 1623ETH     OH14599   3.330   1.914   1.642  0.0506 -0.0945  0.4595
 1623ETH     CH14600   3.371   1.780   1.656  0.1807 -0.1122 -0.0799
 1623ETH     CH14601   3.497   1.744   1.577  0.2881  0.2258 -0.0642
 1623ETH     HO14602   3.252   1.931   1.693  0.4084 -1.1616  1.3773
 1623ETH     HC14603   3.370   1.758   1.762  2.1967  1.6624  0.3434
 1623ETH     HC14604   3.300   1.717   1.602  0.0358  0.2817 -0.3535
 1623ETH     HC14605   3.489   1.751   1.468 -0.1686  1.0265  0.0151
 1623ETH     HC14606   3.577   1.810   1.608  0.9055 -0.4466 -0.2140
 1623ETH     HC14607   3.518   1.639   1.598 -0.9041  0.3663  1.9369
 1624ETH     OH14608   2.828   1.155   1.145  0.0353 -0.0873  0.1263
 1624ETH     CH14609   2.930   1.141   1.241 -0.1499 -0.3635  0.2851
 1624ETH     CH14610   2.880   1.081   1.372 -0.3560  0.0826  0.4099
 1624ETH     HO14611   2.859   1.206   1.072 -0.2025  2.7333  1.9152
 1624ETH     HC14612   3.009   1.078   1.199 -0.8451 -1.7284  0.9942
 1624ETH     HC14613   2.982   1.234   1.263  1.3568 -1.1867  0.2824
 1624ETH     HC14614   2.891   0.973   1.377 -1.4273 -0.0547  0.0930
 1624ETH     HC14615   2.921   1.125   1.463 -0.0027 -0.1179  0.3489
 1624ETH     HC14616   2.777   1.112   1.389  0.2677  1.7734  1.2073
 1625ETH     OH14617   0.363   5.291   4.452  0.0787  0.2685 -0.4805
 1625ETH     CH14618   0.324   5.247   4.581  0.7071  0.1615 -0.3252
 1625ETH     CH14619   0.315   5.095   4.589  0.0755  0.2391  0.4691
 1625ETH     HO14620   0.309   5.243   4.392 -0.3774 -0.2838  0.3529
 1625ETH     HC14621   0.229   5.299   4.590  0.7771  0.2504 -0.0998
 1625ETH     HC14622   0.390   5.294   4.654  2.4172 -0.2225 -1.5847
 1625ETH     HC14623   0.410   5.043   4.576  0.5395  0.2604  3.2752
 1625ETH     HC14624   0.282   5.070   4.690  0.1570 -0.6122  0.2916
 1625ETH     HC14625   0.239   5.059   4.520 -0.4580 -1.4549  1.9061
 1626ETH     OH14626   5.882   3.755   5.984  0.0247 -0.2284  0.0360
 1626ETH     CH14627   5.748   3.792   6.012  0.1751  0.3696 -0.0377
 1626ETH     CH14628   5.685   3.677   6.089 -0.2507  0.3046 -0.4845
 1626ETH     HO14629   5.932   3.825   6.023 -0.8473  0.1969  0.4081
 1626ETH     HC14630   5.750   3.886   6.067 -0.0839  0.1567  0.3312
 1626ETH     HC14631   5.707   3.808   5.913 -0.3934 -2.0350 -0.2142
 1626ETH     HC14632   5.750   3.642   6.169  0.9714 -0.3711 -1.7486
 1626ETH     HC14633   5.584   3.705   6.118  0.4527  0.8487  1.5124
 1626ETH     HC14634   5.681   3.585   6.030  0.4614 -0.3861  0.5130
 1627ETH     OH14635   0.553   2.629   0.920 -0.1903  0.0956 -0.0687
 1627ETH     CH14636   0.627   2.649   1.038  0.3108  0.3398 -0.4211
 1627ETH     CH14637   0.767   2.598   1.005  0.1671 -0.2780 -0.0826
 1627ETH     HO14638   0.609   2.611   0.846 -1.3262 -1.2632 -0.6264
 1627ETH     HC14639   0.636   2.757   1.052 -0.2452  0.3904 -0.4374
 1627ETH     HC14640   0.594   2.599   1.129  1.4840  1.9796  0.9580
 1627ETH     HC14641   0.827   2.617   1.093  2.7964 -3.1987 -1.1437
 1627ETH     HC14642   0.765   2.490   0.986  0.7810 -0.1562 -0.8978
 1627ETH     HC14643   0.809   2.656   0.923 -3.9463  3.3888  0.2226
 1628ETH     OH14644   2.625   5.297   5.116 -0.6492  0.1968  0.3135
 1628ETH     CH14645   2.610   5.332   4.980 -0.1290  0.3216  0.2849
 1628ETH     CH14646   2.689   5.224   4.907 -0.2731  0.2769  0.1933
 1628ETH     HO14647   2.543   5.314   5.160 -0.6748  0.8664  0.0243
 1628ETH     HC14648   2.504   5.317   4.959  0.1194 -2.1635  0.6245
 1628ETH     HC14649   2.646   5.430   4.950  0.7424  0.2791  1.1687
 1628ETH     HC14650   2.700   5.126   4.953 -1.5451 -1.2931 -2.7212
 1628ETH     HC14651   2.659   5.213   4.803 -0.4872  1.4388  0.1279
 1628ETH     HC14652   2.792   5.259   4.895 -0.6343  2.1172  2.1926
 1629ETH     OH14653   0.662   6.283   1.632 -0.2320 -0.4157  0.3629
 1629ETH     CH14654   0.580   6.396   1.650  0.5662  0.2170  0.0635
 1629ETH     CH14655   0.606   6.486   1.530 -0.6851  0.1998 -0.2315
 1629ETH     HO14656   0.607   6.217   1.671 -1.7304  0.6920  0.1926
 1629ETH     HC14657   0.475   6.363   1.649  0.3984  0.7435 -3.1526
 1629ETH     HC14658   0.592   6.458   1.739 -1.1369 -0.4321  0.7828
 1629ETH     HC14659   0.546   6.577   1.534 -1.6129 -0.4400  0.7546
 1629ETH     HC14660   0.711   6.515   1.522 -0.7701  0.5993  0.0654
 1629ETH     HC14661   0.580   6.437   1.436  1.8390 -2.1547  0.2538
 1630ETH     OH14662   5.419   3.773   5.416 -0.5596 -0.0401 -0.4959
 1630ETH     CH14663   5.484   3.699   5.517 -0.6657 -0.1388 -0.4988
 1630ETH     CH14664   5.500   3.797   5.634  0.3556 -0.4132 -0.4018
 1630ETH     HO14665   5.472   3.847   5.391 -0.5363  0.5267  1.1365
 1630ETH     HC14666   5.422   3.614   5.543  0.3216 -0.3045  1.4209
 1630ETH     HC14667   5.575   3.655   5.476 -0.2781 -1.7275  1.9353
 1630ETH     HC14668   5.409   3.843   5.673  1.1892 -0.0783  1.1840
 1630ETH     HC14669   5.553   3.748   5.715 -1.0588 -0.4155  0.5370
 1630ETH     HC14670   5.557   3.885   5.604 -1.0571  1.2438  1.6301
 1631ETH     OH14671   0.694   1.881   0.421 -0.2010 -0.1895  0.1516
 1631ETH     CH14672   0.566   1.837   0.463 -0.2150 -0.1713  0.1286
 1631ETH     CH14673   0.560   1.809   0.613 -0.1451 -0.3358  0.1017
 1631ETH     HO14674   0.688   1.929   0.340  1.6089  0.8705  0.6202
 1631ETH     HC14675   0.507   1.922   0.429 -0.8013 -1.1965 -1.5094
 1631ETH     HC14676   0.542   1.747   0.407 -2.4941  0.3072  0.3225
 1631ETH     HC14677   0.474   1.756   0.652  1.1368 -1.2004  1.8353
 1631ETH     HC14678   0.647   1.750   0.642  1.6295  1.5391 -1.1687
 1631ETH     HC14679   0.565   1.901   0.671  1.4283  0.3345 -1.0523
 1632ETH     OH14680   1.471   1.978   5.159  0.2847  0.0416  0.0124
 1632ETH     CH14681   1.471   1.954   5.020 -0.0210  0.5406 -0.0746
 1632ETH     CH14682   1.424   2.083   4.953  0.1470  0.9542  0.5948
 1632ETH     HO14683   1.508   1.902   5.201  2.2732  2.1349  2.2063
 1632ETH     HC14684   1.569   1.933   4.977  0.2747 -0.7245  1.1748
 1632ETH     HC14685   1.400   1.876   4.994  0.5311 -0.2636  0.7791
 1632ETH     HC14686   1.501   2.160   4.952  0.9596  0.1758  2.0520
 1632ETH     HC14687   1.399   2.062   4.849  0.2496  0.0098  0.7516
 1632ETH     HC14688   1.330   2.124   4.991  1.1458  2.6536  1.2846
 1633ETH     OH14689   0.505   2.995   6.172  0.1741  0.3880 -0.0327
 1633ETH     CH14690   0.459   3.071   6.281 -0.0236  0.1520  0.0500
 1633ETH     CH14691   0.582   3.097   6.368 -0.1395 -0.3537  0.3654
 1633ETH     HO14692   0.438   3.001   6.106  2.0360  0.6810 -1.9477
 1633ETH     HC14693   0.413   3.160   6.237 -1.3936  0.6033  2.2847
 1633ETH     HC14694   0.388   3.019   6.345 -0.6354  0.1696 -0.6065
 1633ETH     HC14695   0.666   3.134   6.310 -0.9690 -1.1978 -1.4060
 1633ETH     HC14696   0.565   3.180   6.437 -0.2417 -0.5567  0.5862
 1633ETH     HC14697   0.608   2.998   6.407  2.0364  0.8209  1.9624
 1634ETH     OH14698   2.535   1.701   2.117  0.1253  0.1521  0.0616
 1634ETH     CH14699   2.606   1.616   2.030 -0.0044  0.2696 -0.1609
 1634ETH     CH14700   2.512   1.560   1.923 -0.7844 -0.2119  0.7690
 1634ETH     HO14701   2.571   1.692   2.204 -1.9693  1.1338  1.0788
 1634ETH     HC14702   2.697   1.657   1.986  0.2032  0.9344  0.8775
 1634ETH     HC14703   2.640   1.532   2.091  0.2499 -2.5081 -3.9298
 1634ETH     HC14704   2.480   1.646   1.864  0.9046  1.0859  1.6948
 1634ETH     HC14705   2.572   1.495   1.860  0.7226  3.0078 -1.2621
 1634ETH     HC14706   2.434   1.504   1.976  0.6007 -0.6901  2.3675
 1635ETH     OH14707   4.539   0.582   5.424 -0.7294 -0.0579  0.3635
 1635ETH     CH14708   4.411   0.639   5.409 -0.4064  0.6753  0.3636
 1635ETH     CH14709   4.315   0.520   5.401  0.2175  0.2149 -0.2663
 1635ETH     HO14710   4.593   0.654   5.395  0.6479 -1.0892  0.3211
 1635ETH     HC14711   4.381   0.700   5.494 -1.9186 -1.2631  1.2758
 1635ETH     HC14712   4.393   0.692   5.316 -0.4871  0.4681  0.2612
 1635ETH     HC14713   4.304   0.461   5.491  0.1782  0.7860  0.1013
 1635ETH     HC14714   4.217   0.559   5.376 -1.1244 -0.9609  2.9681
 1635ETH     HC14715   4.350   0.447   5.327  0.6299 -0.4236  0.5541
 1636ETH     OH14716   0.032   1.954   4.804 -0.1295  0.0813  0.9751
 1636ETH     CH14717   0.133   2.034   4.746  0.1863 -0.7713  0.3417
 1636ETH     CH14718   0.223   1.945   4.660  0.0027  0.0594 -0.7271
 1636ETH     HO14719  -0.026   2.013   4.850  0.8945  1.1015  1.0001
 1636ETH     HC14720   0.094   2.123   4.696  1.4627  0.0615  0.8104
 1636ETH     HC14721   0.189   2.077   4.829 -1.4469  1.1252  0.5127
 1636ETH     HC14722   0.266   1.861   4.714 -0.2866 -0.1269 -0.7831
 1636ETH     HC14723   0.163   1.914   4.574 -1.3904  0.7576 -0.0288
 1636ETH     HC14724   0.306   2.007   4.626 -0.7077  1.1108 -0.5604
 1637ETH     OH14725   0.288   2.534   2.571 -0.1931 -0.4850 -0.0565
 1637ETH     CH14726   0.200   2.582   2.670 -0.1896 -0.2098 -0.1847
 1637ETH     CH14727   0.234   2.729   2.693 -0.2930 -0.1933 -0.1397
 1637ETH     HO14728   0.260   2.447   2.549 -1.3276  0.6204 -3.3002
 1637ETH     HC14729   0.101   2.563   2.628 -0.5855 -0.9589  1.0658
 1637ETH     HC14730   0.212   2.518   2.757  1.5957  0.0782 -0.1976
 1637ETH     HC14731   0.157   2.782   2.750 -0.9330  1.0380 -2.0951
 1637ETH     HC14732   0.329   2.744   2.744  0.3919  1.3186 -1.8209
 1637ETH     HC14733   0.244   2.778   2.596  1.7208  0.0423  0.1741
 1638ETH     OH14734   1.453   0.051   4.300 -0.0238 -0.1097 -0.9459
 1638ETH     CH14735   1.581  -0.008   4.288 -0.1429 -0.5933  0.1194
 1638ETH     CH14736   1.696   0.064   4.359 -0.1816 -0.6314  0.2203
 1638ETH     HO14737   1.419   0.079   4.216 -2.2181 -0.4304 -0.1869
 1638ETH     HC14738   1.581  -0.111   4.325  0.0484 -1.5564 -2.4692
 1638ETH     HC14739   1.608  -0.008   4.182  2.9903  0.4061  0.8626
 1638ETH     HC14740   1.785   0.003   4.345 -0.9571 -1.2413 -2.5235
 1638ETH     HC14741   1.695   0.169   4.330 -0.0971 -0.7639 -0.2600
 1638ETH     HC14742   1.671   0.056   4.465 -2.0584 -1.0371 -0.2241
 1639ETH     OH14743   3.989   5.059   2.154  0.2387  0.3056 -0.2786
 1639ETH     CH14744   4.003   5.113   2.024  0.8256  0.4653 -0.1492
 1639ETH     CH14745   3.872   5.183   1.986  0.0481 -0.8102  0.1371
 1639ETH     HO14746   4.062   5.006   2.180 -0.1138 -0.1809 -0.2582
 1639ETH     HC14747   4.075   5.194   2.022 -1.5096  2.6601  0.8255
 1639ETH     HC14748   4.028   5.047   1.941 -1.6117  0.1187 -0.6500
 1639ETH     HC14749   3.882   5.204   1.879 -0.9300 -2.1411 -0.2341
 1639ETH     HC14750   3.797   5.105   1.999  0.1076 -0.6971  1.1779
 1639ETH     HC14751   3.859   5.269   2.051 -1.2161 -1.8555  1.2994
 1640ETH     OH14752   3.096   3.821   0.712  0.3718  0.2106 -0.1773
 1640ETH     CH14753   2.974   3.804   0.780  0.0935  0.7881 -0.5277
 1640ETH     CH14754   2.900   3.694   0.704 -0.2138  0.4404  0.2674
 1640ETH     HO14755   3.075   3.865   0.631  0.2525 -0.1363 -0.3372
 1640ETH     HC14756   2.995   3.783   0.885 -1.0611  1.0732 -0.2349
 1640ETH     HC14757   2.916   3.896   0.783 -0.8548  0.2844 -2.8074
 1640ETH     HC14758   2.959   3.604   0.685  2.1478  2.0703 -0.3258
 1640ETH     HC14759   2.810   3.669   0.761 -0.0571  2.0183  1.2292
 1640ETH     HC14760   2.867   3.742   0.612 -2.4190 -0.9846  0.2851
 1641ETH     OH14761   2.877   0.376   3.977  0.0415  0.0205 -0.0629
 1641ETH     CH14762   2.937   0.376   3.850 -0.4050  0.4214 -0.2720
 1641ETH     CH14763   2.997   0.516   3.837 -0.1658  0.4000  0.5676
 1641ETH     HO14764   2.831   0.294   3.988 -1.9859  1.2644  1.2095
 1641ETH     HC14765   3.000   0.287   3.842 -0.8940  0.2489 -2.6245
 1641ETH     HC14766   2.852   0.361   3.783 -1.2322 -0.1037  0.8878
 1641ETH     HC14767   3.053   0.517   3.743 -2.4547 -1.4802 -0.8559
 1641ETH     HC14768   2.924   0.595   3.821 -2.7333 -1.2878  3.5385
 1641ETH     HC14769   3.072   0.526   3.915  0.4942  0.9404 -0.1143
 1642ETH     OH14770   5.308   6.205   1.837 -0.2370  0.0057  0.8030
 1642ETH     CH14771   5.318   6.064   1.844 -0.0262 -0.0070  0.3184
 1642ETH     CH14772   5.461   6.036   1.890 -0.0418  0.3657  0.6015
 1642ETH     HO14773   5.335   6.235   1.752 -1.0244 -1.5449 -0.0222
 1642ETH     HC14774   5.256   6.026   1.925 -1.0604  0.7036 -0.1179
 1642ETH     HC14775   5.297   6.010   1.752  2.4307  2.2663 -1.6540
 1642ETH     HC14776   5.529   6.084   1.820 -0.1001 -1.3555 -0.6659
 1642ETH     HC14777   5.485   6.082   1.986  0.1488  1.2123  0.1552
 1642ETH     HC14778   5.483   5.931   1.907 -1.2173 -0.4588 -2.6529
 1643ETH     OH14779   3.384   0.145   4.215  0.2434  0.0352  0.1739
 1643ETH     CH14780   3.261   0.189   4.163  0.3057  0.0134  0.0078
 1643ETH     CH14781   3.247   0.336   4.123 -0.8393  0.0229  0.4126
 1643ETH     HO14782   3.412   0.204   4.283 -0.1150  1.1494 -0.6202
 1643ETH     HC14783   3.239   0.120   4.080  1.6874 -0.2967 -0.1040
 1643ETH     HC14784   3.186   0.165   4.238  1.7408 -0.8632  1.1876
 1643ETH     HC14785   3.247   0.406   4.206  0.4151  2.8974 -1.9431
 1643ETH     HC14786   3.328   0.361   4.055 -0.2321  2.3166  1.9349
 1643ETH     HC14787   3.164   0.359   4.057  0.4934 -2.2324 -2.1698
 1644ETH     OH14788   4.429   5.493   0.693  0.1681 -0.3909  0.2233
 1644ETH     CH14789   4.385   5.592   0.602 -0.1945 -0.9224 -0.1811
 1644ETH     CH14790   4.257   5.638   0.670  0.3342  0.0917  0.1452
 1644ETH     HO14791   4.416   5.518   0.783 -1.7038 -0.8280  0.0920
 1644ETH     HC14792   4.464   5.667   0.601 -1.5093  0.4987  0.8323
 1644ETH     HC14793   4.371   5.546   0.504 -0.9816  1.7110 -1.3485
 1644ETH     HC14794   4.220   5.730   0.626 -0.8940 -1.6118 -2.4777
 1644ETH     HC14795   4.173   5.569   0.657  0.8897 -1.2437  3.1234
 1644ETH     HC14796   4.260   5.664   0.776 -1.8763 -0.3048  0.3374
 1645ETH     OH14797   4.115   3.188   1.997  0.4441  0.7578 -0.8346
 1645ETH     CH14798   4.216   3.092   1.973  0.2913  0.2892  0.3754
 1645ETH     CH14799   4.161   2.955   2.014 -0.7670  0.5435 -0.1621
 1645ETH     HO14800   4.041   3.178   1.938 -0.4746  0.3023  0.3810
 1645ETH     HC14801   4.251   3.096   1.870  0.3577  3.4191  0.4642
 1645ETH     HC14802   4.309   3.111   2.027  0.1146 -2.8076  1.8387
 1645ETH     HC14803   4.247   2.888   2.022  0.0502  1.5810 -0.0902
 1645ETH     HC14804   4.122   2.962   2.116 -0.5500 -0.0774 -0.0326
 1645ETH     HC14805   4.082   2.905   1.959  0.2360 -0.2993 -0.8536
 1646ETH     OH14806   0.949   6.208   6.028  0.3052 -0.2936 -0.5747
 1646ETH     CH14807   0.935   6.273   5.904  0.2557 -0.2169 -0.5288
 1646ETH     CH14808   0.903   6.421   5.921  0.0976 -0.2782 -0.2939
 1646ETH     HO14809   1.029   6.243   6.064 -0.4697 -0.8373  1.8132
 1646ETH     HC14810   1.032   6.264   5.854 -0.1891 -1.2925 -1.2192
 1646ETH     HC14811   0.860   6.227   5.840  1.2307 -0.3634 -1.6030
 1646ETH     HC14812   0.916   6.468   5.823  2.2391  0.9237  0.5424
 1646ETH     HC14813   0.802   6.431   5.961  0.7428 -0.6113  1.4684
 1646ETH     HC14814   0.971   6.471   5.990 -1.2787  0.0441  0.8429
 1647ETH     OH14815   2.425   2.445   4.009 -0.4136  0.1662 -0.2824
 1647ETH     CH14816   2.559   2.401   4.004 -0.3077  0.4479  0.0942
 1647ETH     CH14817   2.639   2.512   3.935 -0.6060  0.9802  0.6006
 1647ETH     HO14818   2.384   2.387   4.071  1.7926  1.5232  2.5487
 1647ETH     HC14819   2.591   2.400   4.108 -0.1725  0.4285  0.0531
 1647ETH     HC14820   2.553   2.305   3.953 -0.3814  1.4658 -1.8444
 1647ETH     HC14821   2.642   2.507   3.826 -0.6441 -0.1654  0.6509
 1647ETH     HC14822   2.600   2.610   3.962 -2.3697  1.1092 -2.2332
 1647ETH     HC14823   2.743   2.507   3.966  0.0571  0.3919 -1.6530
 1648ETH     OH14824   4.517   0.368   5.088 -0.1334 -0.2302  0.0192
 1648ETH     CH14825   4.602   0.259   5.063  0.3169  0.1686 -0.1899
 1648ETH     CH14826   4.543   0.172   4.951 -0.8633 -0.2079  0.7272
 1648ETH     HO14827   4.512   0.371   5.182 -3.6011 -2.1480 -0.0066
 1648ETH     HC14828   4.707   0.287   5.063  0.5684 -0.7076  2.3636
 1648ETH     HC14829   4.589   0.214   5.161 -1.4493 -0.4288 -0.6860
 1648ETH     HC14830   4.448   0.126   4.980 -0.3020 -1.9941 -0.2472
 1648ETH     HC14831   4.508   0.235   4.870 -2.9398 -0.2200  1.5691
 1648ETH     HC14832   4.613   0.095   4.921  0.7591  0.7552  1.9422
 1649ETH     OH14833   5.329   2.541   4.405 -0.0189  0.2608  0.2407
 1649ETH     CH14834   5.192   2.565   4.383  0.0905  0.7826  0.1261
 1649ETH     CH14835   5.161   2.500   4.248 -0.0113  0.6010  0.2368
 1649ETH     HO14836   5.337   2.447   4.413 -0.1355  0.2338  0.0426
 1649ETH     HC14837   5.144   2.514   4.466  0.9186 -1.3675 -0.6684
 1649ETH     HC14838   5.159   2.669   4.376  3.3929  1.8081 -1.3058
 1649ETH     HC14839   5.053   2.509   4.234 -0.0910  1.0637  1.0961
 1649ETH     HC14840   5.214   2.556   4.170 -0.9704  0.4273 -0.5439
 1649ETH     HC14841   5.197   2.398   4.234  0.2641  0.6475  0.5868
 1650ETH     OH14842   0.185   0.107   5.247 -0.0589 -0.5207  0.1116
 1650ETH     CH14843   0.313   0.120   5.305  0.1195  0.4930 -0.5172
 1650ETH     CH14844   0.386  -0.014   5.306 -0.0022  0.4291  0.1609
 1650ETH     HO14845   0.154   0.196   5.252  0.1241 -0.5252  1.6531
 1650ETH     HC14846   0.372   0.201   5.260  0.9708 -0.3060 -0.8485
 1650ETH     HC14847   0.300   0.148   5.409  0.0653 -1.0948 -0.0885
 1650ETH     HC14848   0.490  -0.016   5.338 -0.2484 -2.4989  0.8877
 1650ETH     HC14849   0.339  -0.083   5.375 -1.2850  0.3398 -0.7799
 1650ETH     HC14850   0.382  -0.054   5.204  0.3685 -0.0211  0.3241
 1651ETH     OH14851   5.771   4.873   5.128 -0.0812  0.2732 -0.1629
 1651ETH     CH14852   5.647   4.937   5.112 -0.2148 -0.0368 -0.3721
 1651ETH     CH14853   5.608   4.917   4.965 -0.5635 -0.2636 -0.2500
 1651ETH     HO14854   5.833   4.930   5.172 -0.6431 -1.6408  3.3053
 1651ETH     HC14855   5.571   4.893   5.176 -0.8599  1.2300 -0.2523
 1651ETH     HC14856   5.656   5.045   5.129  1.8397 -0.5332  1.9891
 1651ETH     HC14857   5.509   4.957   4.943 -0.5640  1.2138  2.1279
 1651ETH     HC14858   5.685   4.946   4.893  1.6513 -2.1229  1.3022
 1651ETH     HC14859   5.602   4.810   4.946 -2.9313 -0.2006  0.0699
 1652ETH     OH14860   0.169   3.912   0.164 -0.1528  0.6280 -0.7679
 1652ETH     CH14861   0.295   3.886   0.221 -0.6189 -0.0023 -0.0052
 1652ETH     CH14862   0.283   3.770   0.320  0.3280  0.1189  0.2607
 1652ETH     HO14863   0.176   3.955   0.080  0.1825  2.2002  0.0528
 1652ETH     HC14864   0.360   3.856   0.140  1.4051  1.0080  1.2037
 1652ETH     HC14865   0.330   3.979   0.267 -0.5911 -0.5421  1.0846
 1652ETH     HC14866   0.250   3.681   0.267  0.9566 -0.2827  0.5470
 1652ETH     HC14867   0.379   3.742   0.363  1.0281  3.2606  0.8654
 1652ETH     HC14868   0.224   3.782   0.411 -1.4645  0.2311 -0.8812
 1653ETH     OH14869   0.691   2.471   5.113  0.0532 -0.1911  0.1845
 1653ETH     CH14870   0.634   2.371   5.194  0.4531 -0.0804  0.6055
 1653ETH     CH14871   0.739   2.313   5.288  0.8336 -0.3080  0.0424
 1653ETH     HO14872   0.717   2.539   5.172 -1.1185  0.0724  0.3995
 1653ETH     HC14873   0.554   2.418   5.251  0.4176 -1.7452  1.9631
 1653ETH     HC14874   0.601   2.283   5.138  1.1652  0.0596 -0.0517
 1653ETH     HC14875   0.774   2.397   5.348 -0.8884 -0.6083  1.4962
 1653ETH     HC14876   0.699   2.244   5.362  1.6791 -0.8114  0.0451
 1653ETH     HC14877   0.831   2.266   5.251  0.4504 -2.0435  1.2164
 1654ETH     OH14878   0.528   2.591   3.460 -0.4779 -0.0233 -0.9496
 1654ETH     CH14879   0.459   2.605   3.337 -0.2991  0.1344 -1.0311
 1654ETH     CH14880   0.472   2.748   3.284 -0.4345  0.2153 -0.8460
 1654ETH     HO14881   0.504   2.512   3.506  3.0293 -0.3217  0.5236
 1654ETH     HC14882   0.491   2.537   3.258  1.4282  1.5534 -1.5986
 1654ETH     HC14883   0.352   2.590   3.347 -0.6209  2.9848  0.3200
 1654ETH     HC14884   0.451   2.763   3.178  1.8233 -3.9827 -1.9976
 1654ETH     HC14885   0.410   2.819   3.340 -0.7337 -2.1860  1.9967
 1654ETH     HC14886   0.575   2.777   3.305 -0.1800 -1.2932  0.0558
 1655ETH     OH14887   3.880   1.155   4.678  0.1225 -0.0748  0.0623
 1655ETH     CH14888   3.954   1.035   4.671  0.0708 -0.0784 -0.4103
 1655ETH     CH14889   4.080   1.043   4.757 -0.0813 -0.5343 -0.1454
 1655ETH     HO14890   3.896   1.206   4.756 -1.1555  3.5790 -1.9755
 1655ETH     HC14891   3.895   0.949   4.703  0.0714  0.1391  0.1794
 1655ETH     HC14892   3.987   1.023   4.568 -1.4176  1.3186 -1.0702
 1655ETH     HC14893   4.130   0.948   4.741 -2.2201 -2.2408  2.6574
 1655ETH     HC14894   4.143   1.121   4.716  0.6476 -1.2902 -0.4732
 1655ETH     HC14895   4.068   1.051   4.865 -2.1597 -0.8922 -0.3152
 1656ETH     OH14896   5.054   0.756   3.057  0.0703  0.0369  0.0908
 1656ETH     CH14897   4.960   0.760   3.161  0.2448 -0.3139  0.2629
 1656ETH     CH14898   5.031   0.707   3.285  0.3193  0.4619  0.5583
 1656ETH     HO14899   5.086   0.672   3.029 -0.0649 -0.1764  0.5751
 1656ETH     HC14900   4.930   0.864   3.179 -1.2334 -0.6422 -0.2186
 1656ETH     HC14901   4.865   0.709   3.144  0.4290 -1.0188  1.3208
 1656ETH     HC14902   5.126   0.755   3.310 -0.7354  2.7467  0.2778
 1656ETH     HC14903   4.968   0.727   3.372  1.0346  1.6744  0.8145
 1656ETH     HC14904   5.045   0.598   3.283  0.1630  0.4008  1.8517
 1657ETH     OH14905   0.369   1.667   2.427 -0.2844 -0.4038 -0.4117
 1657ETH     CH14906   0.504   1.661   2.388 -0.3221 -0.3981 -0.5433
 1657ETH     CH14907   0.600   1.651   2.507 -1.3108  0.0647  0.3008
 1657ETH     HO14908   0.347   1.579   2.454 -0.1037 -0.5672 -0.7952
 1657ETH     HC14909   0.522   1.583   2.314  0.0713  0.6932 -1.6243
 1657ETH     HC14910   0.520   1.759   2.342 -0.8543  0.2677  0.6606
 1657ETH     HC14911   0.572   1.561   2.561  1.7794 -0.3216  1.3323
 1657ETH     HC14912   0.704   1.644   2.476 -1.1822  1.4675  0.3883
 1657ETH     HC14913   0.586   1.736   2.573  0.5961  2.2985 -2.0598
 1658ETH     OH14914   0.950   0.957   1.228  0.3389  0.2260  0.5541
 1658ETH     CH14915   0.837   0.890   1.179  0.8773 -0.5539  0.3662
 1658ETH     CH14916   0.758   0.819   1.289  0.2686 -0.4495 -0.0002
 1658ETH     HO14917   0.926   1.016   1.298  1.7385  0.1986  1.0910
 1658ETH     HC14918   0.770   0.959   1.127  0.9978  0.1844  1.1720
 1658ETH     HC14919   0.865   0.823   1.098  0.6007  0.6349 -0.7228
 1658ETH     HC14920   0.678   0.758   1.248 -0.2381  1.8499 -2.6421
 1658ETH     HC14921   0.833   0.765   1.347  2.1491 -1.2593 -3.0970
 1658ETH     HC14922   0.709   0.890   1.356  0.2426 -0.8806  0.4409
 1659ETH     OH14923   1.788   5.122   4.732 -0.0317  0.4522 -0.0755
 1659ETH     CH14924   1.834   5.256   4.730  0.1247  0.3951 -0.3270
 1659ETH     CH14925   1.806   5.330   4.860  0.2743 -0.1720  0.0305
 1659ETH     HO14926   1.858   5.060   4.748  0.3910  0.4080 -1.9566
 1659ETH     HC14927   1.937   5.237   4.700 -0.0408 -0.3840 -0.4177
 1659ETH     HC14928   1.779   5.307   4.651 -0.3811  0.8634  0.3319
 1659ETH     HC14929   1.697   5.329   4.870  0.1656 -1.9985 -1.0730
 1659ETH     HC14930   1.853   5.291   4.950  1.6987  0.1923 -0.5437
 1659ETH     HC14931   1.834   5.435   4.856 -0.1414 -0.1239 -2.5276
 1660ETH     OH14932   5.562   4.788   4.393  0.2067  0.6108 -0.2700
 1660ETH     CH14933   5.589   4.714   4.276 -0.5053  0.4537 -0.3356
 1660ETH     CH14934   5.459   4.707   4.195 -0.6373  0.4616 -0.1231
 1660ETH     HO14935   5.634   4.779   4.453  0.3889 -3.5470 -0.9619
 1660ETH     HC14936   5.664   4.762   4.213  1.9553  0.2793  2.3276
 1660ETH     HC14937   5.635   4.618   4.301 -0.8439 -0.3072 -2.4702
 1660ETH     HC14938   5.430   4.805   4.157 -2.7075  0.4008  1.2171
 1660ETH     HC14939   5.475   4.643   4.109 -1.9870  1.3085 -1.0157
 1660ETH     HC14940   5.373   4.675   4.254  0.1862 -2.5315 -0.4407
 1661ETH     OH14941   4.591   2.464   0.171 -0.4789 -0.3345 -0.1231
 1661ETH     CH14942   4.525   2.444   0.294 -0.0383  0.0709  0.1826
 1661ETH     CH14943   4.429   2.561   0.317  0.3670  0.4709 -0.1616
 1661ETH     HO14944   4.659   2.525   0.193 -0.8837  0.5184 -1.1801
 1661ETH     HC14945   4.467   2.352   0.299  1.7022 -1.1878 -1.9806
 1661ETH     HC14946   4.585   2.440   0.384  0.1202 -1.7540  0.0088
 1661ETH     HC14947   4.401   2.571   0.422  0.4915  1.0492 -0.1801
 1661ETH     HC14948   4.471   2.653   0.276  2.8067 -0.7005 -0.4137
 1661ETH     HC14949   4.341   2.533   0.260 -0.9753  3.0618  0.5771
 1662ETH     OH14950   4.450   1.602   6.052 -0.4500 -0.2509 -0.3838
 1662ETH     CH14951   4.329   1.618   6.123 -0.2783  0.8778 -0.3392
 1662ETH     CH14952   4.327   1.713   6.243  0.0237  0.2634  0.1513
 1662ETH     HO14953   4.505   1.556   6.113  1.1933 -0.1618 -1.7638
 1662ETH     HC14954   4.249   1.642   6.052 -1.6820 -1.0544  0.5492
 1662ETH     HC14955   4.312   1.520   6.167  1.1540  1.0876  0.7090
 1662ETH     HC14956   4.410   1.695   6.311  1.3883  1.5237 -1.1490
 1662ETH     HC14957   4.344   1.811   6.200  3.6051  0.6960  2.3208
 1662ETH     HC14958   4.237   1.714   6.305 -0.3949  2.6680 -0.4549
 1663ETH     OH14959   2.478   1.972   3.377 -0.3237 -0.1908  0.3958
 1663ETH     CH14960   2.520   2.075   3.464  0.2312 -0.3063  0.2649
 1663ETH     CH14961   2.443   2.205   3.441  0.4721 -0.2531 -0.2605
 1663ETH     HO14962   2.533   1.899   3.400  2.0245  0.8249 -1.8065
 1663ETH     HC14963   2.500   2.042   3.566 -0.0208  1.0251  0.6498
 1663ETH     HC14964   2.628   2.090   3.462  0.2473 -0.4845 -0.6018
 1663ETH     HC14965   2.335   2.186   3.444  0.3882  0.2065 -0.3689
 1663ETH     HC14966   2.471   2.290   3.503 -0.4315 -0.1873  0.0684
 1663ETH     HC14967   2.456   2.238   3.338 -0.7088 -2.4409 -1.1436
 1664ETH     OH14968   2.388   4.454   2.703 -0.5523  0.8013 -0.2628
 1664ETH     CH14969   2.451   4.513   2.814 -0.6984  0.0383  0.2317
 1664ETH     CH14970   2.481   4.417   2.928 -0.7119  0.1644  0.3418
 1664ETH     HO14971   2.298   4.434   2.723 -0.8071  0.2341 -1.8883
 1664ETH     HC14972   2.549   4.550   2.786 -0.4282 -0.7387  0.1396
 1664ETH     HC14973   2.407   4.605   2.853  1.3070  1.5842 -1.0859
 1664ETH     HC14974   2.557   4.344   2.901 -0.2297  1.4404 -1.8250
 1664ETH     HC14975   2.508   4.470   3.019  0.0009  1.1977 -0.4675
 1664ETH     HC14976   2.397   4.356   2.962 -2.3610  1.0102 -2.0787
 1665ETH     OH14977   2.280   0.996   0.872 -0.1192  0.1766 -0.0926
 1665ETH     CH14978   2.382   1.088   0.841 -0.2373  0.2562 -0.2455
 1665ETH     CH14979   2.421   1.166   0.967  0.6050 -0.0246 -0.3285
 1665ETH     HO14980   2.313   0.939   0.940 -2.0765  0.1177  0.8330
 1665ETH     HC14981   2.458   1.022   0.798  0.1187  1.4209 -1.4724
 1665ETH     HC14982   2.337   1.148   0.762 -3.4376 -1.1736  0.4471
 1665ETH     HC14983   2.468   1.096   1.036  0.9218  1.0198  0.5316
 1665ETH     HC14984   2.505   1.233   0.948  0.5781  0.2775  0.6319
 1665ETH     HC14985   2.331   1.220   0.997  0.5149 -1.5151  2.1326
 1666ETH     OH14986   1.843   3.751   2.879  0.1999  0.2480  0.8508
 1666ETH     CH14987   1.707   3.732   2.911  0.0644  0.0606  0.1804
 1666ETH     CH14988   1.651   3.628   2.814 -0.3722 -0.3070  0.8200
 1666ETH     HO14989   1.883   3.800   2.948  1.0989  1.2582 -0.3660
 1666ETH     HC14990   1.700   3.692   3.012 -0.5220  2.9488  1.3224
 1666ETH     HC14991   1.655   3.827   2.910 -1.5284 -0.7840 -0.4786
 1666ETH     HC14992   1.680   3.524   2.830 -0.2102 -0.3239  0.4300
 1666ETH     HC14993   1.543   3.645   2.821 -0.3175  0.6684 -0.4454
 1666ETH     HC14994   1.660   3.651   2.708 -0.7611 -2.1457  0.3723
 1667ETH     OH14995   5.863   4.612   0.920 -0.1472 -0.4390  0.2419
 1667ETH     CH14996   5.985   4.653   0.977 -0.2737 -0.1709  0.3220
 1667ETH     CH14997   6.017   4.800   0.948 -0.4667 -0.0124  0.9074
 1667ETH     HO14998   5.840   4.541   0.977 -3.6940  0.6288  0.2559
 1667ETH     HC14999   5.989   4.650   1.086  1.8317  2.5501  0.3629
 1667ETH     HC15000   6.065   4.587   0.941  0.6313  0.9160  0.2890
 1667ETH     HC15001   6.026   4.813   0.840  2.7650  3.0652  1.4618
 1667ETH     HC15002   5.942   4.871   0.983 -1.9556 -1.7292  1.3015
 1667ETH     HC15003   6.109   4.833   0.996 -0.9522 -1.2041  2.7195
 1668ETH     OH15004   1.549   1.864   1.708 -0.1195  0.0920  0.2452
 1668ETH     CH15005   1.635   1.802   1.616  0.0192  0.5769  0.0430
 1668ETH     CH15006   1.552   1.718   1.520  1.0481 -0.0102 -0.3458
 1668ETH     HO15007   1.597   1.902   1.780 -0.6644 -2.3520  1.9539
 1668ETH     HC15008   1.683   1.884   1.564 -0.9311  0.1553 -1.5314
 1668ETH     HC15009   1.698   1.728   1.666 -1.5171 -1.1376 -0.4838
 1668ETH     HC15010   1.607   1.653   1.452 -0.2098  0.0263 -1.4354
 1668ETH     HC15011   1.487   1.642   1.563  0.6539  0.8872  0.6508
 1668ETH     HC15012   1.478   1.778   1.468  0.1858 -0.7041  0.0492
 1669ETH     OH15013   5.892   4.749   2.012  0.3971 -0.2892  0.5456
 1669ETH     CH15014   5.809   4.767   2.125  0.0500  0.4350  0.1777
 1669ETH     CH15015   5.910   4.732   2.234 -0.3907  0.7162  0.6733
 1669ETH     HO15016   5.841   4.704   1.946  1.3058 -2.2265  1.1101
 1669ETH     HC15017   5.762   4.865   2.135  0.3400  0.4944  0.9438
 1669ETH     HC15018   5.724   4.699   2.112  0.5993  0.0270 -1.4725
 1669ETH     HC15019   5.963   4.638   2.221  0.4748  1.0915  1.4346
 1669ETH     HC15020   5.980   4.811   2.260 -0.5456  1.1731 -0.2653
 1669ETH     HC15021   5.854   4.721   2.327 -1.5311  0.0587 -0.0770
 1670ETH     OH15022   3.885   3.792   1.381 -0.1035  0.1514  0.2546
 1670ETH     CH15023   4.025   3.781   1.377 -0.1559 -0.6703  0.6185
 1670ETH     CH15024   4.083   3.760   1.518  0.1914 -0.4912  0.5034
 1670ETH     HO15025   3.871   3.816   1.291 -0.0290 -0.9223 -0.0520
 1670ETH     HC15026   4.054   3.702   1.308  0.9286  1.0706 -0.9336
 1670ETH     HC15027   4.062   3.871   1.329 -1.0195  0.0263  1.2318
 1670ETH     HC15028   4.191   3.748   1.513  0.2034 -0.0485 -0.4408
 1670ETH     HC15029   4.046   3.838   1.584 -1.6442 -1.7164  0.9753
 1670ETH     HC15030   4.035   3.670   1.556 -0.1942  0.6539  2.8368
 1671ETH     OH15031   5.444   1.537   3.661  0.2680 -0.0999 -0.1365
 1671ETH     CH15032   5.403   1.620   3.767 -0.0552  0.0338 -0.3624
 1671ETH     CH15033   5.256   1.653   3.744 -0.0231  0.5130  0.1086
 1671ETH     HO15034   5.402   1.453   3.677 -0.0078  0.1777  0.6081
 1671ETH     HC15035   5.408   1.557   3.857  1.0868  0.1077 -0.3572
 1671ETH     HC15036   5.461   1.712   3.776 -0.6709  0.3699  0.2246
 1671ETH     HC15037   5.243   1.727   3.665 -0.9330  0.8130  0.5361
 1671ETH     HC15038   5.201   1.561   3.724  0.9260 -0.0157 -0.0721
 1671ETH     HC15039   5.199   1.688   3.830  0.7386  0.5075  0.6143
 1672ETH     OH15040   3.016   1.841   5.716  0.1370 -0.4121  0.3335
 1672ETH     CH15041   3.030   1.864   5.578 -0.0137  0.3484  0.4484
 1672ETH     CH15042   3.067   2.006   5.535 -0.4585  0.2993 -0.1011
 1672ETH     HO15043   2.989   1.754   5.742 -1.0363  0.0912  0.8267
 1672ETH     HC15044   3.117   1.800   5.567 -0.9028 -0.7753 -0.0914
 1672ETH     HC15045   2.955   1.821   5.512 -0.5135  2.3666 -0.3616
 1672ETH     HC15046   3.098   2.003   5.431 -1.3497 -0.3158 -0.3540
 1672ETH     HC15047   2.983   2.076   5.543  0.3658  1.2102  0.8013
 1672ETH     HC15048   3.143   2.044   5.603 -1.8638 -0.4178  1.9127
 1673ETH     OH15049   1.660   0.517   0.411  0.0528  0.6449  0.4415
 1673ETH     CH15050   1.667   0.491   0.549  0.0163 -0.3850  0.2517
 1673ETH     CH15051   1.813   0.514   0.587 -0.0142  0.8379 -0.3541
 1673ETH     HO15052   1.657   0.611   0.402 -2.9291  0.5612  0.1574
 1673ETH     HC15053   1.623   0.393   0.566 -1.8602  0.2843 -0.6088
 1673ETH     HC15054   1.602   0.561   0.602  1.1484  0.0104  1.1472
 1673ETH     HC15055   1.813   0.491   0.694 -0.3982 -1.2961 -0.7783
 1673ETH     HC15056   1.887   0.446   0.544 -0.6751  0.3685 -0.7556
 1673ETH     HC15057   1.844   0.617   0.568  4.2689 -0.4846 -1.2308
 1674ETH     OH15058   2.850   0.260   6.194  0.8891  0.6373  0.7225
 1674ETH     CH15059   2.905   0.183   6.298 -0.0811 -0.4806  0.4208
 1674ETH     CH15060   2.997   0.084   6.227  0.3179  0.2930 -0.1402
 1674ETH     HO15061   2.803   0.334   6.230 -3.6524 -0.0766 -3.1850
 1674ETH     HC15062   2.956   0.244   6.373 -0.8040  0.0476  0.4943
 1674ETH     HC15063   2.821   0.141   6.355  0.2117 -0.7362  0.6669
 1674ETH     HC15064   2.943   0.021   6.156  0.9198  0.3133 -0.6177
 1674ETH     HC15065   3.085   0.137   6.190  0.5548 -1.6156 -2.4345
 1674ETH     HC15066   3.038   0.022   6.307  0.0304 -0.4569 -0.5752
 1675ETH     OH15067   0.744   1.208   0.314 -0.0457  0.0303 -0.1773
 1675ETH     CH15068   0.847   1.139   0.380 -0.2258  0.3927  0.4794
 1675ETH     CH15069   0.965   1.123   0.284 -0.1488 -0.4388  0.7140
 1675ETH     HO15070   0.668   1.214   0.370  0.2609  1.0218  0.1440
 1675ETH     HC15071   0.888   1.204   0.458  0.9364  0.8729 -0.5165
 1675ETH     HC15072   0.820   1.043   0.424 -1.6052  0.3782 -0.3773
 1675ETH     HC15073   0.991   1.222   0.247 -0.3944 -0.8256 -0.5029
 1675ETH     HC15074   1.056   1.095   0.339  0.1818  1.7823  1.3233
 1675ETH     HC15075   0.953   1.055   0.200 -0.6982 -1.2469  1.4341
 1676ETH     OH15076   4.083   1.220   5.953  0.6569 -0.1818 -0.2700
 1676ETH     CH15077   4.100   1.266   5.821 -0.0911 -0.1880 -0.3719
 1676ETH     CH15078   4.008   1.379   5.777 -0.1423 -0.2543 -0.4361
 1676ETH     HO15079   4.118   1.133   5.966  3.1212  0.2318 -3.4854
 1676ETH     HC15080   4.200   1.310   5.811 -0.3905  0.5124 -0.2965
 1676ETH     HC15081   4.089   1.179   5.755  1.7540  0.6485 -1.8391
 1676ETH     HC15082   3.908   1.334   5.781  0.1552 -0.9414 -0.6618
 1676ETH     HC15083   4.014   1.461   5.849 -0.8858 -1.2575  0.8033
 1676ETH     HC15084   4.034   1.415   5.678  2.4626  0.0338  0.3126
 1677ETH     OH15085   1.344   3.922   3.643  0.5386  0.4437  0.2049
 1677ETH     CH15086   1.295   3.939   3.512  0.0930  0.4190  0.3649
 1677ETH     CH15087   1.151   3.990   3.511 -0.1397 -0.2369  0.7297
 1677ETH     HO15088   1.302   3.844   3.676 -2.3190  0.8699 -2.1985
 1677ETH     HC15089   1.356   4.016   3.463  0.2975  0.0890  0.0968
 1677ETH     HC15090   1.303   3.849   3.451  0.3236  1.4018 -1.0855
 1677ETH     HC15091   1.074   3.923   3.551 -1.8225 -0.5924 -2.8738
 1677ETH     HC15092   1.147   4.086   3.561 -1.7561 -0.7050  1.5360
 1677ETH     HC15093   1.133   3.997   3.404 -0.1895  0.6404  0.7966
 1678ETH     OH15094   1.237   0.027   4.507 -0.1632 -0.5795 -0.1093
 1678ETH     CH15095   1.151   0.017   4.396 -0.3651 -0.6098  0.0503
 1678ETH     CH15096   1.007   0.021   4.446 -0.2986  0.6677  0.1374
 1678ETH     HO15097   1.327   0.023   4.477  1.3077  2.0155  3.4958
 1678ETH     HC15098   1.182   0.093   4.325 -0.8395 -0.8143 -0.3754
 1678ETH     HC15099   1.173  -0.078   4.347  0.1001 -1.0305  1.0496
 1678ETH     HC15100   0.989   0.115   4.500 -2.0339  0.4973 -0.0980
 1678ETH     HC15101   0.934   0.013   4.365 -2.9052  0.6032  2.4061
 1678ETH     HC15102   0.996  -0.061   4.516  0.3102  0.2357 -0.2743
 1679ETH     OH15103   0.834   1.233   5.014  0.2543  0.6334  0.5306
 1679ETH     CH15104   0.766   1.305   5.115 -0.6052  0.3218  0.1746
 1679ETH     CH15105   0.832   1.431   5.171 -0.1701  0.1820 -0.0260
 1679ETH     HO15106   0.926   1.231   5.035  1.2613  0.2011 -3.6133
 1679ETH     HC15107   0.668   1.341   5.083 -0.4345 -1.1836 -2.1920
 1679ETH     HC15108   0.752   1.236   5.197 -1.6054 -0.0879 -0.3303
 1679ETH     HC15109   0.939   1.432   5.194 -0.5438  0.0462  1.7450
 1679ETH     HC15110   0.812   1.518   5.108 -1.6456 -1.2769 -1.6269
 1679ETH     HC15111   0.777   1.465   5.259  1.1973  1.8375  0.2090
 1680ETH     OH15112   0.367   1.258   0.151  0.3006 -0.1616 -0.3773
 1680ETH     CH15113   0.413   1.131   0.191 -0.5473 -0.5916 -0.7606
 1680ETH     CH15114   0.290   1.044   0.219 -0.6100 -0.2432  0.0597
 1680ETH     HO15115   0.442   1.316   0.145  0.0793  0.4452  2.1117
 1680ETH     HC15116   0.471   1.080   0.114 -0.0417 -1.7370  0.3741
 1680ETH     HC15117   0.473   1.135   0.282 -2.8300  2.0723  0.7062
 1680ETH     HC15118   0.241   1.081   0.309 -1.3760 -1.6147  0.2118
 1680ETH     HC15119   0.225   1.032   0.133  1.8634  0.0163 -1.9077
 1680ETH     HC15120   0.326   0.943   0.235  0.7202  0.1306 -0.5125
 1681ETH     OH15121   1.684   3.829   4.771 -0.6040 -0.1253  0.1803
 1681ETH     CH15122   1.590   3.771   4.685  0.0552  0.2968 -0.8345
 1681ETH     CH15123   1.522   3.871   4.591 -0.1085  0.3776 -0.6323
 1681ETH     HO15124   1.634   3.876   4.837 -1.5884 -2.0780  0.8567
 1681ETH     HC15125   1.646   3.703   4.620  1.8329  1.9903 -1.0970
 1681ETH     HC15126   1.515   3.715   4.741  0.8835  1.2561  1.2431
 1681ETH     HC15127   1.437   3.915   4.641  1.0371 -0.2445  1.9342
 1681ETH     HC15128   1.592   3.949   4.560  1.1064 -0.2770  0.4152
 1681ETH     HC15129   1.482   3.829   4.498  1.6601 -1.5116 -0.5900
 1682ETH     OH15130   2.039   1.707   3.231 -0.2129 -0.0991  0.1591
 1682ETH     CH15131   2.077   1.840   3.258 -0.2368 -0.1193  0.2932
 1682ETH     CH15132   2.183   1.849   3.369 -0.2802  0.3451  0.2995
 1682ETH     HO15133   1.976   1.680   3.296  1.0006 -1.4342  0.8101
 1682ETH     HC15134   2.107   1.891   3.167 -0.0206 -1.4587 -0.3879
 1682ETH     HC15135   1.992   1.903   3.286  0.5252  1.2590 -0.4306
 1682ETH     HC15136   2.144   1.800   3.458  0.5646  0.4191  0.7081
 1682ETH     HC15137   2.270   1.786   3.349 -2.6572 -2.5042 -1.6105
 1682ETH     HC15138   2.195   1.957   3.376  0.2149  0.2271  1.2486
 1683ETH     OH15139   0.708   1.505   1.894  0.3525  0.0387  0.1073
 1683ETH     CH15140   0.689   1.644   1.910  0.0104  0.0677 -0.4984
 1683ETH     CH15141   0.820   1.721   1.931  0.1495 -0.2977  0.0058
 1683ETH     HO15142   0.711   1.462   1.978  1.1595  0.3850  0.2619
 1683ETH     HC15143   0.620   1.685   1.837  0.1137  1.0218 -0.0760
 1683ETH     HC15144   0.627   1.642   2.000 -1.9920  0.1791 -1.8476
 1683ETH     HC15145   0.805   1.826   1.954  1.5480  0.2374 -1.4532
 1683ETH     HC15146   0.874   1.674   2.013 -0.0665 -1.5417 -0.5475
 1683ETH     HC15147   0.880   1.717   1.840 -0.4695 -0.9596 -0.3789
 1684ETH     OH15148   0.858   3.964   1.072  0.1016  0.4061  0.0119
 1684ETH     CH15149   0.853   3.825   1.050 -0.0068  0.3820  0.1875
 1684ETH     CH15150   0.705   3.788   1.051  0.0112  0.3111  0.2019
 1684ETH     HO15151   0.921   3.996   1.009 -0.0029  0.5106 -0.0390
 1684ETH     HC15152   0.907   3.813   0.956  0.1087  0.7535  0.2057
 1684ETH     HC15153   0.906   3.775   1.131 -2.9736 -1.9234  0.7958
 1684ETH     HC15154   0.704   3.680   1.068  2.3838  0.4318  1.2190
 1684ETH     HC15155   0.658   3.841   1.133  2.2279  0.8866  1.1279
 1684ETH     HC15156   0.653   3.804   0.956  1.4230 -2.2611 -1.0674
 1685ETH     OH15157   2.625   2.614   1.122  0.1732  0.3392 -0.5189
 1685ETH     CH15158   2.511   2.552   1.178  0.8137 -0.2036  0.2051
 1685ETH     CH15159   2.498   2.590   1.325  0.0519 -0.6810  0.2651
 1685ETH     HO15160   2.617   2.704   1.149 -0.6104 -0.1209  0.8477
 1685ETH     HC15161   2.423   2.587   1.125  2.7902  0.1923 -2.9648
 1685ETH     HC15162   2.515   2.443   1.183  2.2510 -0.2767 -1.8091
 1685ETH     HC15163   2.494   2.699   1.329  1.6243 -0.6443  1.1273
 1685ETH     HC15164   2.406   2.568   1.378 -0.8649  2.9792  0.3399
 1685ETH     HC15165   2.582   2.552   1.384  0.4767  1.1491  0.8706
 1686ETH     OH15166   3.899   0.437   1.699  0.4742  0.4974  0.3543
 1686ETH     CH15167   3.992   0.470   1.800  0.4175  0.4463  0.4228
 1686ETH     CH15168   3.915   0.505   1.928  0.3036 -0.3228  0.5692
 1686ETH     HO15169   3.943   0.431   1.615 -2.6027  0.6544 -1.3617
 1686ETH     HC15170   4.060   0.388   1.821  0.5162  0.9610  2.1795
 1686ETH     HC15171   4.041   0.565   1.777  0.3212  0.2584 -0.6005
 1686ETH     HC15172   3.823   0.557   1.902 -0.3179 -0.4577  2.4606
 1686ETH     HC15173   3.890   0.411   1.975 -0.4772 -0.2201  0.3578
 1686ETH     HC15174   3.975   0.566   1.996 -0.2796 -2.2065  2.8241
 1687ETH     OH15175   5.869   0.586   2.129  0.5366  0.0138  0.4439
 1687ETH     CH15176   5.809   0.713   2.129  0.1898 -0.1516  0.0201
 1687ETH     CH15177   5.685   0.714   2.219  0.2036  0.2759  0.0388
 1687ETH     HO15178   5.951   0.594   2.081  0.7115 -0.6808  0.6218
 1687ETH     HC15179   5.886   0.780   2.165  1.5694 -0.3472 -2.4527
 1687ETH     HC15180   5.781   0.752   2.031  0.8433 -2.1438 -0.9785
 1687ETH     HC15181   5.595   0.672   2.173 -2.2428  2.3514  2.7548
 1687ETH     HC15182   5.712   0.661   2.310 -0.6886  1.7536  1.1709
 1687ETH     HC15183   5.649   0.812   2.250  0.5412 -0.5603  3.2380
 1688ETH     OH15184   1.980   5.769   0.033  0.5922  0.0377  0.3767
 1688ETH     CH15185   1.913   5.889   0.061 -0.4099 -0.5188  0.3665
 1688ETH     CH15186   1.870   5.894   0.207 -0.6625 -0.0561  0.2786
 1688ETH     HO15187   1.926   5.696   0.060  0.3542 -0.5396 -1.5880
 1688ETH     HC15188   1.987   5.968   0.052  1.5768 -2.6304 -2.9719
 1688ETH     HC15189   1.836   5.915  -0.012  0.6397  1.3101 -0.1259
 1688ETH     HC15190   1.787   5.824   0.221  0.6502 -1.5618  0.6344
 1688ETH     HC15191   1.951   5.865   0.274  0.5123  2.2599 -0.0787
 1688ETH     HC15192   1.844   5.989   0.254  0.6389  0.7803 -0.6551
 1689ETH     OH15193   5.427   1.830   2.164  0.3420 -0.4899  0.1663
 1689ETH     CH15194   5.455   1.902   2.046 -0.3249 -0.5955 -0.0591
 1689ETH     CH15195   5.604   1.894   2.013 -0.3998  0.4514 -0.6898
 1689ETH     HO15196   5.360   1.881   2.205 -0.3957 -0.2996 -1.2642
 1689ETH     HC15197   5.398   1.854   1.967  1.5196 -3.7107  0.4251
 1689ETH     HC15198   5.427   2.006   2.063 -0.0666 -0.4022 -0.8295
 1689ETH     HC15199   5.655   1.960   2.084  1.5777 -1.8534  0.1004
 1689ETH     HC15200   5.653   1.797   2.004 -0.1398  0.2737  1.9707
 1689ETH     HC15201   5.614   1.938   1.914 -1.1662  1.2854 -0.4023
 1690ETH     OH15202   4.593   3.241   1.694 -0.0872  0.1643 -0.0912
 1690ETH     CH15203   4.618   3.126   1.771 -0.3191  0.0956 -0.1169
 1690ETH     CH15204   4.744   3.157   1.852 -0.2660  0.2143 -0.2452
 1690ETH     HO15205   4.593   3.319   1.748  0.4971 -0.7105  1.1748
 1690ETH     HC15206   4.534   3.102   1.836 -1.5755  1.5053 -1.1936
 1690ETH     HC15207   4.638   3.045   1.701  0.1378  0.2033 -0.1150
 1690ETH     HC15208   4.742   3.237   1.925  2.3098 -0.5120  0.6749
 1690ETH     HC15209   4.777   3.072   1.912 -0.1483  0.2858 -0.2091
 1690ETH     HC15210   4.826   3.169   1.780 -0.7627  0.2937 -0.8050
 1691ETH     OH15211   1.716   1.251   3.764  0.5247 -0.4256 -0.2949
 1691ETH     CH15212   1.692   1.143   3.851 -0.2595 -0.0893 -0.0847
 1691ETH     CH15213   1.823   1.074   3.891 -0.2028  0.1595  0.1592
 1691ETH     HO15214   1.763   1.210   3.693  1.7648 -1.0821  0.8771
 1691ETH     HC15215   1.641   1.175   3.942 -1.6713 -2.2764 -0.0527
 1691ETH     HC15216   1.618   1.073   3.811 -1.5563  1.9348 -1.2825
 1691ETH     HC15217   1.877   1.013   3.819  0.5375  0.3916  0.5184
 1691ETH     HC15218   1.893   1.149   3.926  0.4487 -0.2895 -0.1761
 1691ETH     HC15219   1.799   1.006   3.973  0.4472 -0.6362 -0.3037
 1692ETH     OH15220   5.664   3.433   4.944 -0.1359  0.4661  0.4455
 1692ETH     CH15221   5.537   3.419   5.005 -0.2314  0.3749  0.2258
 1692ETH     CH15222   5.430   3.522   4.969  0.3173  0.8967  0.0620
 1692ETH     HO15223   5.690   3.358   4.893  3.4810  1.2768  0.9489
 1692ETH     HC15224   5.489   3.330   4.965  1.4007 -2.5499  4.4593
 1692ETH     HC15225   5.546   3.412   5.113 -0.0232 -1.7306  0.0950
 1692ETH     HC15226   5.338   3.501   5.024 -0.7810  3.2026 -0.8230
 1692ETH     HC15227   5.466   3.622   4.992 -1.5787  2.0558 -1.7676
 1692ETH     HC15228   5.397   3.500   4.867  3.6196 -0.8052 -0.7048
 1693ETH     OH15229   3.806   4.373   0.405  0.2664 -0.1411  0.6923
 1693ETH     CH15230   3.783   4.498   0.345  0.1972 -0.6479 -0.3518
 1693ETH     CH15231   3.634   4.533   0.360  0.4002 -0.0198  0.2313
 1693ETH     HO15232   3.898   4.352   0.397 -0.3756 -3.8497  1.8108
 1693ETH     HC15233   3.837   4.584   0.386 -1.0043 -0.3892  0.7260
 1693ETH     HC15234   3.802   4.495   0.238 -0.1893  0.8124 -0.4806
 1693ETH     HC15235   3.600   4.634   0.336  2.5863  1.1306  1.7568
 1693ETH     HC15236   3.564   4.464   0.313  0.3933  1.0892 -1.4618
 1693ETH     HC15237   3.623   4.518   0.467  1.4452 -2.8358 -0.0057
 1694ETH     OH15238   5.825   5.371   2.069 -0.4628  0.5108  0.1668
 1694ETH     CH15239   5.821   5.486   2.150 -0.6600  0.5314  0.1255
 1694ETH     CH15240   5.940   5.576   2.119 -0.5482  0.2563 -0.2393
 1694ETH     HO15241   5.798   5.398   1.982 -0.8668 -2.1600 -0.5785
 1694ETH     HC15242   5.723   5.532   2.136 -0.6274  0.1179 -1.6595
 1694ETH     HC15243   5.829   5.441   2.248  2.9562 -0.2792 -0.4971
 1694ETH     HC15244   6.030   5.515   2.133 -1.6777 -1.0977  1.2520
 1694ETH     HC15245   5.930   5.605   2.014  0.2719  0.6744 -0.2086
 1694ETH     HC15246   5.925   5.660   2.186 -1.0020  0.3164 -0.4136
 1695ETH     OH15247   4.464   1.987   1.044  0.2575  0.0953  0.0885
 1695ETH     CH15248   4.458   2.014   0.906  0.0233  0.3255  0.1446
 1695ETH     CH15249   4.378   1.901   0.840  0.3711 -0.3803  0.9235
 1695ETH     HO15250   4.383   1.967   1.086  0.7312  0.6044  1.2679
 1695ETH     HC15251   4.406   2.107   0.882  0.9272  0.7186 -0.2781
 1695ETH     HC15252   4.556   2.029   0.862  0.9195  2.2580  2.7147
 1695ETH     HC15253   4.289   1.873   0.897  0.8546  2.2337  3.0464
 1695ETH     HC15254   4.348   1.915   0.736  1.8963 -1.4286  0.3245
 1695ETH     HC15255   4.442   1.814   0.834  0.6942 -0.0525 -0.5727
 1696ETH     OH15256   6.004   5.380   3.811  0.1605  0.5043  0.0276
 1696ETH     CH15257   6.134   5.434   3.820  0.2482  0.2487  0.2906
 1696ETH     CH15258   6.197   5.384   3.950 -0.8363 -0.1019  0.6903
 1696ETH     HO15259   5.969   5.432   3.740  0.5457 -1.4287 -1.6098
 1696ETH     HC15260   6.202   5.404   3.740 -0.4485  0.4313 -0.3779
 1696ETH     HC15261   6.129   5.542   3.812 -0.7302  0.1081 -1.1577
 1696ETH     HC15262   6.232   5.281   3.942 -0.9657  0.0894 -3.4745
 1696ETH     HC15263   6.293   5.436   3.957 -0.9609  0.2259  0.0047
 1696ETH     HC15264   6.134   5.380   4.039 -1.5206  0.6761  0.2392
 1697ETH     OH15265   2.487   1.147   1.608 -0.2079  0.1744  0.0422
 1697ETH     CH15266   2.551   1.027   1.571 -0.2949 -0.0190  0.5083
 1697ETH     CH15267   2.662   0.982   1.665  0.1960 -0.3785 -0.2344
 1697ETH     HO15268   2.539   1.216   1.568  1.8033 -0.8744  0.7838
 1697ETH     HC15269   2.471   0.953   1.567 -1.4390  1.2298 -0.4172
 1697ETH     HC15270   2.578   1.027   1.465  1.3786 -1.1606  0.9248
 1697ETH     HC15271   2.730   0.901   1.639  0.3068 -0.0655 -0.9261
 1697ETH     HC15272   2.729   1.068   1.678 -1.9218  1.4517 -1.1051
 1697ETH     HC15273   2.626   0.955   1.765 -1.9667 -1.3244 -1.2483
 1698ETH     OH15274   1.182   5.854   3.126  0.0894  0.0372  0.4391
 1698ETH     CH15275   1.260   5.911   3.228  0.4866  0.2919 -0.0071
 1698ETH     CH15276   1.402   5.942   3.181  0.4033  0.1675 -0.3462
 1698ETH     HO15277   1.097   5.895   3.121  0.5009  0.9036  0.5670
 1698ETH     HC15278   1.204   5.997   3.266 -0.3876  0.1385 -0.9169
 1698ETH     HC15279   1.262   5.842   3.312 -2.1850 -0.3805 -0.4492
 1698ETH     HC15280   1.461   5.996   3.255  2.7475 -0.5657 -1.6205
 1698ETH     HC15281   1.465   5.856   3.156  0.6743  0.8237 -1.9899
 1698ETH     HC15282   1.405   5.998   3.087  1.6567  1.6777  0.5580
 1699ETH     OH15283   1.726   5.476   5.155 -0.2311  0.4215  0.2392
 1699ETH     CH15284   1.798   5.396   5.246  0.0750 -0.4694 -0.7827
 1699ETH     CH15285   1.703   5.282   5.283 -0.8176  0.6666  0.4609
 1699ETH     HO15286   1.758   5.434   5.077 -1.1317 -2.1621  1.2274
 1699ETH     HC15287   1.890   5.355   5.203  0.7881  1.0540 -0.7341
 1699ETH     HC15288   1.817   5.455   5.335  0.1694 -2.2906  0.4295
 1699ETH     HC15289   1.613   5.330   5.322 -0.7878  1.7108 -0.7248
 1699ETH     HC15290   1.676   5.235   5.188 -2.2366 -0.3894  1.3693
 1699ETH     HC15291   1.734   5.192   5.337 -0.8754 -0.2571 -1.0223
 1700ETH     OH15292   2.287   5.325   5.192 -0.5526 -0.6183 -0.5669
 1700ETH     CH15293   2.265   5.199   5.252 -0.6211 -0.5092 -0.3595
 1700ETH     CH15294   2.353   5.107   5.166 -0.0679 -0.4101  0.1012
 1700ETH     HO15295   2.240   5.391   5.240  2.6041  1.0759  0.3484
 1700ETH     HC15296   2.291   5.197   5.358 -0.9850 -1.7094 -0.2846
 1700ETH     HC15297   2.158   5.178   5.247 -0.4397 -1.5869  0.1489
 1700ETH     HC15298   2.340   5.000   5.181  2.5546 -0.4201  2.8133
 1700ETH     HC15299   2.319   5.111   5.063 -3.8708  2.0039  1.3234
 1700ETH     HC15300   2.459   5.127   5.180 -0.0782 -0.2418 -0.0716
 1701ETH     OH15301   0.573   5.325   2.822  0.1505 -0.2993 -0.0571
 1701ETH     CH15302   0.635   5.206   2.777  0.0553 -0.5602  0.4970
 1701ETH     CH15303   0.785   5.237   2.771 -0.2449  0.7790 -0.2890
 1701ETH     HO15304   0.481   5.305   2.833 -0.1167  1.3846  0.9888
 1701ETH     HC15305   0.610   5.123   2.842 -2.1732 -0.8128 -0.6627
 1701ETH     HC15306   0.589   5.180   2.682  1.4150 -2.1961  0.2609
 1701ETH     HC15307   0.804   5.283   2.674  0.1412 -2.4570 -1.7992
 1701ETH     HC15308   0.826   5.296   2.853  0.0053  2.3125 -1.4761
 1701ETH     HC15309   0.832   5.140   2.757  1.7721  2.1563 -3.8824
 1702ETH     OH15310   2.475   2.159   0.131  0.3682 -0.5357 -0.0596
 1702ETH     CH15311   2.512   2.232   0.245 -0.5506 -0.4315  0.1789
 1702ETH     CH15312   2.628   2.316   0.191 -0.6887 -0.1744  0.2780
 1702ETH     HO15313   2.386   2.135   0.150  1.6549 -2.8422  3.4094
 1702ETH     HC15314   2.428   2.294   0.276 -0.1156  1.1561 -1.6830
 1702ETH     HC15315   2.541   2.165   0.326  2.3976  0.0780 -0.3646
 1702ETH     HC15316   2.601   2.380   0.107 -0.6670  0.8910  1.0707
 1702ETH     HC15317   2.670   2.375   0.272  1.1418 -0.4277 -0.4619
 1702ETH     HC15318   2.710   2.255   0.153  0.2339  1.7135 -0.8133
 1703ETH     OH15319   1.801   1.201   1.929  0.5037  0.0249 -0.2867
 1703ETH     CH15320   1.798   1.217   1.789 -0.2314 -1.3905 -0.4368
 1703ETH     CH15321   1.706   1.335   1.756  0.4297 -0.7894 -0.1305
 1703ETH     HO15322   1.853   1.123   1.943  0.8947  0.0649 -1.4779
 1703ETH     HC15323   1.898   1.240   1.753  0.0161 -1.0956  0.4202
 1703ETH     HC15324   1.757   1.124   1.750  0.1728 -0.6329 -2.7283
 1703ETH     HC15325   1.756   1.429   1.780  1.7363 -1.4835 -0.0384
 1703ETH     HC15326   1.697   1.337   1.647 -0.3409  0.8754 -0.0450
 1703ETH     HC15327   1.607   1.330   1.800  0.6010 -0.8233  0.2518
 1704ETH     OH15328   5.328   1.154   2.441 -0.5508 -0.2847 -0.6561
 1704ETH     CH15329   5.329   1.294   2.427 -0.2764 -0.1944  0.2159
 1704ETH     CH15330   5.332   1.363   2.564 -0.8333  0.2222  0.0238
 1704ETH     HO15331   5.404   1.136   2.494 -0.6260 -2.2371 -1.1753
 1704ETH     HC15332   5.416   1.320   2.367 -1.0297 -0.4761 -1.0214
 1704ETH     HC15333   5.239   1.326   2.374  0.5961  0.6986 -0.7150
 1704ETH     HC15334   5.352   1.470   2.562  1.1879 -0.1279 -0.7563
 1704ETH     HC15335   5.245   1.344   2.626 -0.4555 -2.8539 -0.2816
 1704ETH     HC15336   5.411   1.314   2.622 -0.8764 -1.1364 -1.0305
 1705ETH     OH15337   4.332   1.316   0.130  0.1761 -0.1660  0.3694
 1705ETH     CH15338   4.357   1.429   0.211 -0.9450  0.4920 -0.1994
 1705ETH     CH15339   4.344   1.385   0.357 -0.1634 -0.0570 -0.2929
 1705ETH     HO15340   4.370   1.331   0.045  0.7548 -2.4016  0.1863
 1705ETH     HC15341   4.455   1.473   0.196 -0.3807 -1.1489 -1.4737
 1705ETH     HC15342   4.274   1.492   0.180 -0.0054  1.2470 -1.2028
 1705ETH     HC15343   4.431   1.325   0.383  0.6248 -0.0125 -2.7373
 1705ETH     HC15344   4.353   1.467   0.429  0.7770 -1.6465  1.4398
 1705ETH     HC15345   4.257   1.324   0.379  0.1000 -0.2374  0.2737
 1706ETH     OH15346   0.383   1.523   3.340 -0.1922  0.5108 -0.4406
 1706ETH     CH15347   0.255   1.468   3.318  0.0197 -0.2791  0.2970
 1706ETH     CH15348   0.185   1.532   3.199  0.4539  0.2694  0.3369
 1706ETH     HO15349   0.437   1.499   3.266  0.8835  0.9181  0.2004
 1706ETH     HC15350   0.271   1.364   3.288  0.6541 -0.2629  0.5811
 1706ETH     HC15351   0.183   1.462   3.400 -0.7498  2.8947 -0.0706
 1706ETH     HC15352   0.155   1.635   3.220 -0.5283 -0.0427  0.4773
 1706ETH     HC15353   0.239   1.526   3.104  0.0443  0.2397  0.1025
 1706ETH     HC15354   0.089   1.482   3.186  0.1127  1.0048 -0.0785
 1707ETH     OH15355   0.641   2.675   5.483  0.3209 -0.4298  0.5130
 1707ETH     CH15356   0.655   2.648   5.621  0.1412 -0.1782  0.5802
 1707ETH     CH15357   0.788   2.575   5.645 -0.3561 -1.2071  0.2103
 1707ETH     HO15358   0.607   2.763   5.479 -1.0408 -0.9960 -0.8124
 1707ETH     HC15359   0.623   2.744   5.661  2.2316  0.5715  0.5652
 1707ETH     HC15360   0.575   2.582   5.652  0.7026 -2.0779 -1.8260
 1707ETH     HC15361   0.796   2.541   5.748  3.7196 -0.6818  0.1510
 1707ETH     HC15362   0.810   2.483   5.590  2.4267 -0.2852 -0.2557
 1707ETH     HC15363   0.875   2.634   5.617 -1.2614 -0.3031 -0.7738
 1708ETH     OH15364   1.706   2.822   5.950  0.3905  0.6675 -0.2102
 1708ETH     CH15365   1.622   2.935   5.951 -0.0594  0.3275  0.0955
 1708ETH     CH15366   1.622   2.981   5.805 -0.3851  0.1144  0.0271
 1708ETH     HO15367   1.717   2.805   6.042  0.8801  2.3846  0.0614
 1708ETH     HC15368   1.518   2.922   5.981 -0.0662  0.2149  0.0262
 1708ETH     HC15369   1.641   3.010   6.027 -0.9171 -0.2888  0.9392
 1708ETH     HC15370   1.535   3.046   5.798  1.1022  2.0280 -1.2578
 1708ETH     HC15371   1.709   3.042   5.781 -0.7793  0.8753  0.5323
 1708ETH     HC15372   1.612   2.897   5.736 -0.8674 -2.4979  3.1199
 1709ETH     OH15373   2.751   0.531   1.163  0.4034 -0.3222  0.4665
 1709ETH     CH15374   2.704   0.402   1.131  0.0671 -0.1856  0.4084
 1709ETH     CH15375   2.666   0.393   0.983 -0.1210 -0.0974  0.4517
 1709ETH     HO15376   2.811   0.519   1.235 -0.8443  2.3337  2.0091
 1709ETH     HC15377   2.774   0.322   1.155 -0.8006 -1.3572 -0.9013
 1709ETH     HC15378   2.617   0.380   1.193  0.0485  0.0604  0.4711
 1709ETH     HC15379   2.656   0.289   0.950 -1.5180 -0.1304  0.9383
 1709ETH     HC15380   2.581   0.452   0.947  0.5222  0.3854 -0.2807
 1709ETH     HC15381   2.751   0.424   0.923  0.5072 -1.0264  0.8484
 1710ETH     OH15382   2.050   3.892   1.693 -0.3876 -0.1706 -0.2812
 1710ETH     CH15383   2.110   3.922   1.569  0.1034 -0.5563 -0.1393
 1710ETH     CH15384   2.262   3.909   1.571  0.1471  0.0125  0.3352
 1710ETH     HO15385   2.066   3.965   1.750 -1.0694 -0.6127  0.4828
 1710ETH     HC15386   2.075   3.852   1.494  0.2507 -1.7780  0.9190
 1710ETH     HC15387   2.080   4.021   1.533 -0.3743  0.6489  3.3710
 1710ETH     HC15388   2.298   4.009   1.597 -2.1585  0.6774  1.0400
 1710ETH     HC15389   2.304   3.832   1.635 -1.2057 -0.6607  0.4179
 1710ETH     HC15390   2.294   3.901   1.467 -0.9872 -2.5005  0.1625
 1711ETH     OH15391   4.604   3.046   4.377 -0.4318 -0.0177  0.0595
 1711ETH     CH15392   4.580   3.080   4.242 -0.2945  0.5869  0.1827
 1711ETH     CH15393   4.468   3.184   4.249 -0.7641  0.1203 -0.3098
 1711ETH     HO15394   4.671   2.980   4.379  1.2693  1.6835  0.6116
 1711ETH     HC15395   4.669   3.112   4.189  1.4136 -3.4877  0.4151
 1711ETH     HC15396   4.549   2.997   4.177  1.2048 -0.7012  1.0668
 1711ETH     HC15397   4.387   3.160   4.317 -1.3677 -0.5330 -1.2456
 1711ETH     HC15398   4.500   3.281   4.287 -2.2735  2.0682 -3.7391
 1711ETH     HC15399   4.429   3.210   4.150 -0.3618 -0.3051 -0.5825
 1712ETH     OH15400   6.096   0.127   0.845  0.0286 -0.2149  0.6793
 1712ETH     CH15401   6.084   0.266   0.827  0.5478 -0.2379  0.1443
 1712ETH     CH15402   6.107   0.327   0.965  0.3486 -0.2525  0.1833
 1712ETH     HO15403   6.179   0.109   0.887 -0.1947  0.1921  1.3117
 1712ETH     HC15404   6.168   0.297   0.765  0.6673 -1.1559 -0.1661
 1712ETH     HC15405   5.993   0.309   0.784  2.4446  3.0537 -0.7146
 1712ETH     HC15406   6.109   0.435   0.952 -0.4135 -0.1548  0.8260
 1712ETH     HC15407   6.029   0.306   1.039  0.7254 -0.2346  0.5851
 1712ETH     HC15408   6.206   0.301   1.003  0.9373 -1.0070 -1.8177
 1713ETH     OH15409   2.272   2.876   4.970  0.7238  0.0864 -0.2315
 1713ETH     CH15410   2.252   3.015   4.966 -0.2840 -0.0563 -0.3755
 1713ETH     CH15411   2.171   3.058   4.844 -0.3852 -0.7196 -0.5436
 1713ETH     HO15412   2.226   2.837   5.042 -2.0284 -0.8611 -2.3787
 1713ETH     HC15413   2.203   3.052   5.057  2.3459  1.4887  0.4968
 1713ETH     HC15414   2.353   3.057   4.964  0.6972 -2.3668 -1.5098
 1713ETH     HC15415   2.134   3.160   4.853 -0.9532 -1.0162  0.4924
 1713ETH     HC15416   2.218   3.063   4.745  0.9732 -0.6363  0.0863
 1713ETH     HC15417   2.076   3.006   4.833 -1.2596  0.7439 -0.0971
 1714ETH     OH15418   1.242   2.329   5.774  0.7246  0.6187  0.4603
 1714ETH     CH15419   1.134   2.382   5.699  0.6719 -0.3583 -0.1593
 1714ETH     CH15420   1.183   2.515   5.643 -0.3851 -0.2858 -0.9394
 1714ETH     HO15421   1.303   2.299   5.709 -2.1995 -1.6372 -1.3608
 1714ETH     HC15422   1.096   2.314   5.623 -0.4783  1.1008 -0.9166
 1714ETH     HC15423   1.045   2.389   5.762  0.7705 -3.0842  0.3509
 1714ETH     HC15424   1.211   2.578   5.728 -1.5125 -4.2070  2.5094
 1714ETH     HC15425   1.272   2.489   5.585 -0.1228 -2.1719  0.2721
 1714ETH     HC15426   1.104   2.562   5.584 -1.8878 -0.6125  0.7728
 1715ETH     OH15427   2.085   3.052   4.346  0.2521  0.0225 -0.0651
 1715ETH     CH15428   2.111   2.957   4.447  0.0146  0.0124 -0.0134
 1715ETH     CH15429   2.099   2.814   4.394  0.3534 -0.1610  0.3764
 1715ETH     HO15430   1.999   3.084   4.367  0.0172 -0.8504  0.3397
 1715ETH     HC15431   2.214   2.962   4.481 -0.1625  1.0628  0.3920
 1715ETH     HC15432   2.043   2.964   4.532  0.8356  0.3721  0.6209
 1715ETH     HC15433   1.999   2.782   4.366  0.3376  1.3984 -1.5057
 1715ETH     HC15434   2.170   2.793   4.314 -0.3990 -0.8806 -0.1068
 1715ETH     HC15435   2.136   2.754   4.477  0.2498  1.6228  1.7422
 1716ETH     OH15436   0.227   0.260   2.469 -0.4573 -0.0433  0.3230
 1716ETH     CH15437   0.098   0.305   2.501 -0.3316  0.3266  0.3100
 1716ETH     CH15438  -0.014   0.226   2.433 -0.2902 -0.1908  0.8420
 1716ETH     HO15439   0.289   0.279   2.538 -1.0938 -0.3565  0.9887
 1716ETH     HC15440   0.098   0.279   2.607 -2.1650  1.6934  0.6883
 1716ETH     HC15441   0.094   0.414   2.495 -0.9109  0.2600 -0.6274
 1716ETH     HC15442  -0.112   0.253   2.471  0.3996  3.3791  0.2854
 1716ETH     HC15443  -0.017   0.233   2.324 -1.5845 -0.1569  0.8688
 1716ETH     HC15444  -0.009   0.121   2.460 -1.4697 -0.5787 -0.3714
 1717ETH     OH15445   1.234   5.362   3.788 -0.4792  0.4914  0.3763
 1717ETH     CH15446   1.289   5.322   3.912 -0.1583 -0.4124 -0.0498
 1717ETH     CH15447   1.416   5.400   3.948  0.0600 -0.9536  0.3616
 1717ETH     HO15448   1.300   5.338   3.725 -0.9260  0.8951 -0.2544
 1717ETH     HC15449   1.217   5.349   3.989 -0.0447 -0.5827  0.1161
 1717ETH     HC15450   1.307   5.215   3.923  2.7273  0.1783  1.4071
 1717ETH     HC15451   1.448   5.398   4.052  1.1648 -1.1342  0.0195
 1717ETH     HC15452   1.509   5.371   3.900  0.5478  0.4629  0.4219
 1717ETH     HC15453   1.403   5.505   3.920  2.8258  0.2739  3.4115
 1718ETH     OH15454   0.123   5.091   2.820 -0.0921 -0.0253 -0.4048
 1718ETH     CH15455   0.076   4.968   2.768 -0.6190  0.0259 -0.0516
 1718ETH     CH15456  -0.045   4.989   2.676 -0.5576  0.2258 -0.0884
 1718ETH     HO15457   0.059   5.133   2.875  0.1302 -1.2665  0.8037
 1718ETH     HC15458   0.164   4.924   2.723 -1.2856 -2.5755  1.1250
 1718ETH     HC15459   0.055   4.893   2.844 -0.9296  0.1839  0.0197
 1718ETH     HC15460  -0.048   5.086   2.628 -1.4352  1.0015  1.5259
 1718ETH     HC15461  -0.057   4.909   2.602  1.4278 -0.7038  0.5456
 1718ETH     HC15462  -0.131   4.986   2.743 -1.3614  0.4812 -1.1095
 1719ETH     OH15463   4.741   2.820   4.419 -0.1708 -0.0305  0.1527
 1719ETH     CH15464   4.739   2.747   4.298  0.1741  0.3411 -0.0784
 1719ETH     CH15465   4.866   2.780   4.221  0.5284  0.0436  0.3740
 1719ETH     HO15466   4.690   2.773   4.484 -0.4989 -1.8768 -1.3699
 1719ETH     HC15467   4.731   2.639   4.313  1.9694  0.3150  0.8031
 1719ETH     HC15468   4.655   2.776   4.235 -0.2120 -0.7270 -0.0705
 1719ETH     HC15469   4.884   2.727   4.127  2.2411  1.8068 -0.3287
 1719ETH     HC15470   4.877   2.887   4.205  1.8353 -0.2295 -0.6386
 1719ETH     HC15471   4.956   2.762   4.279 -0.3034  0.8798  1.9493
 1720ETH     OH15472   3.887   1.580   2.546 -0.1500  0.0958  0.2964
 1720ETH     CH15473   3.802   1.479   2.497 -0.0087  0.3768 -0.5271
 1720ETH     CH15474   3.658   1.528   2.510 -0.0005  0.1708  0.3456
 1720ETH     HO15475   3.881   1.656   2.490 -3.5875 -0.4189 -0.1370
 1720ETH     HC15476   3.822   1.453   2.393  0.6617  1.8311 -0.7753
 1720ETH     HC15477   3.813   1.388   2.555 -1.5561  0.9097  0.6462
 1720ETH     HC15478   3.629   1.540   2.615 -1.1179  1.2872 -0.0717
 1720ETH     HC15479   3.648   1.621   2.454 -1.5653  1.0973  2.0730
 1720ETH     HC15480   3.597   1.446   2.472  0.5077 -0.0588  0.0295
 1721ETH     OH15481   2.374   4.469   5.574 -0.6598 -0.3078  0.1420
 1721ETH     CH15482   2.397   4.529   5.699  0.2262 -0.3486 -0.0039
 1721ETH     CH15483   2.521   4.612   5.662  0.0335 -0.1490 -0.2011
 1721ETH     HO15484   2.439   4.486   5.508  0.4335 -1.4481  0.8970
 1721ETH     HC15485   2.315   4.596   5.725  0.1097 -0.0961 -1.0111
 1721ETH     HC15486   2.416   4.456   5.778  2.0105 -0.6802 -0.7021
 1721ETH     HC15487   2.607   4.546   5.651  0.1930 -0.0143  0.2446
 1721ETH     HC15488   2.515   4.674   5.572 -1.4843  1.7223  1.1667
 1721ETH     HC15489   2.541   4.671   5.751  1.0168 -0.4940 -0.1905
 1722ETH     OH15490   4.768   0.645   6.026  0.1996  0.3310 -0.0510
 1722ETH     CH15491   4.765   0.542   5.929 -0.2132  0.1181  0.1861
 1722ETH     CH15492   4.906   0.533   5.871 -0.2405  0.5469  0.0522
 1722ETH     HO15493   4.680   0.659   6.057 -0.3452 -1.8412 -0.5240
 1722ETH     HC15494   4.736   0.445   5.968  0.7800  0.0283  0.7405
 1722ETH     HC15495   4.699   0.556   5.845  2.5506  0.6718 -1.9751
 1722ETH     HC15496   4.899   0.446   5.805 -0.6391  0.7918 -0.2283
 1722ETH     HC15497   4.936   0.625   5.821  0.1850 -1.4159 -3.5012
 1722ETH     HC15498   4.982   0.517   5.948 -0.8223  3.8526  1.4004
 1723ETH     OH15499   2.107   6.121   2.277 -0.4774  0.3974  0.3271
 1723ETH     CH15500   2.085   5.985   2.307  0.0252  0.2360 -0.0326
 1723ETH     CH15501   1.937   5.945   2.306  0.0825  0.0241 -0.0908
 1723ETH     HO15502   2.057   6.172   2.339 -2.1762 -0.9515  0.1147
 1723ETH     HC15503   2.141   5.927   2.233  1.3089  0.3515  0.8270
 1723ETH     HC15504   2.135   5.962   2.401 -0.8854  0.2776  0.4644
 1723ETH     HC15505   1.915   5.947   2.199  0.8492  0.4387 -0.2486
 1723ETH     HC15506   1.930   5.840   2.335 -0.4053  0.4260  1.2430
 1723ETH     HC15507   1.883   6.013   2.371  0.3124 -0.4069  0.5488
 1724ETH     OH15508   0.521   3.943   3.289  0.5052  0.0110 -0.5017
 1724ETH     CH15509   0.550   4.025   3.400 -0.0727  0.4516 -0.6709
 1724ETH     CH15510   0.493   4.166   3.386 -1.2019  0.1194  0.4906
 1724ETH     HO15511   0.570   3.984   3.219 -0.0674  2.5669  0.5345
 1724ETH     HC15512   0.497   3.986   3.487  2.5880  0.5756  1.0868
 1724ETH     HC15513   0.657   4.025   3.423 -0.2631 -0.0626  0.2676
 1724ETH     HC15514   0.505   4.222   3.479  2.5135  1.3815 -0.6443
 1724ETH     HC15515   0.539   4.223   3.306  0.5185 -1.7857  0.0636
 1724ETH     HC15516   0.386   4.167   3.368 -0.8063 -0.7198 -2.1467
 1725ETH     OH15517   2.075   3.982   5.246  0.1565 -0.0026 -0.2013
 1725ETH     CH15518   2.043   3.964   5.382  0.1996 -0.1206 -0.2057
 1725ETH     CH15519   2.126   3.852   5.444  0.1641 -0.0052  0.0507
 1725ETH     HO15520   2.025   3.915   5.202 -0.2184 -0.9148  1.6008
 1725ETH     HC15521   2.064   4.052   5.442  3.1463 -0.6748 -0.3808
 1725ETH     HC15522   1.935   3.946   5.387  0.3036 -0.6974  0.0351
 1725ETH     HC15523   2.093   3.754   5.409  0.3317 -0.2364  0.5454
 1725ETH     HC15524   2.234   3.868   5.442  0.3181 -0.8151  1.3691
 1725ETH     HC15525   2.106   3.851   5.551 -1.3596 -2.7960 -0.2221
 1726ETH     OH15526   3.753   5.177   4.031  0.0495  0.4379 -0.0885
 1726ETH     CH15527   3.737   5.044   3.988  0.4747  0.1732  0.5764
 1726ETH     CH15528   3.756   4.936   4.095  0.2229 -0.2451  0.2022
 1726ETH     HO15529   3.845   5.199   4.025 -0.1074  1.3024  0.5498
 1726ETH     HC15530   3.636   5.023   3.952  0.8650 -0.1791 -0.3129
 1726ETH     HC15531   3.808   5.023   3.908  0.3316 -0.1447  0.5318
 1726ETH     HC15532   3.735   4.838   4.053 -1.4105  0.9650 -1.9011
 1726ETH     HC15533   3.857   4.949   4.136  0.6154 -0.0070 -0.8417
 1726ETH     HC15534   3.683   4.951   4.175  0.6762  0.2249  0.5405
 1727ETH     OH15535   0.500   2.325   3.583 -0.0442  0.0204  0.2877
 1727ETH     CH15536   0.375   2.259   3.573  0.0597 -0.0909 -0.3531
 1727ETH     CH15537   0.268   2.349   3.512 -0.1152 -0.1798 -0.1802
 1727ETH     HO15538   0.566   2.262   3.557  0.7491  2.1815 -3.2656
 1727ETH     HC15539   0.381   2.153   3.549 -0.5685 -0.3698  0.6849
 1727ETH     HC15540   0.358   2.258   3.681  2.0637  4.1311  0.1058
 1727ETH     HC15541   0.164   2.317   3.515  0.3073 -1.6120 -0.1481
 1727ETH     HC15542   0.265   2.434   3.580  0.3020 -0.4624  0.1978
 1727ETH     HC15543   0.291   2.362   3.406 -3.9700  0.8891 -0.9725
 1728ETH     OH15544   0.675   0.645   1.988  0.0892  0.2156  0.1553
 1728ETH     CH15545   0.675   0.507   1.959  0.5778  0.1461  0.4787
 1728ETH     CH15546   0.798   0.444   2.023  0.5767  0.2799  0.6140
 1728ETH     HO15547   0.690   0.654   2.081 -2.2134 -1.2210  0.7061
 1728ETH     HC15548   0.585   0.472   2.009 -0.4803  2.3583  0.1897
 1728ETH     HC15549   0.665   0.488   1.852 -3.1030 -0.7176  0.9278
 1728ETH     HC15550   0.800   0.473   2.128 -0.1756 -0.4250  0.8258
 1728ETH     HC15551   0.793   0.335   2.015 -1.0333  0.4852 -1.4536
 1728ETH     HC15552   0.887   0.466   1.963 -0.0890  1.0725 -0.0857
 1729ETH     OH15553   2.223   4.147   5.080  0.1029 -0.2403  0.1001
 1729ETH     CH15554   2.305   4.049   5.020  0.3361 -0.1143  0.2124
 1729ETH     CH15555   2.237   3.973   4.907  0.4122  0.3879 -0.1723
 1729ETH     HO15556   2.168   4.096   5.138 -1.4280  0.7351 -0.4686
 1729ETH     HC15557   2.391   4.095   4.971  0.8934 -0.0037  1.2679
 1729ETH     HC15558   2.339   3.977   5.095  0.1338  0.1529  0.5669
 1729ETH     HC15559   2.284   3.885   4.864 -1.9062 -0.3081 -1.4064
 1729ETH     HC15560   2.142   3.941   4.950  0.5752  0.7433  0.4625
 1729ETH     HC15561   2.221   4.048   4.829 -1.5781 -1.2749 -1.4265
 1730ETH     OH15562   1.980   3.936   3.026  0.0622  0.0099 -0.0790
 1730ETH     CH15563   1.986   4.064   3.085  0.6159  0.0650 -0.2592
 1730ETH     CH15564   1.956   4.180   2.989 -0.3679 -0.0061 -0.0326
 1730ETH     HO15565   2.056   3.892   3.061 -0.3512 -0.3448  0.3905
 1730ETH     HC15566   1.901   4.060   3.153 -0.7522  0.2689 -1.9210
 1730ETH     HC15567   2.081   4.076   3.138  0.2399 -1.4151  0.7530
 1730ETH     HC15568   1.923   4.269   3.042 -1.3147 -0.2745 -0.1533
 1730ETH     HC15569   2.039   4.195   2.921 -1.9507  1.0796 -1.7439
 1730ETH     HC15570   1.869   4.144   2.934 -0.2854 -0.1037 -0.0998
 1731ETH     OH15571   4.379   5.479   5.661 -0.2176  0.1884 -0.1602
 1731ETH     CH15572   4.519   5.469   5.667 -0.2172  0.0406 -0.4379
 1731ETH     CH15573   4.551   5.403   5.801  0.0739 -0.2340 -0.6411
 1731ETH     HO15574   4.338   5.522   5.735 -2.8041 -1.5005 -0.5170
 1731ETH     HC15575   4.559   5.404   5.589 -0.7379 -2.4385  1.2965
 1731ETH     HC15576   4.563   5.568   5.667 -0.7200  0.2693 -0.9438
 1731ETH     HC15577   4.509   5.302   5.809 -0.8840  0.2731  0.7775
 1731ETH     HC15578   4.659   5.399   5.811  0.0341 -1.6190 -0.6089
 1731ETH     HC15579   4.542   5.465   5.890 -0.4553  0.7558 -1.3768
 1732ETH     OH15580   5.437   2.352   1.930  0.0867 -0.0996  0.9791
 1732ETH     CH15581   5.325   2.422   1.882  0.3960  0.0844  0.5288
 1732ETH     CH15582   5.361   2.570   1.896 -0.2417  0.2367  0.5519
 1732ETH     HO15583   5.440   2.272   1.880 -2.7824 -0.4918  1.3860
 1732ETH     HC15584   5.300   2.394   1.780 -1.3202 -1.6847  1.4189
 1732ETH     HC15585   5.230   2.409   1.933 -0.0323 -3.3776 -0.9936
 1732ETH     HC15586   5.272   2.633   1.885 -0.2703 -0.0403 -0.8933
 1732ETH     HC15587   5.401   2.594   1.995 -0.3088  0.7740  0.4536
 1732ETH     HC15588   5.444   2.588   1.828 -0.8389  1.7381  0.1865
 1733ETH     OH15589   0.227   4.446   0.890 -0.0892  0.4027  0.0216
 1733ETH     CH15590   0.158   4.436   1.013 -0.1499  0.1437 -0.0316
 1733ETH     CH15591   0.057   4.549   1.036 -0.0624  0.2474 -0.1561
 1733ETH     HO15592   0.243   4.358   0.858 -1.7696  0.6769 -1.6409
 1733ETH     HC15593   0.110   4.339   1.015 -0.9741  0.5267 -0.8692
 1733ETH     HC15594   0.226   4.429   1.098  0.4843 -0.6596 -0.5957
 1733ETH     HC15595   0.018   4.548   1.137  2.0280 -2.3256  0.6894
 1733ETH     HC15596   0.106   4.646   1.031 -1.4185  0.9213 -0.5149
 1733ETH     HC15597  -0.015   4.551   0.954  0.0218  1.2203 -0.2146
 1734ETH     OH15598   0.090   0.993   4.839  0.1831 -0.3378  0.0660
 1734ETH     CH15599   0.083   1.038   4.706 -0.1542 -0.4245  0.0525
 1734ETH     CH15600  -0.012   1.158   4.702  0.0696 -0.2491  0.0307
 1734ETH     HO15601   0.173   0.948   4.839  0.6950  0.5769 -1.9665
 1734ETH     HC15602   0.179   1.082   4.679 -2.2358  4.1556 -0.3905
 1734ETH     HC15603   0.055   0.966   4.629  2.2491  0.3684 -1.6205
 1734ETH     HC15604  -0.084   1.141   4.782 -0.0160 -0.0798 -0.0119
 1734ETH     HC15605   0.052   1.245   4.722 -0.7342  0.7726 -1.7284
 1734ETH     HC15606  -0.063   1.180   4.609 -1.0418  1.1490  0.9441
 1735ETH     OH15607   0.597   4.618   4.050  0.3242 -0.3852  0.0279
 1735ETH     CH15608   0.617   4.552   3.927  0.5938 -0.0638 -0.0994
 1735ETH     CH15609   0.582   4.405   3.949 -0.3948  0.2691  0.5881
 1735ETH     HO15610   0.590   4.711   4.033 -0.1122 -0.7385 -1.8117
 1735ETH     HC15611   0.563   4.594   3.842  1.5789  1.8462  0.1856
 1735ETH     HC15612   0.722   4.561   3.899  1.1475 -0.4754  1.7813
 1735ETH     HC15613   0.487   4.390   4.000  0.1956 -0.2504  1.5472
 1735ETH     HC15614   0.574   4.350   3.855  0.2813 -1.2827  1.4312
 1735ETH     HC15615   0.647   4.361   4.024 -0.5342  0.1074  0.6139
 1736ETH     OH15616   0.978   4.348   2.124  0.0345  0.1800 -0.1119
 1736ETH     CH15617   0.954   4.487   2.127 -0.1938  0.1261  0.5769
 1736ETH     CH15618   1.075   4.576   2.157  0.0886 -0.0480 -0.0276
 1736ETH     HO15619   1.054   4.335   2.069  0.2042  0.3230  0.0855
 1736ETH     HC15620   0.916   4.500   2.026  0.5395  2.5965  0.5720
 1736ETH     HC15621   0.875   4.498   2.201 -1.1827 -2.2989 -0.0855
 1736ETH     HC15622   1.136   4.593   2.068  2.1758 -1.4989  1.0907
 1736ETH     HC15623   1.046   4.678   2.182  0.2852 -0.7425  3.2523
 1736ETH     HC15624   1.131   4.534   2.240 -0.8439  1.4312  1.3940
 1737ETH     OH15625   2.450   0.533   5.322 -0.0346 -0.2202 -0.5435
 1737ETH     CH15626   2.506   0.607   5.216  0.1349  0.0671 -0.2516
 1737ETH     CH15627   2.387   0.638   5.126  0.1610 -0.2460 -0.3936
 1737ETH     HO15628   2.414   0.453   5.286 -1.2581  0.2836 -0.4526
 1737ETH     HC15629   2.573   0.688   5.247  2.7435 -2.2451  0.3234
 1737ETH     HC15630   2.573   0.533   5.171 -1.8489 -0.4457 -2.4609
 1737ETH     HC15631   2.428   0.649   5.026 -1.1032 -0.3595 -0.9439
 1737ETH     HC15632   2.312   0.559   5.117 -0.9777  0.7897 -0.1606
 1737ETH     HC15633   2.341   0.736   5.139  0.8642  0.0723 -0.3254
 1738ETH     OH15634   6.231   3.727   0.317 -0.0050  0.5497 -0.2665
 1738ETH     CH15635   6.164   3.839   0.371 -0.5203 -0.0179  0.2878
 1738ETH     CH15636   6.247   3.871   0.495 -0.1210 -0.3679  0.1113
 1738ETH     HO15637   6.301   3.750   0.257 -0.2284  1.1016 -0.3237
 1738ETH     HC15638   6.168   3.916   0.293 -1.1797  0.0742  0.3460
 1738ETH     HC15639   6.060   3.817   0.395 -1.4393  2.3235 -1.2910
 1738ETH     HC15640   6.352   3.888   0.470  0.2775 -0.8340  1.4491
 1738ETH     HC15641   6.211   3.955   0.554  0.3687  0.1087 -0.2638
 1738ETH     HC15642   6.236   3.790   0.568 -0.1982 -0.6867 -0.2513
 1739ETH     OH15643   1.262   4.164   2.178  0.0944 -0.0274 -0.0014
 1739ETH     CH15644   1.299   4.079   2.072  0.1305  0.4894 -0.4074
 1739ETH     CH15645   1.440   4.110   2.021  0.3472 -0.0931 -0.1778
 1739ETH     HO15646   1.172   4.149   2.204 -0.0316  0.2279 -0.2816
 1739ETH     HC15647   1.286   3.980   2.117  1.4832  0.4983  0.0455
 1739ETH     HC15648   1.229   4.094   1.991 -1.2357 -1.4794  0.3664
 1739ETH     HC15649   1.502   4.071   2.102 -0.8708  0.0557  0.8471
 1739ETH     HC15650   1.466   4.065   1.926 -0.0522  0.9775 -0.8105
 1739ETH     HC15651   1.458   4.217   2.012 -0.3761  0.2193  1.8204
 1740ETH     OH15652   0.646   5.511   1.382  0.3772  0.2321  0.3830
 1740ETH     CH15653   0.660   5.639   1.441  1.3240  0.3193 -0.0152
 1740ETH     CH15654   0.622   5.748   1.340  0.1798 -0.2884 -0.2569
 1740ETH     HO15655   0.662   5.445   1.448 -2.2633 -2.4837 -1.5775
 1740ETH     HC15656   0.585   5.640   1.520  1.7780 -1.9172  0.4839
 1740ETH     HC15657   0.759   5.657   1.483  2.1836  2.6869 -2.8889
 1740ETH     HC15658   0.622   5.844   1.393 -1.2948 -0.5784  0.2911
 1740ETH     HC15659   0.709   5.765   1.276 -0.7649  0.6507 -1.3003
 1740ETH     HC15660   0.527   5.735   1.289 -0.0964  1.5252 -0.2200
 1741ETH     OH15661   4.092   0.411   1.506 -0.4032  0.2039  0.5100
 1741ETH     CH15662   4.163   0.532   1.496 -0.2641  0.0950  0.1906
 1741ETH     CH15663   4.298   0.533   1.568 -0.2478 -0.1740  0.1652
 1741ETH     HO15664   4.157   0.351   1.472 -1.8376 -1.1972  0.1966
 1741ETH     HC15665   4.172   0.549   1.388 -1.4056 -1.8905 -0.2452
 1741ETH     HC15666   4.102   0.620   1.518 -1.4081 -0.1612 -1.7646
 1741ETH     HC15667   4.366   0.451   1.549 -2.6255 -2.4477  1.0911
 1741ETH     HC15668   4.362   0.620   1.555 -0.6447 -0.0449 -0.9553
 1741ETH     HC15669   4.273   0.529   1.674  2.4576  4.1490  1.0735
 1742ETH     OH15670   0.383   3.368   3.020  0.0469 -0.3307 -0.0657
 1742ETH     CH15671   0.245   3.393   3.018  0.0065 -0.5326  0.1976
 1742ETH     CH15672   0.224   3.544   3.008  0.0774 -0.5125  0.3568
 1742ETH     HO15673   0.406   3.345   3.109 -1.5641  2.3606  1.0870
 1742ETH     HC15674   0.217   3.356   2.919 -0.1119 -0.9943  0.3996
 1742ETH     HC15675   0.183   3.339   3.090 -0.0538 -4.2792 -2.5526
 1742ETH     HC15676   0.250   3.604   3.096 -0.4666 -1.4916  1.2036
 1742ETH     HC15677   0.272   3.578   2.916 -0.3613 -1.8916 -0.3953
 1742ETH     HC15678   0.119   3.565   2.990 -0.1788 -0.4855  1.8067
 1743ETH     OH15679   2.793   0.894   2.210 -0.2184 -0.5497  0.3337
 1743ETH     CH15680   2.778   0.829   2.086  0.4274  0.0732 -0.0720
 1743ETH     CH15681   2.845   0.910   1.975 -0.0821  0.0736 -0.3813
 1743ETH     HO15682   2.740   0.972   2.201 -0.7295 -0.7356  1.6068
 1743ETH     HC15683   2.821   0.732   2.109 -0.4044 -0.1709  0.4858
 1743ETH     HC15684   2.672   0.818   2.063  0.4003 -0.3743  0.2723
 1743ETH     HC15685   2.945   0.941   2.005 -1.0620  0.5665  2.5190
 1743ETH     HC15686   2.838   0.854   1.882 -1.4941 -0.7071  0.1822
 1743ETH     HC15687   2.788   1.000   1.952  4.1010  3.0288  0.2272
 1744ETH     OH15688   4.932   2.962   3.648 -0.3939  0.2970 -0.2464
 1744ETH     CH15689   4.907   2.941   3.785 -0.3427 -0.2209 -0.3160
 1744ETH     CH15690   4.936   2.800   3.834 -0.2078 -0.0842 -0.0080
 1744ETH     HO15691   4.895   3.045   3.622 -0.0044  0.7050  0.4803
 1744ETH     HC15692   4.972   3.010   3.839  0.2742 -0.6157 -0.5475
 1744ETH     HC15693   4.802   2.960   3.808 -0.9090 -1.6532 -1.5823
 1744ETH     HC15694   5.024   2.749   3.793 -1.8720 -2.7779 -0.3804
 1744ETH     HC15695   4.967   2.796   3.939  1.9933 -2.8789 -0.6868
 1744ETH     HC15696   4.860   2.725   3.811 -0.5566 -0.0290  0.9255
 1745ETH     OH15697   3.537   5.162   2.050 -0.1674  0.2523 -0.0024
 1745ETH     CH15698   3.435   5.253   2.080 -0.2112  0.1007  0.3095
 1745ETH     CH15699   3.352   5.265   1.952 -0.7030 -0.0939  0.6100
 1745ETH     HO15700   3.606   5.168   2.114 -0.6324  2.3036  0.3377
 1745ETH     HC15701   3.368   5.240   2.165  0.2563  1.3306  0.8833
 1745ETH     HC15702   3.488   5.347   2.097  4.0547 -1.7183 -2.2725
 1745ETH     HC15703   3.407   5.323   1.878 -1.6198  0.7492  0.5743
 1745ETH     HC15704   3.332   5.167   1.909  1.7570 -0.4816  0.2858
 1745ETH     HC15705   3.254   5.302   1.983 -1.6616 -0.6486 -1.6995
 1746ETH     OH15706   2.354   2.431   1.741 -0.3002  0.1969 -0.3279
 1746ETH     CH15707   2.222   2.427   1.792 -0.3881  0.2679 -0.5472
 1746ETH     CH15708   2.223   2.322   1.903  0.1647  0.9579  0.1085
 1746ETH     HO15709   2.413   2.466   1.806  0.8427 -2.6053  0.2074
 1746ETH     HC15710   2.180   2.523   1.823 -0.8188  0.2167 -0.9726
 1746ETH     HC15711   2.159   2.401   1.708 -2.0537  1.8309  0.1822
 1746ETH     HC15712   2.125   2.288   1.937  0.5939 -0.5297 -0.1268
 1746ETH     HC15713   2.272   2.234   1.862 -1.9265  1.1240 -2.8688
 1746ETH     HC15714   2.277   2.351   1.994 -1.2679  0.7196  1.0630
 1747ETH     OH15715   3.211   0.691   5.134  0.3482 -0.5148 -0.0541
 1747ETH     CH15716   3.090   0.733   5.076  0.5376  0.2084  0.0736
 1747ETH     CH15717   3.097   0.714   4.924 -0.6594 -0.7720  0.1269
 1747ETH     HO15718   3.279   0.749   5.102  1.0089  1.2640  4.2884
 1747ETH     HC15719   3.005   0.672   5.108 -0.3117  2.1578  1.6810
 1747ETH     HC15720   3.069   0.840   5.087 -1.7591 -0.1919 -0.2015
 1747ETH     HC15721   3.021   0.781   4.883 -0.1366 -1.6993 -2.4573
 1747ETH     HC15722   3.183   0.766   4.881  0.6906 -0.9150  2.5558
 1747ETH     HC15723   3.090   0.609   4.896 -0.3702 -0.1880 -2.1858
 1748ETH     OH15724   5.388   5.221   3.407 -0.1387 -0.4997  0.2172
 1748ETH     CH15725   5.379   5.097   3.342  0.2398 -0.0730 -0.6623
 1748ETH     CH15726   5.453   4.985   3.416 -0.1940  0.0559 -0.0261
 1748ETH     HO15727   5.318   5.227   3.471  0.6207 -1.7936  1.1653
 1748ETH     HC15728   5.271   5.081   3.341 -0.0397  1.4845  1.5513
 1748ETH     HC15729   5.417   5.097   3.240 -1.4903 -0.9861 -1.3142
 1748ETH     HC15730   5.450   4.881   3.383  1.5909  0.1219 -0.4852
 1748ETH     HC15731   5.561   4.998   3.423 -0.2455  0.5849 -0.1985
 1748ETH     HC15732   5.420   4.984   3.520 -1.4559 -0.8660 -0.4178
 1749ETH     OH15733   3.947   4.555   6.041 -0.1686 -0.2007  0.2523
 1749ETH     CH15734   3.848   4.568   5.942 -0.0727 -0.6909  0.0888
 1749ETH     CH15735   3.750   4.461   5.991 -0.0257 -0.5240  0.5543
 1749ETH     HO15736   4.026   4.605   6.025  1.8449 -2.9314  1.2226
 1749ETH     HC15737   3.793   4.662   5.956  1.2725 -0.1737  1.9935
 1749ETH     HC15738   3.890   4.567   5.842 -2.1948 -1.6108 -0.8399
 1749ETH     HC15739   3.787   4.360   5.979  1.0357 -0.1034  0.2428
 1749ETH     HC15740   3.724   4.474   6.096 -0.4774  1.5599  0.2135
 1749ETH     HC15741   3.659   4.465   5.931 -0.9279 -0.6995  1.8850
 1750ETH     OH15742   5.647   2.927   3.868 -0.0435 -0.4136 -0.5968
 1750ETH     CH15743   5.612   3.039   3.945 -0.3156 -0.2857 -0.9075
 1750ETH     CH15744   5.603   3.157   3.847  0.0617 -0.0384 -0.6462
 1750ETH     HO15745   5.568   2.917   3.817 -0.2148  0.8320 -0.5883
 1750ETH     HC15746   5.517   3.020   3.995  0.0740  0.8911  0.3183
 1750ETH     HC15747   5.690   3.050   4.019 -0.9626 -2.3773  0.1082
 1750ETH     HC15748   5.700   3.175   3.803  1.7481  0.3672  3.0565
 1750ETH     HC15749   5.524   3.125   3.779 -1.4976  1.5121  0.3757
 1750ETH     HC15750   5.571   3.243   3.907  0.3188  0.3084 -1.0087
 1751ETH     OH15751   5.957   2.535   5.818  0.0406 -0.5470 -0.4836
 1751ETH     CH15752   6.091   2.530   5.777  0.2028  0.0091 -0.0283
 1751ETH     CH15753   6.200   2.513   5.883 -0.7167 -0.7056  0.8107
 1751ETH     HO15754   5.935   2.452   5.859 -0.6538 -1.5515 -2.7999
 1751ETH     HC15755   6.096   2.447   5.706  0.2977  1.6783 -2.0485
 1751ETH     HC15756   6.106   2.617   5.713  0.4377 -1.1695 -1.6169
 1751ETH     HC15757   6.197   2.419   5.937  1.6085 -0.7320  0.9627
 1751ETH     HC15758   6.294   2.498   5.829 -1.6421 -1.3660 -0.6650
 1751ETH     HC15759   6.218   2.596   5.951 -0.0698  0.0137 -0.2032
 1752ETH     OH15760   5.721   3.217   4.763  0.0797 -0.8221  0.2252
 1752ETH     CH15761   5.849   3.157   4.759  0.5801  0.2479  0.1052
 1752ETH     CH15762   5.949   3.273   4.765  0.4544  0.3730 -0.2300
 1752ETH     HO15763   5.668   3.182   4.692 -0.1806 -0.2654  0.1431
 1752ETH     HC15764   5.856   3.085   4.840  1.4432  2.1401  1.7758
 1752ETH     HC15765   5.852   3.108   4.662 -0.1978 -2.4798  1.4158
 1752ETH     HC15766   5.951   3.329   4.672  2.0858  0.2179 -0.3104
 1752ETH     HC15767   5.922   3.345   4.841  1.7599  0.5391  0.0930
 1752ETH     HC15768   6.051   3.236   4.777 -0.0394 -0.4080  1.6871
 1753ETH     OH15769   3.972   3.151   1.737  0.1036  0.2024  0.3491
 1753ETH     CH15770   3.832   3.159   1.723  0.1034  0.1473  0.3189
 1753ETH     CH15771   3.766   3.021   1.710  0.0340  0.1757  0.3688
 1753ETH     HO15772   4.003   3.130   1.650 -0.7433  1.0422 -0.1690
 1753ETH     HC15773   3.785   3.217   1.803 -1.0085 -0.7907  0.3645
 1753ETH     HC15774   3.827   3.215   1.630 -0.3677  0.1242  0.3298
 1753ETH     HC15775   3.840   2.958   1.661 -1.1738 -0.5662 -0.5188
 1753ETH     HC15776   3.759   2.978   1.810  1.3201 -1.6420 -0.2903
 1753ETH     HC15777   3.670   3.025   1.658 -0.5390 -0.2863  1.3870
 1754ETH     OH15778   2.383   1.486   5.110 -0.0305  0.1479  0.1908
 1754ETH     CH15779   2.441   1.364   5.150  0.2526  0.1971 -0.0651
 1754ETH     CH15780   2.543   1.323   5.044 -0.0563 -0.1461 -0.2280
 1754ETH     HO15781   2.352   1.468   5.022  1.8644 -0.3245 -0.4076
 1754ETH     HC15782   2.490   1.377   5.246 -1.6921  0.3992  0.9324
 1754ETH     HC15783   2.366   1.287   5.167 -0.2176  0.4656 -0.8619
 1754ETH     HC15784   2.488   1.270   4.966 -1.7915  0.2073  0.7249
 1754ETH     HC15785   2.599   1.402   4.994 -0.2534 -1.9857 -3.5174
 1754ETH     HC15786   2.613   1.251   5.087 -0.2448 -0.1904  0.0050
 1755ETH     OH15787   5.507   1.236   3.316  0.2176 -0.1567  0.3588
 1755ETH     CH15788   5.590   1.338   3.264 -0.1920 -0.1677 -0.3178
 1755ETH     CH15789   5.509   1.467   3.260 -0.1170 -0.1094  0.0429
 1755ETH     HO15790   5.430   1.238   3.262 -0.7240 -0.6130  1.6740
 1755ETH     HC15791   5.676   1.361   3.327  1.6740 -0.1124 -2.7711
 1755ETH     HC15792   5.635   1.298   3.173  0.7848  2.5093 -1.0589
 1755ETH     HC15793   5.458   1.485   3.355  0.6281 -0.8465  0.5819
 1755ETH     HC15794   5.578   1.551   3.249 -1.0216  0.3059 -2.9166
 1755ETH     HC15795   5.443   1.470   3.173  2.2196  0.4120 -1.7763
 1756ETH     OH15796   5.794   5.520   4.466  0.1098  0.0635 -0.3837
 1756ETH     CH15797   5.931   5.542   4.439  0.3745 -0.4518  0.5180
 1756ETH     CH15798   5.969   5.545   4.290  0.2169 -0.0388  0.4866
 1756ETH     HO15799   5.758   5.436   4.444  0.2761  0.5337 -2.6432
 1756ETH     HC15800   5.961   5.636   4.486  0.1070  1.0295 -2.1599
 1756ETH     HC15801   5.982   5.463   4.494  1.9838 -0.0207 -0.3124
 1756ETH     HC15802   6.067   5.588   4.271 -0.4723  0.4367 -2.0991
 1756ETH     HC15803   5.966   5.452   4.234  0.3741 -0.6402  1.4637
 1756ETH     HC15804   5.917   5.627   4.240 -1.6159 -1.7195 -0.4588
 1757ETH     OH15805   1.238   3.296   1.546  0.0259  0.1789  0.0594
 1757ETH     CH15806   1.351   3.360   1.600 -0.2751  0.3056  0.5406
 1757ETH     CH15807   1.326   3.509   1.576 -0.9162  0.0684 -0.2809
 1757ETH     HO15808   1.234   3.212   1.588  1.6974  0.2754  0.4292
 1757ETH     HC15809   1.446   3.339   1.551 -0.9536  1.7868 -1.4968
 1757ETH     HC15810   1.357   3.337   1.706 -0.8662  1.3424  0.8113
 1757ETH     HC15811   1.400   3.568   1.630 -0.9513  0.3359 -0.5236
 1757ETH     HC15812   1.335   3.532   1.469  0.6707  0.1049 -0.1505
 1757ETH     HC15813   1.229   3.535   1.617 -0.9107 -1.2421  0.5750
 1758ETH     OH15814   4.544   0.798   2.199  0.0494 -0.1315  0.4780
 1758ETH     CH15815   4.412   0.786   2.151  0.2943  0.1321 -0.2744
 1758ETH     CH15816   4.420   0.705   2.022 -0.5086  0.1978 -0.3681
 1758ETH     HO15817   4.559   0.886   2.231  0.2336 -1.4084  4.1388
 1758ETH     HC15818   4.335   0.750   2.219 -0.8532  0.5555 -1.3272
 1758ETH     HC15819   4.376   0.885   2.123  1.7602  0.4373 -1.0976
 1758ETH     HC15820   4.467   0.613   2.057  0.7818  1.0170  0.0491
 1758ETH     HC15821   4.320   0.692   1.979 -0.1798 -1.8610 -0.5656
 1758ETH     HC15822   4.488   0.758   1.956 -0.7416  0.1111 -0.6808
 1759ETH     OH15823   1.824   5.593   4.273 -0.3605  0.1477 -0.2579
 1759ETH     CH15824   1.710   5.523   4.318 -0.1527 -0.0980 -0.1068
 1759ETH     CH15825   1.753   5.377   4.334 -0.4900 -0.1859 -0.0080
 1759ETH     HO15826   1.839   5.576   4.182 -2.9914  1.9804 -1.0794
 1759ETH     HC15827   1.672   5.574   4.406 -0.5660 -1.5358  0.5671
 1759ETH     HC15828   1.629   5.541   4.248 -1.1226  0.9447  1.2517
 1759ETH     HC15829   1.802   5.330   4.249  4.0109  1.6910  1.3864
 1759ETH     HC15830   1.824   5.357   4.414  1.0311  2.1969 -0.7029
 1759ETH     HC15831   1.664   5.320   4.361 -1.2154 -0.0051 -1.9856
 1760ETH     OH15832   3.934   3.880   2.313 -0.8232 -0.3507  0.7695
 1760ETH     CH15833   4.027   3.882   2.419  0.0647 -0.1993 -0.0030
 1760ETH     CH15834   4.136   3.784   2.377  0.3519 -0.2034  0.7364
 1760ETH     HO15835   3.986   3.885   2.234 -0.8165  1.5156  0.8526
 1760ETH     HC15836   4.061   3.984   2.439 -1.6528  1.0458 -3.1315
 1760ETH     HC15837   3.981   3.847   2.512  0.7900 -3.5458 -0.8431
 1760ETH     HC15838   4.096   3.689   2.342 -0.9410  0.2298  1.0045
 1760ETH     HC15839   4.190   3.826   2.292  2.0203 -0.3876  1.6858
 1760ETH     HC15840   4.224   3.762   2.437  1.1252 -1.8306 -0.9346
 1761ETH     OH15841   4.004   4.805   5.514  1.0858 -0.6140 -0.2982
 1761ETH     CH15842   4.018   4.897   5.408 -0.0527  0.0361  0.1085
 1761ETH     CH15843   3.909   5.004   5.417  0.1539  0.2929 -0.3702
 1761ETH     HO15844   3.914   4.779   5.520  0.6297  1.1390  0.6690
 1761ETH     HC15845   4.115   4.945   5.418  0.2943 -0.2711 -1.5396
 1761ETH     HC15846   4.010   4.838   5.317  1.3872 -1.3466  0.8565
 1761ETH     HC15847   3.914   5.059   5.511 -1.2951  1.1017 -0.7506
 1761ETH     HC15848   3.928   5.074   5.336  1.3583  0.2799 -0.1102
 1761ETH     HC15849   3.808   4.966   5.407 -1.5827  4.4024  0.4731
 1762ETH     OH15850   2.922   2.979   4.068  0.4935 -0.4047 -0.4802
 1762ETH     CH15851   2.887   3.113   4.094  0.0590 -0.8974  1.4852
 1762ETH     CH15852   2.734   3.124   4.093  0.1012 -0.4418 -0.0417
 1762ETH     HO15853   3.015   2.966   4.076  0.6054  0.5705 -0.0914
 1762ETH     HC15854   2.916   3.139   4.196 -0.8073  1.8208  1.0776
 1762ETH     HC15855   2.947   3.174   4.026 -1.6771  3.1568  3.3736
 1762ETH     HC15856   2.692   3.097   3.996 -0.0905 -0.5684  0.0748
 1762ETH     HC15857   2.684   3.065   4.169  0.9596  0.6280  1.3752
 1762ETH     HC15858   2.698   3.226   4.109 -0.9159 -1.2223  2.8427
 1763ETH     OH15859   2.727   3.711   4.120  0.0187  0.0428  0.3676
 1763ETH     CH15860   2.618   3.621   4.119 -0.2454  0.3545  0.6959
 1763ETH     CH15861   2.623   3.522   4.236  0.7216 -0.0375  0.3275
 1763ETH     HO15862   2.746   3.744   4.034  3.6529  0.6645  1.3420
 1763ETH     HC15863   2.530   3.685   4.122 -0.3138  0.2562  0.8352
 1763ETH     HC15864   2.623   3.559   4.030  0.2883  0.7381  0.4534
 1763ETH     HC15865   2.710   3.458   4.217  1.2148  0.4748  0.8674
 1763ETH     HC15866   2.643   3.566   4.333  0.5106  0.0632  0.3261
 1763ETH     HC15867   2.546   3.445   4.228  1.0422 -0.3654  0.3371
 1764ETH     OH15868   5.778   3.419   1.706 -0.3277  0.1457 -0.1875
 1764ETH     CH15869   5.768   3.558   1.690  0.0509  0.2207  0.2065
 1764ETH     CH15870   5.663   3.625   1.778  0.3146  0.5705  0.2591
 1764ETH     HO15871   5.848   3.389   1.650  1.7211  1.2870  1.6840
 1764ETH     HC15872   5.865   3.592   1.728 -0.3165  1.5074  0.0152
 1764ETH     HC15873   5.771   3.585   1.584  3.2772 -1.0084 -0.0832
 1764ETH     HC15874   5.564   3.594   1.743  0.2017  1.4095 -0.1982
 1764ETH     HC15875   5.668   3.582   1.877  0.1600  1.6361  0.7369
 1764ETH     HC15876   5.684   3.732   1.780  1.9389  0.2608  0.2234
 1765ETH     OH15877   3.481   5.955   3.687 -0.1483 -0.1160  0.1025
 1765ETH     CH15878   3.432   5.965   3.555  0.1781 -0.0767 -0.0177
 1765ETH     CH15879   3.454   5.831   3.486 -0.0648  0.2384 -0.7088
 1765ETH     HO15880   3.420   6.002   3.741  0.3125 -0.8196  1.2492
 1765ETH     HC15881   3.328   5.998   3.565 -0.5294 -2.0797 -0.4967
 1765ETH     HC15882   3.472   6.041   3.489  1.2420 -0.9188 -0.3542
 1765ETH     HC15883   3.372   5.801   3.420 -0.3059  0.0036 -0.3020
 1765ETH     HC15884   3.537   5.839   3.415  0.9596  1.4351  0.5995
 1765ETH     HC15885   3.476   5.752   3.558  2.8797  1.8586  0.2467
 1766ETH     OH15886   5.396   6.192   3.707  0.0364  0.6873  0.3090
 1766ETH     CH15887   5.366   6.169   3.843  0.0275 -0.1210  0.1754
 1766ETH     CH15888   5.438   6.044   3.894  0.0003  0.0289  0.5759
 1766ETH     HO15889   5.396   6.109   3.661  0.6893 -0.1754  1.8046
 1766ETH     HC15890   5.392   6.263   3.892 -0.1629  0.6099 -1.1066
 1766ETH     HC15891   5.264   6.143   3.870 -0.4872 -1.2898 -2.7350
 1766ETH     HC15892   5.422   6.048   4.002  3.7993 -1.8543  1.2756
 1766ETH     HC15893   5.397   5.950   3.855  1.6801 -0.9456  1.1282
 1766ETH     HC15894   5.546   6.046   3.881  0.0722 -0.7507  0.9948
 1767ETH     OH15895   3.553   5.630   4.561  0.2256 -0.4512  0.2835
 1767ETH     CH15896   3.465   5.734   4.523  0.8609 -0.2131 -0.5525
 1767ETH     CH15897   3.527   5.819   4.412 -0.0913  0.9726 -0.1830
 1767ETH     HO15898   3.516   5.583   4.633  0.4462  0.6490  1.1360
 1767ETH     HC15899   3.372   5.688   4.490 -0.9801  3.1868 -0.3443
 1767ETH     HC15900   3.436   5.793   4.609  0.7519  0.5163 -1.0867
 1767ETH     HC15901   3.550   5.773   4.316  1.3164 -2.8285  1.8486
 1767ETH     HC15902   3.464   5.907   4.399 -2.0554 -0.1554  1.3799
 1767ETH     HC15903   3.628   5.851   4.439  0.2018  1.1873 -1.4925
 1768ETH     OH15904   5.866   6.146   6.138  0.1604 -0.3896 -0.4782
 1768ETH     CH15905   5.778   6.120   6.245  0.5775 -0.1247 -0.0681
 1768ETH     CH15906   5.712   5.983   6.224  0.4274  0.0606 -0.8217
 1768ETH     HO15907   5.808   6.144   6.064  0.1291  2.0480 -0.5781
 1768ETH     HC15908   5.825   6.125   6.343  0.5893 -1.3918 -0.0055
 1768ETH     HC15909   5.692   6.187   6.251  0.2139 -0.6760  1.0469
 1768ETH     HC15910   5.659   5.976   6.129  0.0309  0.5708 -0.6375
 1768ETH     HC15911   5.782   5.900   6.226 -1.5722 -1.6318  0.8059
 1768ETH     HC15912   5.647   5.953   6.305 -0.4624 -1.4549 -2.0798
 1769ETH     OH15913   1.575   5.994   1.680 -0.5937 -0.2628  0.2427
 1769ETH     CH15914   1.556   5.901   1.576  0.4330 -0.0995 -0.1013
 1769ETH     CH15915   1.682   5.882   1.492  0.2804  0.4328 -0.4511
 1769ETH     HO15916   1.626   5.949   1.745  0.4722 -1.7080 -1.5559
 1769ETH     HC15917   1.520   5.806   1.616  2.7236  0.3490  3.2165
 1769ETH     HC15918   1.473   5.946   1.522 -0.4998 -2.7011 -0.8876
 1769ETH     HC15919   1.705   5.973   1.437  0.4327 -0.5979 -2.1186
 1769ETH     HC15920   1.770   5.856   1.551 -0.6154  2.6630  1.9817
 1769ETH     HC15921   1.661   5.805   1.417  0.8333  2.4121 -2.6982
 1770ETH     OH15922   4.379   5.191   3.524  0.1675 -0.1144  0.2214
 1770ETH     CH15923   4.460   5.264   3.614 -0.6117  0.0633  0.7850
 1770ETH     CH15924   4.578   5.173   3.649 -0.2502 -0.0688 -0.7189
 1770ETH     HO15925   4.306   5.243   3.493 -0.1954 -2.0548 -2.3402
 1770ETH     HC15926   4.508   5.338   3.550  2.1889 -1.9252  0.4893
 1770ETH     HC15927   4.405   5.311   3.695  0.4024  1.3497  0.7336
 1770ETH     HC15928   4.643   5.215   3.726 -1.7319 -0.1359  0.6095
 1770ETH     HC15929   4.545   5.077   3.689  0.9362 -0.0426  0.3638
 1770ETH     HC15930   4.642   5.162   3.562 -1.3345 -0.4914 -1.4688
 1771ETH     OH15931   4.074   4.333   3.455  0.3392 -0.4702  0.7769
 1771ETH     CH15932   3.945   4.351   3.509 -0.0197 -0.0745 -0.1943
 1771ETH     CH15933   3.848   4.240   3.466  0.0598 -0.2700  0.1244
 1771ETH     HO15934   4.065   4.325   3.361 -1.7867 -1.7580  1.0467
 1771ETH     HC15935   3.937   4.362   3.617 -0.6337  4.2822 -0.5871
 1771ETH     HC15936   3.904   4.448   3.480  0.3973  0.2652  0.3446
 1771ETH     HC15937   3.903   4.147   3.476  1.3503  0.3537 -0.9546
 1771ETH     HC15938   3.761   4.251   3.530  0.7904  1.5212  0.8565
 1771ETH     HC15939   3.820   4.260   3.362 -1.5798 -1.6108  0.2962
 1772ETH     OH15940   0.430   3.442   0.987 -0.2160  0.2920  0.1945
 1772ETH     CH15941   0.401   3.336   0.898  0.4742  0.2316  0.0336
 1772ETH     CH15942   0.312   3.377   0.780  0.8698  0.4938 -0.1724
 1772ETH     HO15943   0.504   3.489   0.950  0.2632 -0.8819 -0.3709
 1772ETH     HC15944   0.489   3.284   0.863  1.1751 -0.5256  2.7739
 1772ETH     HC15945   0.340   3.262   0.951  1.2131 -2.1050 -2.3031
 1772ETH     HC15946   0.277   3.282   0.741 -2.1562  1.2576  0.5977
 1772ETH     HC15947   0.217   3.421   0.810  0.1148 -1.4261  0.3273
 1772ETH     HC15948   0.349   3.425   0.689 -1.5706 -1.2331 -2.1194
 1773ETH     OH15949   0.994   2.813   2.896 -0.4408 -0.3081  0.6829
 1773ETH     CH15950   1.089   2.912   2.928 -0.7038  0.0283  0.4253
 1773ETH     CH15951   1.123   3.015   2.820 -0.5670  0.2209  0.6510
 1773ETH     HO15952   0.976   2.771   2.979  0.8528 -2.6811 -0.1767
 1773ETH     HC15953   1.056   2.957   3.021 -1.0745  1.5300 -0.4128
 1773ETH     HC15954   1.176   2.865   2.974  1.2578  0.8528 -2.3197
 1773ETH     HC15955   1.211   3.073   2.850  0.4649 -0.6539 -0.6326
 1773ETH     HC15956   1.146   2.965   2.726 -0.8614 -0.5937  1.0032
 1773ETH     HC15957   1.045   3.091   2.811  0.1157  0.7698 -0.9315
 1774ETH     OH15958   1.005   0.830   3.278 -0.1865 -0.4053 -0.0448
 1774ETH     CH15959   1.028   0.747   3.167  0.1993 -0.6175  0.1964
 1774ETH     CH15960   0.902   0.684   3.108  0.1618 -0.7246  0.3886
 1774ETH     HO15961   1.048   0.782   3.347 -1.4191 -3.4944 -1.3238
 1774ETH     HC15962   1.068   0.795   3.078  0.2631 -2.4662 -0.8080
 1774ETH     HC15963   1.092   0.660   3.188  1.3972 -0.1788 -1.5622
 1774ETH     HC15964   0.861   0.606   3.172 -0.1185  0.6606  1.9329
 1774ETH     HC15965   0.822   0.755   3.088  0.6415 -0.4668 -0.6528
 1774ETH     HC15966   0.930   0.630   3.018 -0.1139 -1.6516  0.8510
 1775ETH     OH15967   1.707   3.904   2.613 -0.0677  0.4758 -0.1371
 1775ETH     CH15968   1.799   3.898   2.506 -0.4235  0.4186 -0.4388
 1775ETH     CH15969   1.762   4.000   2.398 -0.8668  0.3215 -0.3785
 1775ETH     HO15970   1.750   3.860   2.685 -0.4447  0.9455  0.3741
 1775ETH     HC15971   1.902   3.920   2.532 -1.1012  0.0236  2.6992
 1775ETH     HC15972   1.803   3.795   2.470  0.1243  1.1068 -2.4309
 1775ETH     HC15973   1.674   3.959   2.347 -1.3610  1.1111 -0.1606
 1775ETH     HC15974   1.759   4.100   2.439 -2.1970  0.2223 -0.1929
 1775ETH     HC15975   1.842   3.999   2.324 -1.2674  0.4301 -0.8245
 1776ETH     OH15976   0.023   3.094   0.879 -0.0848 -0.2976 -0.3653
 1776ETH     CH15977   0.022   3.077   0.739  0.0479  0.4404 -0.4580
 1776ETH     CH15978  -0.108   3.134   0.681 -0.0458  0.2638 -0.4214
 1776ETH     HO15979   0.093   3.039   0.911  0.6507 -0.4990 -2.2229
 1776ETH     HC15980   0.109   3.130   0.699 -0.7620 -0.2395 -3.2451
 1776ETH     HC15981   0.029   2.970   0.715 -0.9706  0.2159  0.2179
 1776ETH     HC15982  -0.107   3.242   0.695 -0.6869  0.2261 -0.0639
 1776ETH     HC15983  -0.115   3.108   0.576  0.8235  0.8479 -0.6317
 1776ETH     HC15984  -0.194   3.098   0.737 -0.1585 -0.0699 -0.8082
 1777ETH     OH15985   6.007   5.602   0.482 -0.1785  0.2732 -0.0059
 1777ETH     CH15986   5.993   5.523   0.597 -0.0098  0.0853 -0.1151
 1777ETH     CH15987   5.958   5.385   0.542  0.4708  0.0185 -0.2552
 1777ETH     HO15988   6.093   5.578   0.452 -0.8035 -0.1446 -1.5312
 1777ETH     HC15989   5.918   5.570   0.660 -1.8330 -1.7973 -0.8155
 1777ETH     HC15990   6.094   5.518   0.639 -0.4939 -1.6055  0.8960
 1777ETH     HC15991   5.947   5.312   0.622 -1.6605  0.5851 -0.0071
 1777ETH     HC15992   5.871   5.390   0.477  2.0580  1.7562 -2.3249
 1777ETH     HC15993   6.042   5.369   0.474  0.0637  2.7298 -1.4681
 1778ETH     OH15994   3.238   0.197   2.202  0.0931 -0.3731 -0.0651
 1778ETH     CH15995   3.251   0.201   2.343 -0.1770  0.1698 -0.0543
 1778ETH     CH15996   3.138   0.120   2.405 -0.1142  0.1585  0.0454
 1778ETH     HO15997   3.162   0.250   2.183 -1.0484 -2.4011 -1.3120
 1778ETH     HC15998   3.346   0.153   2.365 -0.5186 -0.4857  0.0058
 1778ETH     HC15999   3.253   0.307   2.370 -0.0889  1.0270 -3.2180
 1778ETH     HC16000   3.041   0.171   2.402  0.3225  1.1195  1.6715
 1778ETH     HC16001   3.119   0.021   2.364  0.0261  0.8165 -1.6244
 1778ETH     HC16002   3.155   0.111   2.512  1.1666  0.3475 -0.1422
 1779ETH     OH16003   5.597   0.488   4.918  0.1812  0.4413  0.6218
 1779ETH     CH16004   5.608   0.361   4.978 -0.1930 -0.0325 -0.3026
 1779ETH     CH16005   5.696   0.367   5.102 -0.4629  0.7306 -0.1460
 1779ETH     HO16006   5.687   0.518   4.914  0.9401 -1.6926  1.1586
 1779ETH     HC16007   5.508   0.331   5.007  0.5385 -0.3367  2.0117
 1779ETH     HC16008   5.647   0.284   4.911 -1.4174 -3.9589  3.3000
 1779ETH     HC16009   5.673   0.456   5.160  1.0811  0.6874  0.5715
 1779ETH     HC16010   5.667   0.287   5.171 -2.1486 -1.2893 -3.1079
 1779ETH     HC16011   5.801   0.363   5.071 -0.2340 -1.5887  0.7929
 1780ETH     OH16012   3.252   4.257   5.763 -0.2862  0.2334 -0.5593
 1780ETH     CH16013   3.118   4.261   5.722 -0.3202 -0.0087 -0.4766
 1780ETH     CH16014   3.075   4.116   5.699 -0.5735  0.0598 -0.4404
 1780ETH     HO16015   3.265   4.255   5.857 -0.9237  0.0297 -0.4771
 1780ETH     HC16016   3.057   4.304   5.802  0.8843 -1.0997  1.0469
 1780ETH     HC16017   3.112   4.304   5.621  0.7555 -1.4632 -1.1722
 1780ETH     HC16018   3.143   4.068   5.628  1.8789 -1.2495  2.6745
 1780ETH     HC16019   3.085   4.061   5.793  3.0894 -0.5581 -1.1155
 1780ETH     HC16020   2.974   4.119   5.659 -0.8241  1.5312  0.2784
 1781ETH     OH16021   1.614   1.767   5.259  0.0101 -0.1578  0.2312
 1781ETH     CH16022   1.726   1.695   5.212 -0.4550 -0.3872 -0.5395
 1781ETH     CH16023   1.727   1.559   5.282  0.2841  0.1395  0.4822
 1781ETH     HO16024   1.643   1.775   5.348 -3.6006  1.0388  1.3985
 1781ETH     HC16025   1.729   1.694   5.103  1.3475 -2.6001 -0.4914
 1781ETH     HC16026   1.811   1.755   5.244  0.8209 -2.0465 -0.7509
 1781ETH     HC16027   1.639   1.507   5.246  1.0630 -0.9407  0.1119
 1781ETH     HC16028   1.808   1.496   5.245  1.2489  0.2149  2.4015
 1781ETH     HC16029   1.725   1.546   5.390  2.6278 -1.1974  0.4029
 1782ETH     OH16030   2.793   5.366   5.550 -0.4763 -0.0072  0.4859
 1782ETH     CH16031   2.718   5.352   5.431 -0.1310  0.0212  0.2654
 1782ETH     CH16032   2.581   5.286   5.434 -0.2212  0.2172  0.5598
 1782ETH     HO16033   2.831   5.452   5.555 -0.5112 -0.0430  1.5731
 1782ETH     HC16034   2.726   5.444   5.372  1.7275 -0.6497 -0.5717
 1782ETH     HC16035   2.778   5.278   5.378 -1.2536  0.0057 -1.0058
 1782ETH     HC16036   2.517   5.325   5.354  0.9034  0.7439 -0.0927
 1782ETH     HC16037   2.593   5.177   5.428 -0.4779  0.1665  0.9588
 1782ETH     HC16038   2.520   5.313   5.519 -0.6150 -0.4631  0.5027
 1783ETH     OH16039   0.597   1.370   0.139 -0.4178 -0.3657 -0.0020
 1783ETH     CH16040   0.622   1.508   0.125 -0.2437 -0.4454 -0.4847
 1783ETH     CH16041   0.544   1.558   0.004  0.1705  0.1772 -0.4936
 1783ETH     HO16042   0.666   1.330   0.191 -0.4394  0.8016  0.9444
 1783ETH     HC16043   0.608   1.557   0.222 -0.8953 -0.4040 -0.5958
 1783ETH     HC16044   0.727   1.530   0.106 -0.3899  0.5372 -0.1978
 1783ETH     HC16045   0.560   1.495  -0.084 -1.5400  0.5576 -1.1064
 1783ETH     HC16046   0.436   1.552   0.019  0.3886  0.7529  1.4138
 1783ETH     HC16047   0.565   1.662  -0.022 -0.0199  0.2074 -0.5262
 1784ETH     OH16048   2.296   1.649   2.339 -0.9718  0.1616  0.2895
 1784ETH     CH16049   2.301   1.508   2.342  0.7708  0.2080 -0.1557
 1784ETH     CH16050   2.289   1.466   2.488  0.0282 -0.6284 -0.4509
 1784ETH     HO16051   2.299   1.678   2.249 -2.2544  1.1206  0.5363
 1784ETH     HC16052   2.213   1.455   2.305  0.0502 -1.3031  3.5329
 1784ETH     HC16053   2.397   1.482   2.297  0.1660  0.9832 -1.9420
 1784ETH     HC16054   2.302   1.362   2.517 -0.9441 -0.6993 -0.2798
 1784ETH     HC16055   2.371   1.515   2.542  0.5384 -0.8576 -1.0090
 1784ETH     HC16056   2.191   1.498   2.522  1.0012  1.1542  0.7808
 1785ETH     OH16057   3.746   1.767   5.768  0.3851 -0.2023  0.0072
 1785ETH     CH16058   3.618   1.733   5.721  0.4200 -0.1492 -0.1265
 1785ETH     CH16059   3.564   1.838   5.623  0.5463 -0.0693 -0.1106
 1785ETH     HO16060   3.732   1.810   5.851 -1.9348 -0.6326 -0.1231
 1785ETH     HC16061   3.609   1.636   5.672  1.5295  0.1205 -0.8734
 1785ETH     HC16062   3.552   1.736   5.807  0.4789 -2.7558  0.0438
 1785ETH     HC16063   3.465   1.815   5.583 -0.3358  0.8941  1.4372
 1785ETH     HC16064   3.551   1.936   5.669 -1.2243  0.0566 -0.8362
 1785ETH     HC16065   3.639   1.848   5.545 -0.3330  3.2097 -0.6046
 1786ETH     OH16066   1.907   1.359   5.006  0.1724  0.1314 -0.1755
 1786ETH     CH16067   1.922   1.226   5.050  0.5689  0.2746  0.1264
 1786ETH     CH16068   2.056   1.164   5.010  0.2390 -0.0945 -0.3943
 1786ETH     HO16069   1.944   1.418   5.071  1.3281  0.0113 -0.7178
 1786ETH     HC16070   1.844   1.167   5.002  2.6593 -2.2023 -0.3224
 1786ETH     HC16071   1.907   1.219   5.158 -1.1345 -0.9782 -0.1778
 1786ETH     HC16072   2.064   1.058   5.037 -1.2648  0.3943  2.1050
 1786ETH     HC16073   2.075   1.185   4.905  1.7809 -1.3027 -0.3697
 1786ETH     HC16074   2.134   1.203   5.075  0.4865 -3.1106  1.2297
 1787ETH     OH16075   1.662   3.714   5.892 -0.6039  0.3757  0.5026
 1787ETH     CH16076   1.598   3.783   5.787 -0.3060 -0.4886 -0.2569
 1787ETH     CH16077   1.449   3.802   5.819 -0.1595 -0.9920  0.7425
 1787ETH     HO16078   1.707   3.777   5.946  1.4416 -2.5630  2.4157
 1787ETH     HC16079   1.648   3.876   5.765  0.8162 -1.5216 -2.2069
 1787ETH     HC16080   1.613   3.720   5.699  0.3094 -1.2011  0.3496
 1787ETH     HC16081   1.443   3.846   5.919 -1.3449 -0.4207  0.4280
 1787ETH     HC16082   1.397   3.873   5.755 -0.5000 -0.5416  1.5130
 1787ETH     HC16083   1.394   3.709   5.834 -1.0795 -0.2956  1.7878
 1788ETH     OH16084   0.836   3.232   2.744  0.0568  0.2980  0.1947
 1788ETH     CH16085   0.822   3.363   2.694 -0.2118 -0.0176 -0.5671
 1788ETH     CH16086   0.965   3.414   2.676 -0.0598 -0.1427  0.2378
 1788ETH     HO16087   0.884   3.233   2.825  0.1895 -0.3993  0.1228
 1788ETH     HC16088   0.749   3.369   2.613 -1.2394 -3.3274  0.0625
 1788ETH     HC16089   0.777   3.433   2.765  2.0210 -0.5405  1.4218
 1788ETH     HC16090   0.972   3.516   2.636 -0.0079  0.3120  1.4005
 1788ETH     HC16091   1.012   3.411   2.774 -0.0871 -2.6401  0.2152
 1788ETH     HC16092   1.015   3.353   2.601 -1.4678 -0.8382 -0.1570
 1789ETH     OH16093   3.699   1.115   1.876 -0.5039 -0.0654  0.4241
 1789ETH     CH16094   3.625   1.091   1.759 -0.4251  0.1677  0.3251
 1789ETH     CH16095   3.714   1.069   1.636 -0.5786 -0.6880  0.3643
 1789ETH     HO16096   3.673   1.060   1.948  0.0235 -1.8515 -0.7273
 1789ETH     HC16097   3.563   1.004   1.780 -0.9573  0.7214  1.0602
 1789ETH     HC16098   3.563   1.177   1.735  0.2915  1.4388  2.9129
 1789ETH     HC16099   3.785   1.151   1.644 -2.3424  0.8738  0.3230
 1789ETH     HC16100   3.752   0.967   1.643  0.5294 -0.3966 -1.2090
 1789ETH     HC16101   3.655   1.072   1.544  3.3339 -1.2786 -2.2730
 1790ETH     OH16102   4.267   0.221   3.876  0.0143  0.0194  0.2732
 1790ETH     CH16103   4.243   0.359   3.855  0.0435 -0.0264 -0.0586
 1790ETH     CH16104   4.118   0.383   3.769 -0.1628  0.0434  0.2624
 1790ETH     HO16105   4.356   0.214   3.906  0.4071  0.7719 -0.6810
 1790ETH     HC16106   4.225   0.409   3.949 -0.3763  0.1125 -0.2107
 1790ETH     HC16107   4.329   0.400   3.804 -0.8298 -1.6087 -2.9624
 1790ETH     HC16108   4.030   0.335   3.812  0.3756 -0.4618  0.8152
 1790ETH     HC16109   4.084   0.484   3.747  0.9012  0.3068 -0.2028
 1790ETH     HC16110   4.128   0.327   3.676 -1.9049 -2.7108  1.6722
 1791ETH     OH16111   0.694   4.564   5.125 -0.4306 -0.2786 -0.1796
 1791ETH     CH16112   0.651   4.472   5.027 -0.0371 -0.2386 -0.3876
 1791ETH     CH16113   0.745   4.351   5.032 -0.0084 -0.1784  0.5331
 1791ETH     HO16114   0.670   4.531   5.210  0.3808  3.0022  1.4013
 1791ETH     HC16115   0.550   4.437   5.045 -0.5867  1.2309 -0.5787
 1791ETH     HC16116   0.661   4.512   4.926  1.3300 -0.7188 -0.4496
 1791ETH     HC16117   0.845   4.389   5.015  0.0080 -0.9091 -1.0499
 1791ETH     HC16118   0.743   4.294   5.125 -0.4459  0.7083  1.0689
 1791ETH     HC16119   0.724   4.285   4.948 -1.2424 -0.2329  0.8687
 1792ETH     OH16120   6.281   4.134   3.012 -0.2829 -0.4294 -0.1418
 1792ETH     CH16121   6.200   4.207   3.102 -0.2508 -0.1792 -0.3162
 1792ETH     CH16122   6.275   4.206   3.235 -0.3414 -0.2739 -0.2663
 1792ETH     HO16123   6.233   4.053   3.004 -1.6856  0.2892  0.6930
 1792ETH     HC16124   6.196   4.304   3.052 -0.0711 -0.8046 -1.5805
 1792ETH     HC16125   6.101   4.163   3.114 -0.5378  0.2655 -1.0350
 1792ETH     HC16126   6.308   4.105   3.262  0.9126 -0.3305 -1.9535
 1792ETH     HC16127   6.369   4.262   3.228 -0.4925 -0.1870 -1.7560
 1792ETH     HC16128   6.224   4.243   3.324  1.1476  0.3529  0.3514
 1793ETH     OH16129   2.523   2.034   3.115  0.1763  0.9206  0.0007
 1793ETH     CH16130   2.600   1.939   3.044 -0.1778  0.6388 -0.0078
 1793ETH     CH16131   2.502   1.824   3.018  0.5973 -0.1658  0.6076
 1793ETH     HO16132   2.498   1.996   3.197 -0.3354  1.6465  0.1871
 1793ETH     HC16133   2.656   1.971   2.957  1.7352  0.7620  1.2512
 1793ETH     HC16134   2.664   1.901   3.124 -0.7811 -0.4514 -0.0270
 1793ETH     HC16135   2.437   1.810   3.104  0.8597 -1.3497  0.6215
 1793ETH     HC16136   2.449   1.853   2.928 -0.0553 -2.0654  0.3590
 1793ETH     HC16137   2.553   1.728   3.004 -0.0058 -0.6556  1.7087
 1794ETH     OH16138   2.116   4.923   0.630 -0.4917  0.5075  0.5482
 1794ETH     CH16139   2.051   4.798   0.634 -0.2803  0.3959  0.4812
 1794ETH     CH16140   1.900   4.822   0.630 -0.4386 -0.6096  0.4951
 1794ETH     HO16141   2.208   4.914   0.607 -0.7239  0.8164 -0.5034
 1794ETH     HC16142   2.083   4.738   0.550 -0.0345  1.2427 -0.0402
 1794ETH     HC16143   2.079   4.754   0.730 -1.5475  1.6839  1.4685
 1794ETH     HC16144   1.841   4.730   0.620 -0.7331 -0.3931  0.2398
 1794ETH     HC16145   1.873   4.871   0.724 -2.0808  1.0116 -0.7899
 1794ETH     HC16146   1.887   4.892   0.548 -0.4087 -0.4727  0.6087
 1795ETH     OH16147   5.682   2.094   0.954 -0.3062 -0.0597  0.4636
 1795ETH     CH16148   5.637   2.080   0.821  0.1158  0.3093  0.2841
 1795ETH     CH16149   5.552   2.192   0.762 -0.0900 -0.0225 -0.0518
 1795ETH     HO16150   5.622   2.056   1.016 -1.0704  1.1287  0.4598
 1795ETH     HC16151   5.726   2.062   0.759  0.8908  2.9891  0.5592
 1795ETH     HC16152   5.590   1.982   0.820 -0.3379  0.5110  2.0326
 1795ETH     HC16153   5.606   2.280   0.797 -1.6078  0.5302  0.9786
 1795ETH     HC16154   5.549   2.189   0.653 -0.4149  0.6064 -0.0640
 1795ETH     HC16155   5.450   2.195   0.802  0.6823  0.0183  1.9737
 1796ETH     OH16156   0.703   4.114   3.115  0.0395  0.2390  0.1094
 1796ETH     CH16157   0.813   4.029   3.091 -0.4414 -0.3359 -0.0711
 1796ETH     CH16158   0.858   3.967   3.223  0.0197  0.5533  0.1897
 1796ETH     HO16159   0.682   4.160   3.036 -2.0899  1.2375  1.2051
 1796ETH     HC16160   0.771   3.952   3.027 -0.3707 -0.5245  0.1074
 1796ETH     HC16161   0.885   4.089   3.035 -2.2998  0.8485 -1.2391
 1796ETH     HC16162   0.873   4.045   3.298 -2.9082 -0.0008  1.4070
 1796ETH     HC16163   0.789   3.892   3.262 -0.0303  0.9404  0.8581
 1796ETH     HC16164   0.957   3.921   3.223 -0.7297 -1.0631 -0.5212
 1797ETH     OH16165   5.451   5.578   1.416 -0.1521 -0.7173 -0.6007
 1797ETH     CH16166   5.591   5.591   1.409 -0.1673 -0.0845  0.2371
 1797ETH     CH16167   5.629   5.609   1.262  0.2051 -0.5276  0.2799
 1797ETH     HO16168   5.419   5.504   1.367 -2.4787  0.8089 -1.4789
 1797ETH     HC16169   5.618   5.685   1.457 -0.0418  0.4100 -0.7946
 1797ETH     HC16170   5.647   5.509   1.453 -1.0618 -1.0357 -0.3668
 1797ETH     HC16171   5.606   5.708   1.223 -0.4140 -0.8214 -0.1027
 1797ETH     HC16172   5.735   5.589   1.246  0.3243 -0.2372  0.7216
 1797ETH     HC16173   5.565   5.541   1.205  0.1454 -1.1578  1.0873
 1798ETH     OH16174   5.642   1.404   0.457 -0.2497  0.5655  0.3965
 1798ETH     CH16175   5.623   1.330   0.339  0.2008  0.1638  0.5763
 1798ETH     CH16176   5.620   1.401   0.203 -0.1439 -0.2704  0.3545
 1798ETH     HO16177   5.602   1.365   0.533  1.4474 -2.5175 -0.2230
 1798ETH     HC16178   5.712   1.268   0.325  0.0541 -0.3736  2.0197
 1798ETH     HC16179   5.541   1.259   0.349 -0.6526  1.2511  1.4044
 1798ETH     HC16180   5.553   1.357   0.129  2.2229 -0.3169 -1.8218
 1798ETH     HC16181   5.577   1.501   0.204 -1.0487 -0.6416 -0.6068
 1798ETH     HC16182   5.718   1.418   0.158 -0.0430 -0.6365  0.4359
 1799ETH     OH16183   2.285   2.037   3.923  0.3724  0.4879  0.3290
 1799ETH     CH16184   2.222   2.143   3.855  0.4588  0.1450 -0.2868
 1799ETH     CH16185   2.095   2.099   3.782 -0.2260  0.6859  0.5669
 1799ETH     HO16186   2.327   2.082   3.994 -1.2256 -0.0341  1.6439
 1799ETH     HC16187   2.209   2.219   3.932 -0.2793 -0.0953 -0.1748
 1799ETH     HC16188   2.292   2.195   3.789  2.4478 -0.4401  1.3242
 1799ETH     HC16189   2.027   2.048   3.850  1.1248 -1.7488  0.1629
 1799ETH     HC16190   2.051   2.185   3.733  2.6735  0.7902 -2.0333
 1799ETH     HC16191   2.126   2.022   3.711  0.3260 -0.1887  1.7331
 1800ETH     OH16192   4.716   5.665   4.705  0.1085  0.1360 -0.2811
 1800ETH     CH16193   4.828   5.583   4.731  0.2227  0.4017  0.0848
 1800ETH     CH16194   4.792   5.474   4.832 -0.2011  0.4735  0.0140
 1800ETH     HO16195   4.729   5.725   4.633  2.0252  1.0247  0.7412
 1800ETH     HC16196   4.855   5.531   4.638  0.5605 -0.0175  0.4152
 1800ETH     HC16197   4.909   5.642   4.773  0.1216  0.6186 -0.0264
 1800ETH     HC16198   4.766   5.510   4.931 -1.2893 -0.7757  0.1954
 1800ETH     HC16199   4.727   5.399   4.786  1.2718 -1.9193  1.7235
 1800ETH     HC16200   4.881   5.419   4.863 -0.4334  1.1584  1.9259
 1801ETH     OH16201   2.461   3.765   3.710 -0.3848 -0.6115  0.1465
 1801ETH     CH16202   2.372   3.666   3.756 -0.5263 -0.3419  0.4563
 1801ETH     CH16203   2.286   3.707   3.876 -0.5537  0.1944  0.2577
 1801ETH     HO16204   2.502   3.738   3.629  1.7410 -0.1284  1.0082
 1801ETH     HC16205   2.307   3.639   3.672 -2.0200  0.4929  1.3125
 1801ETH     HC16206   2.417   3.579   3.802  0.5660  1.6506  3.2854
 1801ETH     HC16207   2.344   3.724   3.967 -2.5077  0.7511  1.4090
 1801ETH     HC16208   2.246   3.806   3.854  1.2378  1.4423  2.3836
 1801ETH     HC16209   2.207   3.635   3.898 -1.5417  2.0051  2.8855
 1802ETH     OH16210   1.397   4.219   4.053 -0.2638 -0.0513  0.0434
 1802ETH     CH16211   1.290   4.186   4.138 -0.1424 -0.2029  0.1383
 1802ETH     CH16212   1.334   4.062   4.215 -0.5305 -0.3549  0.1185
 1802ETH     HO16213   1.400   4.158   3.981 -3.3735  1.0871 -1.1047
 1802ETH     HC16214   1.252   4.261   4.208 -2.4227 -0.0530 -1.2093
 1802ETH     HC16215   1.208   4.149   4.077  0.3875 -1.5232  0.2252
 1802ETH     HC16216   1.398   4.085   4.301 -1.9940  0.7304  0.9399
 1802ETH     HC16217   1.250   4.003   4.251 -0.5094 -0.6093 -0.2418
 1802ETH     HC16218   1.400   3.998   4.156 -0.7302 -0.0896 -0.3927
 1803ETH     OH16219   0.086   1.689   4.855  0.0645  0.1235  0.0573
 1803ETH     CH16220   0.031   1.581   4.783 -0.0376  0.4364 -0.3338
 1803ETH     CH16221   0.092   1.557   4.645  0.2232  0.2065 -0.1772
 1803ETH     HO16222   0.056   1.768   4.815 -3.1342 -2.5101 -3.0850
 1803ETH     HC16223   0.051   1.488   4.836 -0.2097  1.1556  1.0211
 1803ETH     HC16224  -0.078   1.587   4.791 -0.1040  0.3622 -1.1158
 1803ETH     HC16225   0.050   1.463   4.609  2.2760 -0.1435 -1.7403
 1803ETH     HC16226   0.072   1.638   4.575 -0.5222  0.3200  0.1569
 1803ETH     HC16227   0.196   1.525   4.645  0.3100  0.4736  0.4014
 1804ETH     OH16228   1.241   3.057   3.414  0.2647 -0.5796  0.1842
 1804ETH     CH16229   1.367   2.998   3.387  0.4751 -0.1496  0.2168
 1804ETH     CH16230   1.337   2.857   3.337 -0.0987  0.2866 -0.7111
 1804ETH     HO16231   1.231   3.151   3.404  0.3218 -0.4320  1.4113
 1804ETH     HC16232   1.423   3.044   3.306 -0.9762  1.5956  0.1557
 1804ETH     HC16233   1.433   2.990   3.472  0.3861  1.1462  0.4255
 1804ETH     HC16234   1.284   2.841   3.243  2.2013 -0.6294 -1.8956
 1804ETH     HC16235   1.429   2.801   3.321 -0.1836 -0.1680  0.3378
 1804ETH     HC16236   1.277   2.802   3.410  0.3589  0.0096 -0.5385
 1805ETH     OH16237   1.951   5.937   2.865  0.5382 -0.8662 -0.4690
 1805ETH     CH16238   1.886   5.866   2.763  0.0895 -0.2419 -0.6212
 1805ETH     CH16239   1.789   5.765   2.824  0.0069  0.2405  0.0520
 1805ETH     HO16240   2.003   5.879   2.918  2.0778  1.0176  0.1687
 1805ETH     HC16241   1.827   5.925   2.693 -0.3326 -0.2269 -0.2573
 1805ETH     HC16242   1.954   5.807   2.701  1.8098  2.4349 -1.3689
 1805ETH     HC16243   1.703   5.805   2.877 -1.6378 -0.7410 -1.8130
 1805ETH     HC16244   1.750   5.695   2.750  1.3747  0.3462 -0.7746
 1805ETH     HC16245   1.831   5.707   2.907 -0.1627 -0.4860 -0.3597
 1806ETH     OH16246   3.468   0.795   4.756 -0.1134  0.2059  0.4419
 1806ETH     CH16247   3.541   0.844   4.867  0.0047  0.1040  0.4088
 1806ETH     CH16248   3.564   0.727   4.963 -0.0197  0.0485  0.3471
 1806ETH     HO16249   3.453   0.870   4.701 -1.1324  0.1804  0.6742
 1806ETH     HC16250   3.637   0.890   4.841  0.2919 -1.7312 -2.0067
 1806ETH     HC16251   3.466   0.910   4.909  0.4894  0.6166  0.4778
 1806ETH     HC16252   3.625   0.743   5.052  0.4438  3.7236 -0.5536
 1806ETH     HC16253   3.462   0.696   4.986 -0.1803  1.0141  0.9554
 1806ETH     HC16254   3.611   0.645   4.909 -1.8845 -0.2570 -0.8454
 1807ETH     OH16255   5.071   0.485   0.660  0.5679 -0.1985 -0.0078
 1807ETH     CH16256   5.096   0.366   0.732  0.4493 -0.2839 -0.1072
 1807ETH     CH16257   5.162   0.269   0.634  0.1672 -0.3745 -0.2092
 1807ETH     HO16258   5.016   0.541   0.714  0.8033 -1.6173  1.7649
 1807ETH     HC16259   5.145   0.392   0.826  0.9157 -2.8209  0.3771
 1807ETH     HC16260   5.007   0.314   0.769  0.8191  0.4932  1.9557
 1807ETH     HC16261   5.183   0.177   0.687 -1.0053  0.6940  2.2008
 1807ETH     HC16262   5.089   0.240   0.559 -0.3136  0.4851 -0.0857
 1807ETH     HC16263   5.246   0.309   0.578  0.4107  0.3694  0.6742
 1808ETH     OH16264   4.470   1.069   0.284  0.2027  0.1942 -0.0354
 1808ETH     CH16265   4.536   1.028   0.166 -0.0987 -0.5001  0.0336
 1808ETH     CH16266   4.648   0.933   0.208 -0.0392 -0.0663  0.8832
 1808ETH     HO16267   4.418   1.143   0.256  0.0118 -0.0662 -0.3707
 1808ETH     HC16268   4.465   0.986   0.095 -0.6663  0.0889  0.2448
 1808ETH     HC16269   4.578   1.115   0.115 -2.1095  0.8054  0.5162
 1808ETH     HC16270   4.696   0.907   0.113 -0.5745  4.7746 -0.8223
 1808ETH     HC16271   4.728   0.978   0.266  2.5193 -1.6322 -1.3128
 1808ETH     HC16272   4.626   0.837   0.256 -0.4504 -0.2319  0.3695
 1809ETH     OH16273   3.458   5.450   3.391 -0.1069 -0.1552 -0.4138
 1809ETH     CH16274   3.568   5.386   3.329  0.3374 -0.0835  0.2925
 1809ETH     CH16275   3.703   5.457   3.340  0.3517 -0.0504 -0.0594
 1809ETH     HO16276   3.485   5.469   3.479 -0.1763 -3.0526  0.2737
 1809ETH     HC16277   3.571   5.286   3.370 -0.6844 -1.0859 -1.9716
 1809ETH     HC16278   3.547   5.369   3.223  2.9105  1.5830 -0.5480
 1809ETH     HC16279   3.776   5.398   3.284 -0.1010 -1.4208  0.7580
 1809ETH     HC16280   3.691   5.560   3.307  1.3056 -0.4360 -1.6579
 1809ETH     HC16281   3.728   5.451   3.446  1.4680 -0.4021 -0.3334
 1810ETH     OH16282   4.926   5.588   6.265  0.2152 -0.3366  0.0576
 1810ETH     CH16283   4.896   5.571   6.129  0.3544 -0.3617  0.0305
 1810ETH     CH16284   4.747   5.544   6.105  0.1378  0.0319  0.9484
 1810ETH     HO16285   5.015   5.619   6.270 -0.0251  0.0765  2.8012
 1810ETH     HC16286   4.931   5.655   6.069 -2.1911  1.3580  0.8658
 1810ETH     HC16287   4.950   5.483   6.092  0.3147 -0.3556 -0.0454
 1810ETH     HC16288   4.690   5.627   6.147 -0.1101 -0.4923  1.6588
 1810ETH     HC16289   4.725   5.552   5.998  2.5357  1.7290  0.5499
 1810ETH     HC16290   4.704   5.452   6.143  1.4792 -1.0844 -0.1878
 1811ETH     OH16291   2.499   4.619   0.473  0.0724 -0.2427  0.0052
 1811ETH     CH16292   2.616   4.542   0.454  0.1040 -0.2936  0.3956
 1811ETH     CH16293   2.620   4.496   0.308  0.5237  0.7233  0.0808
 1811ETH     HO16294   2.440   4.548   0.451  1.8882 -1.2738 -1.7498
 1811ETH     HC16295   2.703   4.602   0.480 -2.2021  2.7755  1.2682
 1811ETH     HC16296   2.609   4.456   0.521 -2.9537 -0.1379  0.3456
 1811ETH     HC16297   2.621   4.579   0.237  3.8939  1.0479  0.4191
 1811ETH     HC16298   2.713   4.445   0.285  1.2353  1.2990  1.6173
 1811ETH     HC16299   2.535   4.430   0.289  0.2745  1.1954 -0.4449
 1812ETH     OH16300   1.144   3.761   3.079  0.3761 -0.4243  0.4596
 1812ETH     CH16301   1.208   3.638   3.053  0.3617 -0.2849 -0.2293
 1812ETH     CH16302   1.219   3.613   2.902 -0.6778  0.6924 -0.4722
 1812ETH     HO16303   1.188   3.841   3.054 -0.6190  0.3795  1.2177
 1812ETH     HC16304   1.309   3.632   3.095  0.2176 -0.3113  0.1097
 1812ETH     HC16305   1.141   3.556   3.080 -1.0573  0.5109 -1.2554
 1812ETH     HC16306   1.120   3.642   2.866 -1.1041 -1.5435 -1.1579
 1812ETH     HC16307   1.301   3.675   2.865 -0.6692  0.3899 -0.9574
 1812ETH     HC16308   1.235   3.506   2.892 -1.1489  0.2966  2.4700
 1813ETH     OH16309   2.924   4.341   1.539 -0.2632 -0.0399  0.0200
 1813ETH     CH16310   2.882   4.293   1.414  0.5394  0.1275 -0.3182
 1813ETH     CH16311   2.847   4.414   1.327 -0.3234 -0.0816 -0.2647
 1813ETH     HO16312   2.937   4.269   1.598 -2.0037 -0.0127  0.4745
 1813ETH     HC16313   2.961   4.234   1.367  0.1819 -1.2324  0.7654
 1813ETH     HC16314   2.793   4.230   1.422  0.3755  0.4601  0.4946
 1813ETH     HC16315   2.932   4.482   1.332 -0.3763  0.0715 -1.2749
 1813ETH     HC16316   2.824   4.395   1.222  2.1752 -0.5830 -0.7446
 1813ETH     HC16317   2.760   4.467   1.367  0.6058  0.0265  1.6615
 1814ETH     OH16318   0.255   0.760   3.452  0.1138 -0.2574  0.3609
 1814ETH     CH16319   0.189   0.680   3.548 -0.0089 -0.0821  0.4218
 1814ETH     CH16320   0.298   0.597   3.616  0.2710 -0.4570 -0.4791
 1814ETH     HO16321   0.198   0.829   3.423  2.1920  1.2554 -0.1906
 1814ETH     HC16322   0.150   0.752   3.620 -0.0354 -0.2879  0.6122
 1814ETH     HC16323   0.102   0.631   3.506 -1.0875  2.3373 -0.2794
 1814ETH     HC16324   0.256   0.549   3.704  3.9441 -1.2050  0.9839
 1814ETH     HC16325   0.365   0.535   3.557 -0.0373 -0.6895 -0.5864
 1814ETH     HC16326   0.370   0.675   3.642  0.0474  0.4563 -2.4776
 1815ETH     OH16327   3.866   5.757   1.648 -0.5895  0.1806  0.2425
 1815ETH     CH16328   3.850   5.895   1.624 -0.4686  0.1607  0.0467
 1815ETH     CH16329   3.851   5.907   1.471  0.1952 -0.4431  0.0053
 1815ETH     HO16330   3.786   5.713   1.670 -0.8441 -0.4420 -1.8203
 1815ETH     HC16331   3.755   5.924   1.670 -0.5942 -1.0777  0.5999
 1815ETH     HC16332   3.933   5.949   1.668 -1.5146  0.6667  1.4216
 1815ETH     HC16333   3.946   5.867   1.434  0.7399 -0.1686  1.0926
 1815ETH     HC16334   3.777   5.836   1.435  1.0821 -1.2035 -0.3544
 1815ETH     HC16335   3.842   6.008   1.432 -1.7509 -0.5382  0.1739
 1816ETH     OH16336   4.295   4.684   2.156 -0.1877 -0.2758  0.2912
 1816ETH     CH16337   4.245   4.607   2.050 -0.1300  0.1685 -0.0620
 1816ETH     CH16338   4.134   4.692   1.988 -0.2256  0.0353 -0.0749
 1816ETH     HO16339   4.347   4.632   2.215 -0.2082 -0.0251  0.5294
 1816ETH     HC16340   4.316   4.586   1.970 -0.5303 -1.0747 -0.1139
 1816ETH     HC16341   4.208   4.507   2.074  0.3864 -0.0870 -0.3300
 1816ETH     HC16342   4.148   4.798   1.968 -1.3884  0.3755  0.8832
 1816ETH     HC16343   4.100   4.640   1.899 -1.5443  0.5366  0.1242
 1816ETH     HC16344   4.042   4.673   2.043 -0.0303 -2.4125 -0.5294
 1817ETH     OH16345   5.737   3.603   4.179 -0.0258 -0.2540 -0.3885
 1817ETH     CH16346   5.763   3.704   4.274 -0.0523 -0.4502 -0.1729
 1817ETH     CH16347   5.657   3.811   4.252  0.1237 -0.1888  0.2284
 1817ETH     HO16348   5.776   3.523   4.209 -1.7868 -1.4190 -1.1109
 1817ETH     HC16349   5.757   3.659   4.373 -0.4621  1.0268  0.4887
 1817ETH     HC16350   5.862   3.750   4.274 -1.1170  2.0103 -3.0536
 1817ETH     HC16351   5.667   3.863   4.156  0.6758 -1.1073 -0.2211
 1817ETH     HC16352   5.555   3.776   4.232  0.9653 -3.3440  1.2125
 1817ETH     HC16353   5.648   3.883   4.333 -0.8367 -1.1745  1.0232
 1818ETH     OH16354   2.652   2.165   6.207  0.2251  0.2805  0.3660
 1818ETH     CH16355   2.753   2.066   6.215 -0.1207 -0.0877  0.2208
 1818ETH     CH16356   2.684   1.936   6.177 -0.1610  0.0071 -0.0315
 1818ETH     HO16357   2.593   2.152   6.279  1.5549 -1.2678  1.2123
 1818ETH     HC16358   2.839   2.086   6.152 -0.8708 -0.4025 -0.9155
 1818ETH     HC16359   2.800   2.054   6.313 -0.7805 -2.5885  0.2581
 1818ETH     HC16360   2.742   1.845   6.193 -2.5072 -1.6339 -0.3990
 1818ETH     HC16361   2.602   1.926   6.248  2.1224  0.0237  2.6860
 1818ETH     HC16362   2.653   1.940   6.072  0.2477  0.0744 -0.1485
 1819ETH     OH16363   2.936   3.193   3.122 -0.0935  0.4100 -0.4693
 1819ETH     CH16364   2.960   3.179   3.260 -0.1357  0.5626 -0.4461
 1819ETH     CH16365   2.948   3.322   3.313  0.3100  0.1383  0.8158
 1819ETH     HO16366   2.950   3.109   3.081 -1.7757  0.0744 -0.3725
 1819ETH     HC16367   2.891   3.103   3.298  0.4456 -0.2506 -0.9972
 1819ETH     HC16368   3.058   3.134   3.278 -0.0634 -0.0109 -2.1319
 1819ETH     HC16369   2.850   3.365   3.294  0.5807  0.1938 -0.5178
 1819ETH     HC16370   2.953   3.315   3.421 -0.7656 -0.0821  0.8521
 1819ETH     HC16371   3.028   3.389   3.283  0.5125 -1.3967 -2.3169
 1820ETH     OH16372   2.795   3.084   1.674 -0.3301  0.3838 -0.1745
 1820ETH     CH16373   2.893   3.096   1.775 -0.0810  0.1848 -0.3918
 1820ETH     CH16374   3.034   3.059   1.731 -0.0984  0.1776 -0.4409
 1820ETH     HO16375   2.715   3.124   1.706  0.3624  2.7616 -1.2998
 1820ETH     HC16376   2.893   3.200   1.808  1.3059 -0.2385  0.9851
 1820ETH     HC16377   2.868   3.039   1.865  0.4135  0.6949  0.0700
 1820ETH     HC16378   3.103   3.048   1.815 -0.8104 -0.8709  0.0224
 1820ETH     HC16379   3.029   2.960   1.685 -1.7473 -0.6680  1.4574
 1820ETH     HC16380   3.069   3.126   1.653 -0.8183 -1.8718 -2.5669
 1821ETH     OH16381   1.550   2.895   1.759 -0.1862 -0.2539  0.2099
 1821ETH     CH16382   1.523   2.954   1.884 -0.1495 -0.0558  0.1257
 1821ETH     CH16383   1.644   2.979   1.973 -0.2264 -0.1453  0.2558
 1821ETH     HO16384   1.509   2.810   1.753 -0.9939  0.1615 -0.1926
 1821ETH     HC16385   1.473   3.050   1.870  1.8711  0.7603 -1.7718
 1821ETH     HC16386   1.443   2.896   1.930 -0.6029 -0.0365 -0.6356
 1821ETH     HC16387   1.599   3.028   2.059  1.8797  1.1601  0.6639
 1821ETH     HC16388   1.679   2.892   2.028  1.6274  1.3236  1.4975
 1821ETH     HC16389   1.726   3.042   1.937 -1.1235 -0.5552 -2.6115
 1822ETH     OH16390   0.897   3.276   3.001  0.1497  0.2244  0.1586
 1822ETH     CH16391   0.935   3.278   3.137 -0.2269 -0.2296  0.2696
 1822ETH     CH16392   0.819   3.223   3.220 -0.2051  0.4449  0.7412
 1822ETH     HO16393   0.850   3.358   3.000 -0.8372 -0.3182  1.0518
 1822ETH     HC16394   1.031   3.229   3.152 -0.4320 -0.2713  1.4246
 1822ETH     HC16395   0.950   3.383   3.160  1.6190 -0.4448  0.0939
 1822ETH     HC16396   0.815   3.115   3.216  0.2986  0.4185  0.9620
 1822ETH     HC16397   0.831   3.245   3.326 -0.3011  0.5985  0.7211
 1822ETH     HC16398   0.715   3.251   3.198 -0.4217 -0.1666  0.9808
 1823ETH     OH16399   6.173   4.551   3.670  0.6447 -0.0658 -0.2294
 1823ETH     CH16400   6.165   4.566   3.530 -0.1191  0.0953 -0.1700
 1823ETH     CH16401   6.307   4.550   3.475 -0.0060  0.1236  0.1147
 1823ETH     HO16402   6.231   4.621   3.694 -0.2032  0.2570  0.8784
 1823ETH     HC16403   6.108   4.477   3.500  0.4626 -0.4570  0.3480
 1823ETH     HC16404   6.116   4.655   3.492 -0.1891  0.4310  0.7042
 1823ETH     HC16405   6.376   4.629   3.506  1.8268 -1.1373 -0.6647
 1823ETH     HC16406   6.354   4.454   3.497  1.7792  1.2198  1.2006
 1823ETH     HC16407   6.302   4.560   3.367 -1.2128 -1.1241  0.0363
 1824ETH     OH16408   5.792   0.497   0.208 -0.1271  0.0059 -0.1621
 1824ETH     CH16409   5.858   0.621   0.197 -0.0917  0.0025  0.0115
 1824ETH     CH16410   6.001   0.584   0.159  0.0343 -0.0013  0.4822
 1824ETH     HO16411   5.702   0.523   0.211  1.3721  5.9992 -0.5430
 1824ETH     HC16412   5.813   0.672   0.112 -1.2146 -0.2557  0.4482
 1824ETH     HC16413   5.843   0.676   0.290  2.8866 -1.4697  1.4290
 1824ETH     HC16414   6.063   0.671   0.177 -0.7302  0.7830 -0.6050
 1824ETH     HC16415   6.045   0.505   0.220  0.3538 -0.4882 -0.3575
 1824ETH     HC16416   6.007   0.558   0.053 -0.3036 -0.6880  0.6300
 1825ETH     OH16417   1.183   2.050   1.616 -0.4386 -0.2135 -0.4076
 1825ETH     CH16418   1.210   1.912   1.609 -0.1663 -0.1657 -0.2901
 1825ETH     CH16419   1.215   1.860   1.466  0.0194 -0.3368 -0.2219
 1825ETH     HO16420   1.171   2.068   1.708  1.7034 -0.2989 -0.0897
 1825ETH     HC16421   1.303   1.890   1.662 -0.9332 -1.6585  0.4799
 1825ETH     HC16422   1.132   1.855   1.660  0.4149 -1.5004 -0.8794
 1825ETH     HC16423   1.244   1.755   1.454  0.7126 -0.2981  0.9943
 1825ETH     HC16424   1.111   1.868   1.434 -0.3368 -1.9619  0.4319
 1825ETH     HC16425   1.269   1.924   1.397 -1.5898  2.7187  1.2794
 1826ETH     OH16426   3.315   0.186   2.743  0.4220  0.5395 -0.1022
 1826ETH     CH16427   3.411   0.093   2.697  0.4290  0.1881  0.6206
 1826ETH     CH16428   3.345  -0.044   2.709 -0.1160  0.3303 -0.6762
 1826ETH     HO16429   3.368   0.264   2.747  1.4503 -0.1725  0.4328
 1826ETH     HC16430   3.429   0.123   2.594  0.9282 -0.1194  0.6169
 1826ETH     HC16431   3.505   0.102   2.753  1.7983  1.8491 -1.8436
 1826ETH     HC16432   3.236  -0.040   2.711 -0.1158 -0.0430  1.4760
 1826ETH     HC16433   3.379  -0.115   2.634  0.9249 -1.4899  1.4462
 1826ETH     HC16434   3.373  -0.099   2.799 -0.1147  3.4924  1.3483
 1827ETH     OH16435   1.051   2.662   3.961 -0.0396 -0.0381  0.6200
 1827ETH     CH16436   0.956   2.759   4.002 -0.4439 -0.3249  0.3693
 1827ETH     CH16437   0.822   2.726   3.936 -0.1109  0.1967 -0.5937
 1827ETH     HO16438   1.105   2.647   4.037 -0.6344 -0.5599  0.9489
 1827ETH     HC16439   0.952   2.772   4.110  0.0872  0.5896  0.2909
 1827ETH     HC16440   0.978   2.859   3.964  0.9123 -1.0678 -0.8898
 1827ETH     HC16441   0.821   2.718   3.828  2.5008  2.4197 -0.8460
 1827ETH     HC16442   0.782   2.635   3.983  1.7445 -0.9215 -1.1164
 1827ETH     HC16443   0.754   2.808   3.959  1.0388  0.8828  0.4606
 1828ETH     OH16444   1.874   3.544   4.418  0.1974  0.1562  0.0535
 1828ETH     CH16445   1.868   3.675   4.367  0.1200  0.2649  0.3437
 1828ETH     CH16446   1.848   3.670   4.215  0.4331 -0.7063  0.3338
 1828ETH     HO16447   1.785   3.520   4.438  0.6861 -1.4161  0.4151
 1828ETH     HC16448   1.780   3.723   4.412  0.6039  0.1371  1.4347
 1828ETH     HC16449   1.963   3.719   4.398  0.8947 -1.5479  0.5856
 1828ETH     HC16450   1.754   3.620   4.190  0.1215 -0.6357  1.3133
 1828ETH     HC16451   1.836   3.774   4.184 -0.8237 -1.0049 -0.1969
 1828ETH     HC16452   1.928   3.620   4.161 -0.5506  0.8778 -2.6611
 1829ETH     OH16453   2.908   3.714   1.934 -0.2335  0.3110 -0.4549
 1829ETH     CH16454   3.045   3.724   1.965 -0.3387 -0.3205  0.2366
 1829ETH     CH16455   3.110   3.587   1.980 -0.6011 -0.4683  0.0126
 1829ETH     HO16456   2.860   3.681   2.008 -0.0017  0.4272 -0.2502
 1829ETH     HC16457   3.096   3.786   1.890 -1.5158 -0.9568 -1.1081
 1829ETH     HC16458   3.058   3.780   2.058  1.4959 -1.1734  0.5258
 1829ETH     HC16459   3.050   3.546   2.061  0.3107 -0.2476  0.8124
 1829ETH     HC16460   3.100   3.528   1.888 -1.8784 -0.0655 -0.1130
 1829ETH     HC16461   3.213   3.609   2.008 -0.5037 -0.9696  0.0649
 1830ETH     OH16462   5.661   2.693   4.023  0.1508  0.3212  0.0864
 1830ETH     CH16463   5.587   2.581   3.980  0.2203  0.4548 -0.3840
 1830ETH     CH16464   5.443   2.617   3.945 -0.2522 -0.6716  0.3767
 1830ETH     HO16465   5.675   2.760   3.957  2.7621  0.3625  0.6391
 1830ETH     HC16466   5.642   2.545   3.893 -2.4374 -1.6955 -1.2385
 1830ETH     HC16467   5.589   2.501   4.055  1.5345  0.0160 -0.8645
 1830ETH     HC16468   5.405   2.665   4.035  2.3952 -0.4618  1.4270
 1830ETH     HC16469   5.436   2.692   3.866 -2.1254  0.1127  1.2593
 1830ETH     HC16470   5.375   2.537   3.916 -0.9311 -0.4582  1.3411
 1831ETH     OH16471   4.848   3.825   4.094  0.4390  0.0139  0.0079
 1831ETH     CH16472   4.918   3.785   4.210 -0.0254 -0.1879  0.2200
 1831ETH     CH16473   4.829   3.823   4.329 -0.9883 -0.4992 -0.3956
 1831ETH     HO16474   4.828   3.916   4.107 -0.3489 -0.2978  1.1215
 1831ETH     HC16475   4.944   3.680   4.208  0.8850  0.0551 -2.1329
 1831ETH     HC16476   5.004   3.852   4.216 -1.1969  1.5706 -1.9398
 1831ETH     HC16477   4.875   3.781   4.419 -0.0643  1.7587  0.2172
 1831ETH     HC16478   4.807   3.928   4.351 -0.5235 -0.6692  0.9195
 1831ETH     HC16479   4.732   3.773   4.320 -1.5731  0.6430 -0.5144
 1832ETH     OH16480   0.590   5.913   0.420 -0.5556  0.2094 -0.2952
 1832ETH     CH16481   0.694   5.995   0.374 -0.4636  0.1504 -0.1951
 1832ETH     CH16482   0.691   6.123   0.457  1.0985  0.0238  0.0729
 1832ETH     HO16483   0.569   5.850   0.353  1.1707 -0.6264 -0.0796
 1832ETH     HC16484   0.799   5.965   0.377 -0.6753 -0.4304  1.7758
 1832ETH     HC16485   0.668   6.025   0.272 -2.2968 -0.3510  0.1165
 1832ETH     HC16486   0.604   6.175   0.416  0.9849 -0.4382 -0.2707
 1832ETH     HC16487   0.686   6.113   0.566 -1.0152  2.9936  0.3130
 1832ETH     HC16488   0.786   6.171   0.433  1.3584  0.1692  1.3299
 1833ETH     OH16489   5.734   1.346   0.906  0.3031 -0.6231 -0.0791
 1833ETH     CH16490   5.688   1.402   0.785  0.1879  0.0255  0.2639
 1833ETH     CH16491   5.558   1.474   0.820 -0.0176 -0.1035 -0.2207
 1833ETH     HO16492   5.681   1.271   0.928  2.2554 -1.2514  2.8449
 1833ETH     HC16493   5.764   1.471   0.750  0.9889 -0.0920  1.7182
 1833ETH     HC16494   5.681   1.334   0.700  1.2858  1.7304 -1.2197
 1833ETH     HC16495   5.586   1.551   0.892 -0.0089 -1.2714  1.0595
 1833ETH     HC16496   5.509   1.515   0.732 -0.0056  0.9173  0.2452
 1833ETH     HC16497   5.489   1.406   0.870 -0.9750  1.8007  1.1074
 1834ETH     OH16498   2.767   5.916   1.629  0.5812  0.1768  0.0201
 1834ETH     CH16499   2.783   5.826   1.736  0.2723 -0.0121 -0.0900
 1834ETH     CH16500   2.774   5.894   1.873 -0.0262  0.0794 -0.1551
 1834ETH     HO16501   2.847   5.966   1.622 -1.0744  2.9227  0.0118
 1834ETH     HC16502   2.697   5.761   1.727 -0.0626  0.2181  1.2542
 1834ETH     HC16503   2.870   5.762   1.721 -0.9712 -1.7810  0.1756
 1834ETH     HC16504   2.778   5.819   1.953 -3.3317  1.4779  1.4221
 1834ETH     HC16505   2.860   5.959   1.887 -0.9878  1.2757  0.2363
 1834ETH     HC16506   2.676   5.940   1.878 -0.7936 -1.2524 -2.2133
 1835ETH     OH16507   1.117   5.586   3.115 -0.0807  0.4402 -0.3951
 1835ETH     CH16508   1.165   5.511   3.224 -0.2997  0.5123 -0.2462
 1835ETH     CH16509   1.062   5.533   3.334 -0.1084  0.0846  0.0194
 1835ETH     HO16510   1.147   5.675   3.124 -2.1439  1.2210 -0.8125
 1835ETH     HC16511   1.267   5.533   3.257  0.2423  0.0698 -1.5602
 1835ETH     HC16512   1.158   5.405   3.199 -0.4240  0.2592  0.8526
 1835ETH     HC16513   1.059   5.636   3.370 -0.4774 -0.2233  0.8961
 1835ETH     HC16514   0.956   5.516   3.313 -0.5738  2.1468  0.5623
 1835ETH     HC16515   1.092   5.471   3.419  1.1982 -1.2183 -1.3741
 1836ETH     OH16516   3.697   0.525   5.358 -0.1331  0.4133 -0.3601
 1836ETH     CH16517   3.769   0.645   5.337  0.0152  0.4851  0.5121
 1836ETH     CH16518   3.919   0.634   5.364  0.1176  1.2409  0.2653
 1836ETH     HO16519   3.606   0.543   5.376 -0.4439  0.3127 -1.7649
 1836ETH     HC16520   3.745   0.679   5.236 -1.6670  0.3550  0.8372
 1836ETH     HC16521   3.725   0.720   5.402  0.3462  1.4775 -0.3912
 1836ETH     HC16522   3.946   0.631   5.469  2.1105  2.5055 -0.1794
 1836ETH     HC16523   3.963   0.543   5.321 -1.1408  0.4518  0.6077
 1836ETH     HC16524   3.972   0.722   5.328  0.6357  0.6720 -0.3746
 1837ETH     OH16525   4.125   3.490   4.252 -0.1117 -0.4832 -0.2611
 1837ETH     CH16526   4.127   3.408   4.138 -0.1575 -0.0758 -0.5564
 1837ETH     CH16527   4.051   3.482   4.028 -0.1622  0.2155 -0.3572
 1837ETH     HO16528   4.210   3.531   4.263 -0.4410 -0.2407  1.5106
 1837ETH     HC16529   4.233   3.412   4.114  0.5163 -0.5967  2.2419
 1837ETH     HC16530   4.096   3.305   4.157  0.6204 -0.2430 -0.1830
 1837ETH     HC16531   4.101   3.577   4.006  0.4798 -0.0278  0.0543
 1837ETH     HC16532   4.050   3.425   3.935  1.5308  2.2183 -1.6569
 1837ETH     HC16533   3.955   3.523   4.060  0.6874  2.3435 -0.4084
 1838ETH     OH16534   5.619   4.643   1.635  0.0169  0.4792  0.0959
 1838ETH     CH16535   5.561   4.581   1.747  0.2633  0.1837  0.0626
 1838ETH     CH16536   5.657   4.472   1.794  0.3532  0.0372 -0.4710
 1838ETH     HO16537   5.562   4.715   1.614  0.6510  0.5002 -1.6661
 1838ETH     HC16538   5.531   4.633   1.838 -0.6815 -2.5614  1.3919
 1838ETH     HC16539   5.464   4.546   1.711  1.2313 -1.1988 -1.2690
 1838ETH     HC16540   5.640   4.437   1.896 -1.2741  1.0686 -0.3710
 1838ETH     HC16541   5.634   4.380   1.738  0.4111 -1.1135  1.3531
 1838ETH     HC16542   5.761   4.504   1.799  0.7798 -1.4399  0.3454
 1839ETH     OH16543   4.190   0.668   4.271  0.0582  0.3028 -0.2201
 1839ETH     CH16544   4.125   0.762   4.189 -0.0918 -0.1979 -0.6735
 1839ETH     CH16545   3.998   0.812   4.258 -0.3697 -0.2589 -1.1385
 1839ETH     HO16546   4.280   0.661   4.242 -0.2120  0.7242 -1.1654
 1839ETH     HC16547   4.182   0.853   4.175  2.3445 -1.9447 -2.5792
 1839ETH     HC16548   4.096   0.715   4.095 -0.1931 -0.9504 -0.2715
 1839ETH     HC16549   4.041   0.860   4.346  2.7369  0.0270 -2.7644
 1839ETH     HC16550   3.945   0.888   4.200 -2.6435 -0.6209  0.4005
 1839ETH     HC16551   3.930   0.730   4.279 -1.5052  0.6660 -1.1387
 1840ETH     OH16552   0.875   4.005   5.793  0.2296 -0.2722 -0.1220
 1840ETH     CH16553   0.840   4.137   5.830  0.0447 -0.3126 -0.1534
 1840ETH     CH16554   0.752   4.145   5.955 -0.3570  0.8630 -0.5079
 1840ETH     HO16555   0.930   4.016   5.718  0.6725 -0.1856  0.2131
 1840ETH     HC16556   0.932   4.193   5.844  0.0883 -0.4343  0.0588
 1840ETH     HC16557   0.792   4.170   5.738  2.0147 -0.5761 -1.3170
 1840ETH     HC16558   0.677   4.066   5.948  1.0951 -0.4273 -1.7941
 1840ETH     HC16559   0.816   4.118   6.039 -1.1350 -0.8348 -0.4416
 1840ETH     HC16560   0.702   4.235   5.992  0.1705  0.3738  1.4676
 1841ETH     OH16561   2.488   1.211   2.047 -0.0102  0.3420 -0.4197
 1841ETH     CH16562   2.403   1.100   2.065  0.5472 -0.0124  0.0677
 1841ETH     CH16563   2.374   1.074   2.212 -0.6294 -0.1410 -0.1762
 1841ETH     HO16564   2.441   1.264   1.984  0.9133 -1.6292 -2.8239
 1841ETH     HC16565   2.317   1.111   1.997  0.3311  1.5727  0.5729
 1841ETH     HC16566   2.443   1.015   2.011  0.1928 -0.7912  1.0262
 1841ETH     HC16567   2.325   1.163   2.252 -0.4366  0.4876 -1.3138
 1841ETH     HC16568   2.306   0.989   2.218 -0.1277 -0.5711 -0.5853
 1841ETH     HC16569   2.465   1.057   2.271 -2.1843  0.5194  2.5022
 1842ETH     OH16570   5.812   4.618   5.083 -0.6297 -0.2152  0.6107
 1842ETH     CH16571   5.939   4.587   5.134 -0.2746 -0.1933 -0.2557
 1842ETH     CH16572   5.931   4.653   5.272 -0.3521 -0.0772 -0.3165
 1842ETH     HO16573   5.805   4.712   5.091  0.9230  0.2329 -2.6220
 1842ETH     HC16574   5.961   4.481   5.126  1.4385  0.0193  1.2343
 1842ETH     HC16575   6.017   4.628   5.070 -0.1997  0.7924  0.4389
 1842ETH     HC16576   5.836   4.635   5.323 -0.3477 -2.9878 -1.2446
 1842ETH     HC16577   6.009   4.610   5.334 -0.5999  1.3754  1.0264
 1842ETH     HC16578   5.942   4.762   5.272 -2.1069  0.1551  1.6482
 1843ETH     OH16579   4.824   5.190   1.598  0.1958  0.0698  0.3028
 1843ETH     CH16580   4.888   5.087   1.525 -0.5786 -0.0439 -0.2216
 1843ETH     CH16581   4.791   5.049   1.414 -0.8768  0.1931 -0.0462
 1843ETH     HO16582   4.830   5.264   1.538 -0.0912 -0.3624 -0.2645
 1843ETH     HC16583   4.979   5.136   1.491 -2.2760  0.9779 -3.4680
 1843ETH     HC16584   4.904   4.999   1.588 -1.1332  0.0127 -0.0021
 1843ETH     HC16585   4.692   5.018   1.448 -0.1111 -2.8120 -0.3483
 1843ETH     HC16586   4.777   5.126   1.338  2.0175  2.0388  1.2152
 1843ETH     HC16587   4.837   4.961   1.367  2.2095  2.3703 -1.2512
 1844ETH     OH16588   0.049   3.040   6.097 -0.3880  0.6069 -0.2711
 1844ETH     CH16589  -0.024   3.084   6.209 -0.1655 -0.2549  0.2170
 1844ETH     CH16590   0.048   3.203   6.273  0.2569 -0.1509 -0.4486
 1844ETH     HO16591   0.016   2.955   6.070 -0.0788 -0.2133  1.7980
 1844ETH     HC16592  -0.128   3.102   6.183 -0.5732 -0.5085  1.6039
 1844ETH     HC16593  -0.025   3.000   6.279 -0.3453 -0.9090 -0.5702
 1844ETH     HC16594   0.149   3.179   6.304 -0.1531 -0.8080  0.3869
 1844ETH     HC16595   0.035   3.282   6.199  1.2285  1.5440  1.1442
 1844ETH     HC16596  -0.006   3.246   6.357  2.8395  0.2117  1.0623
 1845ETH     OH16597   0.612   4.854   3.858 -0.7726 -0.3112  0.5055
 1845ETH     CH16598   0.596   4.993   3.879  0.0289 -0.2141  0.4569
 1845ETH     CH16599   0.582   5.032   4.026 -0.6732 -0.0085  0.3345
 1845ETH     HO16600   0.644   4.850   3.770  0.2456 -1.2467  0.9033
 1845ETH     HC16601   0.507   5.024   3.825 -0.4941 -1.3585  0.6553
 1845ETH     HC16602   0.683   5.038   3.831 -2.2201  0.4211 -3.1555
 1845ETH     HC16603   0.588   5.141   4.024 -1.8963  0.0665  0.3572
 1845ETH     HC16604   0.485   4.995   4.059 -1.7605  1.3051 -1.2773
 1845ETH     HC16605   0.671   5.007   4.084 -0.1541 -1.8423 -1.2037
 1846ETH     OH16606   2.640   2.464   6.120  0.1108  0.1381  0.1623
 1846ETH     CH16607   2.746   2.487   6.030  0.0595 -0.8560 -0.1587
 1846ETH     CH16608   2.701   2.475   5.885  0.5119 -0.0900 -0.3616
 1846ETH     HO16609   2.635   2.374   6.148  0.4151 -0.0840 -0.4977
 1846ETH     HC16610   2.783   2.588   6.050 -0.7006 -0.1772 -2.1446
 1846ETH     HC16611   2.815   2.415   6.075  1.6529  1.1090  0.6585
 1846ETH     HC16612   2.642   2.386   5.865 -2.5554  1.8644 -0.4695
 1846ETH     HC16613   2.643   2.558   5.844 -0.8737  0.9303  3.4388
 1846ETH     HC16614   2.790   2.470   5.822  1.8864  1.9314  1.3423
 1847ETH     OH16615   1.264   3.039   1.658 -0.7735 -0.3155 -0.7515
 1847ETH     CH16616   1.175   3.031   1.767  0.0453  0.7114  0.0035
 1847ETH     CH16617   1.030   3.044   1.719  0.0819  0.5642 -0.1462
 1847ETH     HO16618   1.324   2.967   1.667  0.0587  0.1324 -2.6655
 1847ETH     HC16619   1.194   2.938   1.820  0.6496 -0.3937 -2.1324
 1847ETH     HC16620   1.204   3.114   1.832  1.7431  0.7935 -0.8349
 1847ETH     HC16621   1.026   3.143   1.673 -1.8567  1.0319  1.0037
 1847ETH     HC16622   1.002   2.972   1.643  0.7756  0.5696 -0.4140
 1847ETH     HC16623   0.948   3.034   1.789  0.7262 -2.1094  0.2913
 1848ETH     OH16624   2.007   2.302   5.609 -0.2507 -0.5163 -0.1706
 1848ETH     CH16625   2.077   2.188   5.654 -0.1738 -0.5866 -0.4696
 1848ETH     CH16626   2.012   2.145   5.785  0.0545  0.0010 -0.1614
 1848ETH     HO16627   2.029   2.374   5.666  1.2692 -0.2299 -1.1037
 1848ETH     HC16628   2.069   2.112   5.576  2.7588  0.9453 -2.3792
 1848ETH     HC16629   2.180   2.217   5.677  0.4791 -2.7970 -0.4646
 1848ETH     HC16630   2.006   2.228   5.856 -2.1055 -0.7053  0.5285
 1848ETH     HC16631   1.910   2.111   5.768 -0.3034  0.7619  0.4508
 1848ETH     HC16632   2.073   2.068   5.834  0.7083  1.4938  1.4495
 1849ETH     OH16633   3.337   1.523   4.288 -0.1592 -0.3998  0.4257
 1849ETH     CH16634   3.206   1.574   4.299 -0.2781 -0.5752 -0.1627
 1849ETH     CH16635   3.150   1.588   4.157 -0.2330  0.3061 -0.0983
 1849ETH     HO16636   3.374   1.539   4.373  2.0578 -0.4178 -0.4973
 1849ETH     HC16637   3.147   1.513   4.367  0.4866  1.2187  2.1721
 1849ETH     HC16638   3.215   1.663   4.361  0.5004 -0.2447 -0.7428
 1849ETH     HC16639   3.056   1.641   4.144 -0.1534  0.9478  1.7494
 1849ETH     HC16640   3.217   1.619   4.077 -0.8077  1.3757 -0.1687
 1849ETH     HC16641   3.127   1.485   4.128  0.6845 -0.0411  0.3824
 1850ETH     OH16642   4.084   2.405   2.937  0.3537 -0.4328  0.2105
 1850ETH     CH16643   4.072   2.536   2.888 -0.2385 -0.4201  0.3802
 1850ETH     CH16644   3.946   2.602   2.943 -0.1546  0.3003 -0.2792
 1850ETH     HO16645   4.171   2.369   2.929  0.8594  0.3601  1.9480
 1850ETH     HC16646   4.161   2.584   2.929  0.3689 -1.3356  0.1364
 1850ETH     HC16647   4.085   2.535   2.780  1.0538  0.5702  0.5130
 1850ETH     HC16648   3.855   2.563   2.898 -0.4490 -0.3596  0.8805
 1850ETH     HC16649   3.937   2.591   3.051  0.1886 -0.9906 -0.3835
 1850ETH     HC16650   3.938   2.704   2.906  0.4386  0.0993 -0.9701
 1851ETH     OH16651   2.917   1.615   3.416  0.2207 -0.1783 -0.4693
 1851ETH     CH16652   2.999   1.625   3.302  0.4575  0.1874 -0.2675
 1851ETH     CH16653   3.013   1.775   3.277  0.5872  0.2395  0.1184
 1851ETH     HO16654   2.947   1.541   3.467  0.4519  0.5636  0.4894
 1851ETH     HC16655   3.096   1.578   3.318  3.0869  4.6573 -1.8842
 1851ETH     HC16656   2.938   1.581   3.223 -0.8935  2.2113 -0.4033
 1851ETH     HC16657   3.039   1.827   3.370  1.5999 -2.5487  1.4342
 1851ETH     HC16658   3.084   1.798   3.198  2.6928 -0.7205  1.6921
 1851ETH     HC16659   2.916   1.816   3.247  1.1218  3.0706  2.0666
 1852ETH     OH16660   3.522   1.562   1.209 -0.7430 -0.0737 -0.3303
 1852ETH     CH16661   3.658   1.578   1.175 -0.6075 -0.1402  0.1759
 1852ETH     CH16662   3.734   1.662   1.278  0.1783 -0.3205 -0.2551
 1852ETH     HO16663   3.513   1.530   1.297 -1.1117  3.8802  1.1896
 1852ETH     HC16664   3.713   1.485   1.159  1.2986  1.0841 -0.5540
 1852ETH     HC16665   3.666   1.629   1.079 -0.6051 -1.9804 -0.8290
 1852ETH     HC16666   3.746   1.613   1.375 -0.6672  2.1013  1.0982
 1852ETH     HC16667   3.833   1.681   1.237 -0.5716  0.4532 -1.7557
 1852ETH     HC16668   3.697   1.764   1.280  0.1525 -0.3426  0.7387
 1853ETH     OH16669   5.598   0.886   2.781  0.2946  0.1557  0.2770
 1853ETH     CH16670   5.673   0.929   2.892  0.1320  0.9684  0.0684
 1853ETH     CH16671   5.611   0.888   3.025 -0.5720  0.5743 -0.3818
 1853ETH     HO16672   5.601   0.791   2.772  0.9010  0.1500  0.5091
 1853ETH     HC16673   5.775   0.892   2.877 -0.0272 -0.0145  1.3346
 1853ETH     HC16674   5.674   1.038   2.900  0.3126  0.9622  0.1501
 1853ETH     HC16675   5.635   0.784   3.046  0.0723  0.4469 -1.7118
 1853ETH     HC16676   5.649   0.943   3.111 -0.1858  2.1375 -1.5254
 1853ETH     HC16677   5.505   0.914   3.026 -0.4075  1.2666 -0.0887
 1854ETH     OH16678   1.315   0.422   1.322 -0.2297 -0.2214  0.0170
 1854ETH     CH16679   1.444   0.462   1.362 -0.0876 -0.6710  0.0155
 1854ETH     CH16680   1.511   0.351   1.442 -0.3465 -0.7322  0.1483
 1854ETH     HO16681   1.272   0.396   1.403  3.0006 -1.6348  1.3681
 1854ETH     HC16682   1.500   0.494   1.274 -0.9514  0.5468 -0.1140
 1854ETH     HC16683   1.451   0.549   1.427  1.3434  0.5680 -1.7522
 1854ETH     HC16684   1.500   0.249   1.406 -0.5965 -0.7682  0.3256
 1854ETH     HC16685   1.614   0.376   1.471 -1.3378  2.8314  0.8597
 1854ETH     HC16686   1.471   0.363   1.543  1.9375 -0.3159  1.0422
 1855ETH     OH16687   0.186   3.635   1.809 -0.5841 -0.2370 -0.2572
 1855ETH     CH16688   0.256   3.595   1.693 -0.1066 -0.5161  0.1262
 1855ETH     CH16689   0.161   3.598   1.574 -0.0614  0.3404  0.1085
 1855ETH     HO16690   0.254   3.659   1.869  0.1691 -0.7078 -0.9116
 1855ETH     HC16691   0.338   3.666   1.678  0.0980 -0.8240 -0.2011
 1855ETH     HC16692   0.308   3.499   1.694  2.0113  0.5846  2.0015
 1855ETH     HC16693   0.087   3.676   1.593  0.8132  1.0119  0.8027
 1855ETH     HC16694   0.218   3.618   1.483 -1.7226  1.0115 -0.8168
 1855ETH     HC16695   0.100   3.510   1.557  1.5785 -0.8619  0.3363
 1856ETH     OH16696   0.935   4.281   3.710  0.3320  0.0044  0.1443
 1856ETH     CH16697   0.926   4.167   3.793  0.5722 -0.4881 -0.4945
 1856ETH     CH16698   0.813   4.071   3.756  0.0469 -0.0704  0.0189
 1856ETH     HO16699   1.006   4.335   3.739  2.5951 -1.8922 -1.6438
 1856ETH     HC16700   1.018   4.108   3.791  0.2205 -1.1112  1.0781
 1856ETH     HC16701   0.924   4.203   3.896  1.0817 -2.1731  0.1207
 1856ETH     HC16702   0.829   4.034   3.655 -0.3661  0.1116 -0.1140
 1856ETH     HC16703   0.815   3.988   3.826  1.9286  1.3723  1.7387
 1856ETH     HC16704   0.723   4.129   3.776  0.3404  0.2974  0.3054
 1857ETH     OH16705   2.903   5.928   6.249  0.2780 -0.2374 -0.7153
 1857ETH     CH16706   2.994   6.032   6.277 -0.4224  0.2191 -0.1160
 1857ETH     CH16707   3.112   5.969   6.350 -0.3764  0.4486  0.0050
 1857ETH     HO16708   2.941   5.865   6.190  0.6554 -1.3538  0.7183
 1857ETH     HC16709   3.023   6.081   6.184  2.3466  0.2958  0.7356
 1857ETH     HC16710   2.952   6.112   6.338  0.6814  1.8845 -1.4835
 1857ETH     HC16711   3.088   5.907   6.436  1.8744 -0.7595 -0.1827
 1857ETH     HC16712   3.169   5.899   6.290 -2.1552 -0.5848 -0.4816
 1857ETH     HC16713   3.179   6.049   6.384 -1.8566  1.3609  0.8162
 1858ETH     OH16714   1.726   0.121   6.114 -0.5376  0.0035  0.4679
 1858ETH     CH16715   1.740  -0.008   6.168  0.4041 -0.1824 -0.2094
 1858ETH     CH16716   1.713  -0.116   6.064 -0.0850 -0.4917  0.2355
 1858ETH     HO16717   1.670   0.173   6.169 -2.5391 -1.2261 -0.3627
 1858ETH     HC16718   1.843  -0.016   6.204  0.4615 -1.7375 -0.6596
 1858ETH     HC16719   1.663  -0.023   6.244 -0.9080 -0.8847 -1.6526
 1858ETH     HC16720   1.788  -0.124   5.985 -0.1543 -0.8311  0.2017
 1858ETH     HC16721   1.714  -0.216   6.107  1.0643 -0.8801 -0.6857
 1858ETH     HC16722   1.615  -0.102   6.017 -1.4360 -0.1633  3.0272
 1859ETH     OH16723   4.948   4.581   5.146 -0.5209 -0.0961 -0.6483
 1859ETH     CH16724   4.927   4.661   5.260 -0.0610 -0.3264 -0.4056
 1859ETH     CH16725   5.059   4.673   5.336  0.0265 -0.4040 -0.5439
 1859ETH     HO16726   4.983   4.497   5.172 -0.5489 -0.5555 -2.0538
 1859ETH     HC16727   4.893   4.758   5.224  2.3930  1.5096  2.0108
 1859ETH     HC16728   4.852   4.616   5.325  2.3586 -0.7399  2.2054
 1859ETH     HC16729   5.086   4.573   5.371 -0.1178 -1.4466 -3.3463
 1859ETH     HC16730   5.146   4.706   5.279  1.3763 -1.4260  0.8630
 1859ETH     HC16731   5.053   4.748   5.415 -1.6271 -0.7364 -0.3367
 1860ETH     OH16732   5.595   0.108   3.757 -0.3083 -0.0079  0.1977
 1860ETH     CH16733   5.671   0.105   3.639 -0.0831 -0.0350  0.3431
 1860ETH     CH16734   5.745  -0.029   3.629 -0.3002 -0.1173 -0.2063
 1860ETH     HO16735   5.523   0.046   3.751  1.1396 -1.5506 -1.4788
 1860ETH     HC16736   5.595   0.105   3.560 -0.4808  0.0681  0.7247
 1860ETH     HC16737   5.724   0.200   3.637  1.4378 -0.8855 -1.4155
 1860ETH     HC16738   5.809  -0.036   3.541 -1.5540  0.1129 -1.1525
 1860ETH     HC16739   5.806  -0.029   3.719 -0.6455 -0.8786  0.0273
 1860ETH     HC16740   5.680  -0.115   3.634  1.9417 -1.8918 -0.8115
 1861ETH     OH16741   0.034   3.374   2.538 -0.4356  0.1790  0.3083
 1861ETH     CH16742   0.097   3.476   2.612 -0.4427  0.4308 -0.0347
 1861ETH     CH16743   0.017   3.507   2.738 -0.6115 -0.2948  0.0400
 1861ETH     HO16744   0.096   3.341   2.475 -0.3348 -4.1238  2.4375
 1861ETH     HC16745   0.195   3.438   2.643 -0.9652 -0.3277  0.7074
 1861ETH     HC16746   0.110   3.558   2.542 -1.5376 -0.4280 -1.2611
 1861ETH     HC16747  -0.088   3.529   2.717 -0.6112  0.5059  0.8197
 1861ETH     HC16748  -0.004   3.416   2.794 -0.4177 -2.2162 -2.9291
 1861ETH     HC16749   0.065   3.576   2.808 -1.2976 -0.5289  0.7480
 1862ETH     OH16750   4.053   2.993   1.517 -0.3094 -0.5968  0.4681
 1862ETH     CH16751   4.193   2.988   1.536 -0.2293  0.4691  0.2170
 1862ETH     CH16752   4.274   3.104   1.479 -0.2786  0.3803 -0.0374
 1862ETH     HO16753   4.034   2.937   1.443  0.6419  1.5024 -1.4164
 1862ETH     HC16754   4.215   2.967   1.640 -1.0675  1.9463  0.7067
 1862ETH     HC16755   4.220   2.895   1.485 -0.1498 -0.2184  1.5051
 1862ETH     HC16756   4.369   3.125   1.529 -0.5425  1.3965  0.0626
 1862ETH     HC16757   4.310   3.074   1.381  1.5553  0.8342  0.4658
 1862ETH     HC16758   4.212   3.194   1.481  1.1074  1.3917 -1.5202
 1863ETH     OH16759   4.889   3.382   5.963 -0.7118  0.0814 -0.0625
 1863ETH     CH16760   4.880   3.286   6.066  0.0209  0.0126 -0.0550
 1863ETH     CH16761   4.971   3.329   6.181  0.0281 -0.3997  0.0946
 1863ETH     HO16762   4.881   3.331   5.884 -1.7091 -3.1159  2.0031
 1863ETH     HC16763   4.773   3.281   6.086 -0.4446  0.1833 -2.3247
 1863ETH     HC16764   4.914   3.195   6.017  0.0299  1.5552 -3.0405
 1863ETH     HC16765   4.940   3.423   6.226 -1.9444 -0.3226 -1.3530
 1863ETH     HC16766   4.945   3.254   6.255 -0.2140 -1.7534 -1.3208
 1863ETH     HC16767   5.079   3.322   6.168  0.2801  0.0111  1.8744
 1864ETH     OH16768   2.732   5.550   1.868 -0.3569 -0.0125  0.0011
 1864ETH     CH16769   2.674   5.424   1.893  0.1765 -0.3337 -0.3738
 1864ETH     CH16770   2.788   5.324   1.912 -0.1381 -0.6386 -0.0781
 1864ETH     HO16771   2.791   5.535   1.796 -1.4185  3.8412 -1.7980
 1864ETH     HC16772   2.618   5.436   1.986  0.4360  1.3868 -0.4245
 1864ETH     HC16773   2.614   5.401   1.805  1.1739 -0.1787 -1.1073
 1864ETH     HC16774   2.849   5.322   1.822 -0.5319 -0.1411 -0.3604
 1864ETH     HC16775   2.850   5.346   1.999  0.8408 -1.9115 -0.4371
 1864ETH     HC16776   2.752   5.222   1.928  2.9501 -1.7796 -0.0666
 1865ETH     OH16777   3.911   4.850   0.542 -0.1250 -0.0037  0.2228
 1865ETH     CH16778   3.772   4.833   0.562 -0.1614  0.0748  0.0396
 1865ETH     CH16779   3.715   4.960   0.625 -0.6006  0.0160 -0.2402
 1865ETH     HO16780   3.960   4.771   0.560  1.8460  0.8874 -1.0423
 1865ETH     HC16781   3.721   4.804   0.470  2.2396 -0.8224 -1.0431
 1865ETH     HC16782   3.752   4.752   0.632 -3.7369  2.4434  1.9215
 1865ETH     HC16783   3.607   4.946   0.611 -0.5566 -0.2208 -0.3370
 1865ETH     HC16784   3.739   4.969   0.731  0.0792 -0.6445 -0.3347
 1865ETH     HC16785   3.743   5.046   0.564  3.6244 -0.6024  0.6958
 1866ETH     OH16786   2.735   2.483   0.902 -0.0405 -0.4330 -0.3039
 1866ETH     CH16787   2.848   2.416   0.953 -0.1739 -0.0427  0.5038
 1866ETH     CH16788   2.796   2.317   1.057 -0.4202 -0.1916  0.2378
 1866ETH     HO16789   2.692   2.526   0.974  1.1834 -0.0731  0.2230
 1866ETH     HC16790   2.905   2.363   0.877  0.1116  0.5067  0.3270
 1866ETH     HC16791   2.922   2.481   1.001  0.4732 -0.0243 -0.5130
 1866ETH     HC16792   2.730   2.238   1.020 -0.4832  0.0947 -0.2588
 1866ETH     HC16793   2.877   2.258   1.100  0.8831  0.6768 -1.0108
 1866ETH     HC16794   2.744   2.367   1.138  0.3742  1.3801 -0.1973
 1867ETH     OH16795   4.902   2.320   1.643  0.5431  0.4451 -0.3923
 1867ETH     CH16796   4.884   2.456   1.609  0.2529  0.3440 -0.6510
 1867ETH     CH16797   4.986   2.543   1.682 -0.0184 -0.3206  0.5333
 1867ETH     HO16798   4.817   2.282   1.656  2.1161 -2.7130  1.2811
 1867ETH     HC16799   4.885   2.457   1.500  2.3796  2.6345 -0.6540
 1867ETH     HC16800   4.785   2.481   1.644 -0.3802 -0.9517 -1.4623
 1867ETH     HC16801   5.089   2.510   1.673  0.0886  0.1443  0.0183
 1867ETH     HC16802   4.990   2.641   1.633 -0.9507  0.5767  2.1805
 1867ETH     HC16803   4.963   2.561   1.787 -2.8901  0.2060 -0.1412
 1868ETH     OH16804   2.687   3.003   5.626 -0.8628  0.1064  0.0970
 1868ETH     CH16805   2.772   3.010   5.738 -0.3635 -0.0470 -0.2758
 1868ETH     CH16806   2.810   3.155   5.767 -1.3726  0.0530  0.5358
 1868ETH     HO16807   2.714   2.922   5.587 -1.3576  1.1986 -2.6523
 1868ETH     HC16808   2.723   2.964   5.823 -0.3278  0.0083 -0.2239
 1868ETH     HC16809   2.861   2.948   5.721 -0.9456 -1.5843  2.0712
 1868ETH     HC16810   2.871   3.182   5.854 -1.2215  0.9517  0.1579
 1868ETH     HC16811   2.877   3.181   5.686 -2.4813  0.9480 -0.1080
 1868ETH     HC16812   2.722   3.219   5.772 -1.2914  0.3641 -1.7555
 1869ETH     OH16813   0.035   1.011   3.454  0.2838  0.4300 -0.4903
 1869ETH     CH16814   0.096   1.073   3.565 -0.0070 -0.2485  0.0418
 1869ETH     CH16815   0.236   1.121   3.530 -0.3415  0.6579 -0.0475
 1869ETH     HO16816  -0.055   0.996   3.476  1.0579 -0.4900  2.2504
 1869ETH     HC16817   0.039   1.158   3.604  0.1475  0.0820 -0.4627
 1869ETH     HC16818   0.102   0.994   3.641  0.4658 -2.0304 -1.8021
 1869ETH     HC16819   0.317   1.094   3.598 -1.7460 -1.9422  0.6383
 1869ETH     HC16820   0.270   1.078   3.436  0.3821 -0.6806  0.8208
 1869ETH     HC16821   0.229   1.228   3.509  1.3171  1.2832  2.3022
 1870ETH     OH16822   2.592   2.329   2.726 -0.0691 -0.4670 -0.1930
 1870ETH     CH16823   2.711   2.284   2.666  0.0058 -0.6612  0.1026
 1870ETH     CH16824   2.700   2.269   2.514 -0.5076 -0.0146  0.0756
 1870ETH     HO16825   2.604   2.323   2.819  1.3979  2.3557 -0.1152
 1870ETH     HC16826   2.795   2.350   2.687 -0.3477 -0.7666  1.9397
 1870ETH     HC16827   2.735   2.185   2.705 -1.3149 -1.5201 -1.1903
 1870ETH     HC16828   2.776   2.200   2.476 -0.6790 -0.1365 -0.0460
 1870ETH     HC16829   2.607   2.224   2.480  0.7329 -2.0359 -0.6822
 1870ETH     HC16830   2.705   2.359   2.452 -1.3326  0.6353  0.9393
 1871ETH     OH16831   5.170   5.651   5.039 -0.4158  0.0818 -0.3248
 1871ETH     CH16832   5.279   5.640   5.128 -0.2262  0.7325 -0.4688
 1871ETH     CH16833   5.384   5.746   5.099  0.3458  0.1567 -0.5156
 1871ETH     HO16834   5.136   5.565   5.023 -1.1114  0.3181 -0.1338
 1871ETH     HC16835   5.239   5.668   5.226  1.3370  1.2380  0.0475
 1871ETH     HC16836   5.330   5.544   5.138  0.0974  0.9110 -0.4013
 1871ETH     HC16837   5.439   5.729   5.006  0.1316 -1.2224 -0.4013
 1871ETH     HC16838   5.334   5.843   5.097  1.7769  0.9208 -0.2726
 1871ETH     HC16839   5.462   5.757   5.175 -0.8153 -1.3622  0.9400
 1872ETH     OH16840   4.443   5.587   0.058  0.2385 -0.1729  0.5668
 1872ETH     CH16841   4.401   5.498   0.159 -0.2504  0.0902  0.5962
 1872ETH     CH16842   4.250   5.516   0.170 -0.3491 -0.3545  0.0168
 1872ETH     HO16843   4.538   5.583   0.052  0.3466 -1.0612  2.4368
 1872ETH     HC16844   4.417   5.395   0.125  2.1715  0.5102  0.3459
 1872ETH     HC16845   4.448   5.514   0.256 -0.2731 -0.7900  0.7596
 1872ETH     HC16846   4.204   5.446   0.239 -2.5349  0.4084 -0.6165
 1872ETH     HC16847   4.219   5.619   0.187 -0.7562 -0.6502  1.1052
 1872ETH     HC16848   4.205   5.493   0.073  0.7106  0.7756 -0.7637
 1873ETH     OH16849   6.117   0.801   2.781 -0.5937 -0.0506  0.1087
 1873ETH     CH16850   6.083   0.790   2.644  0.1072 -0.1817 -0.0567
 1873ETH     CH16851   6.085   0.649   2.586 -0.1240 -0.0273 -0.4366
 1873ETH     HO16852   6.202   0.762   2.789  0.6556  2.4309 -0.5900
 1873ETH     HC16853   5.988   0.842   2.629  1.2960  1.9243 -0.4846
 1873ETH     HC16854   6.152   0.845   2.580 -0.0929  0.3202  0.1565
 1873ETH     HC16855   6.069   0.659   2.478 -0.9251 -0.9960 -0.4153
 1873ETH     HC16856   6.174   0.590   2.602  1.2625  2.0690 -0.2403
 1873ETH     HC16857   5.996   0.597   2.623 -0.2482  0.1421 -0.4936
 1874ETH     OH16858   2.661   3.363   3.578  0.2140  0.6504 -0.3048
 1874ETH     CH16859   2.734   3.426   3.680  0.1283  0.3341 -0.0467
 1874ETH     CH16860   2.735   3.335   3.803  0.4306 -0.0959 -0.3679
 1874ETH     HO16861   2.701   3.284   3.547  0.4221  1.1425 -1.3133
 1874ETH     HC16862   2.830   3.464   3.645 -0.7772  2.0120 -0.7712
 1874ETH     HC16863   2.681   3.520   3.698 -0.1740  0.6138 -2.2329
 1874ETH     HC16864   2.636   3.316   3.845  0.1624  0.2656 -0.8191
 1874ETH     HC16865   2.787   3.243   3.776  0.6085 -0.1345  0.1073
 1874ETH     HC16866   2.786   3.389   3.882 -2.6406  2.5360 -0.0755
 1875ETH     OH16867   1.199   4.053   1.140 -0.1665  0.1018 -0.4041
 1875ETH     CH16868   1.337   4.082   1.138 -0.2522  0.5605  0.1551
 1875ETH     CH16869   1.370   4.207   1.219  0.2021  0.1842  0.5515
 1875ETH     HO16870   1.176   4.044   1.232  0.6421  2.5883  0.0613
 1875ETH     HC16871   1.385   4.001   1.193 -0.6109  0.7158  0.7072
 1875ETH     HC16872   1.371   4.091   1.035 -1.2703 -1.3290 -0.3845
 1875ETH     HC16873   1.296   4.285   1.203 -0.3382 -0.3014  0.6494
 1875ETH     HC16874   1.366   4.182   1.325 -0.2440  0.8690  0.6985
 1875ETH     HC16875   1.471   4.242   1.199 -0.2848  1.0551 -0.3989
 1876ETH     OH16876   1.334   4.773   0.511 -0.3996  0.1895 -0.2009
 1876ETH     CH16877   1.417   4.671   0.561 -0.3704 -0.0292 -0.6909
 1876ETH     CH16878   1.563   4.713   0.541 -0.2755  0.0013  0.0465
 1876ETH     HO16879   1.325   4.836   0.581  0.5257 -1.6062  1.5939
 1876ETH     HC16880   1.398   4.660   0.668  1.9257  1.7004 -0.0657
 1876ETH     HC16881   1.398   4.576   0.511 -1.4609 -1.2074  1.8384
 1876ETH     HC16882   1.593   4.801   0.598  1.2648  0.0656 -0.8350
 1876ETH     HC16883   1.636   4.643   0.581 -0.7688  0.1565  1.2303
 1876ETH     HC16884   1.580   4.741   0.437  3.4319  1.2150  0.9201
 1877ETH     OH16885   0.925   4.870   1.470 -0.1160  0.1641 -1.1943
 1877ETH     CH16886   0.945   4.731   1.463  0.0568  0.1172  0.0900
 1877ETH     CH16887   0.995   4.676   1.596  0.7357  0.6985  0.0783
 1877ETH     HO16888   0.842   4.887   1.513  0.1282 -0.0091 -0.6494
 1877ETH     HC16889   0.850   4.684   1.439  0.8964 -1.4215 -0.3717
 1877ETH     HC16890   1.009   4.692   1.383 -0.3833  0.3947 -0.4053
 1877ETH     HC16891   0.929   4.688   1.682  1.9534 -0.6786  1.2520
 1877ETH     HC16892   1.012   4.568   1.588  0.3292  0.3579  3.1491
 1877ETH     HC16893   1.097   4.712   1.614  0.8956  0.8262 -1.0337
 1878ETH     OH16894   1.857   0.948   1.586  0.2378  0.4682  0.0748
 1878ETH     CH16895   1.902   0.954   1.453  0.8758 -0.1502  0.2543
 1878ETH     CH16896   1.889   0.811   1.399 -0.2786 -0.1494  0.5067
 1878ETH     HO16897   1.923   0.904   1.638 -1.8290 -1.5258  1.1286
 1878ETH     HC16898   1.824   1.014   1.405  1.5510 -0.6844 -1.5481
 1878ETH     HC16899   1.998   1.004   1.449 -0.7765  3.1310  0.1797
 1878ETH     HC16900   1.968   0.740   1.424  1.5139  1.6941  0.3011
 1878ETH     HC16901   1.791   0.771   1.424  0.4472 -1.3284  1.5603
 1878ETH     HC16902   1.891   0.807   1.290  1.2064  0.6659  0.4927
 1879ETH     OH16903   1.139   1.314   3.672 -0.2480  0.1429 -0.2063
 1879ETH     CH16904   1.220   1.221   3.603  0.1479  0.0674  0.3545
 1879ETH     CH16905   1.343   1.181   3.685  0.1612  0.0065  0.3059
 1879ETH     HO16906   1.078   1.350   3.609 -2.0891 -0.2650  1.3018
 1879ETH     HC16907   1.162   1.136   3.569  0.1775  0.4661 -0.7392
 1879ETH     HC16908   1.253   1.274   3.513  1.6863 -0.2938  0.6859
 1879ETH     HC16909   1.326   1.155   3.790  0.1430 -1.3059 -0.0270
 1879ETH     HC16910   1.397   1.099   3.639 -0.6038 -0.2294 -0.1904
 1879ETH     HC16911   1.412   1.264   3.700 -1.9066  1.8593  0.0310
 1880ETH     OH16912   0.643   3.798   4.382 -0.5100  0.3852 -0.0483
 1880ETH     CH16913   0.585   3.675   4.345 -0.5572  0.3408  0.1703
 1880ETH     CH16914   0.630   3.640   4.203  0.0586  0.4460  0.3368
 1880ETH     HO16915   0.647   3.804   4.476 -0.8358  0.9474 -0.0669
 1880ETH     HC16916   0.623   3.597   4.411 -0.1807 -0.5696 -1.0963
 1880ETH     HC16917   0.478   3.684   4.359 -0.7371 -0.3031 -0.7432
 1880ETH     HC16918   0.588   3.541   4.185  0.8271  0.1335  0.2220
 1880ETH     HC16919   0.606   3.699   4.114 -0.5952 -0.0973  0.1520
 1880ETH     HC16920   0.739   3.632   4.196  0.0831  0.6561  0.4656
 1881ETH     OH16921   4.115   0.979   6.059 -0.0010 -0.6869  0.1139
 1881ETH     CH16922   4.051   0.984   6.184  0.5368  0.0963  0.3586
 1881ETH     CH16923   4.039   0.841   6.238  0.6880 -0.0384  0.0391
 1881ETH     HO16924   4.047   0.957   5.997 -0.0325  2.4718 -1.0391
 1881ETH     HC16925   4.115   1.044   6.249  0.8386 -0.7255  0.8367
 1881ETH     HC16926   3.962   1.046   6.178 -0.0353 -0.8600 -1.2955
 1881ETH     HC16927   4.141   0.809   6.258  0.5799  1.1136  2.7538
 1881ETH     HC16928   3.980   0.843   6.330 -2.7632 -0.7468 -2.0744
 1881ETH     HC16929   3.990   0.776   6.166  0.4129 -0.3487  0.5031
 1882ETH     OH16930   1.739   1.041   3.296  0.1407 -0.9940 -0.0109
 1882ETH     CH16931   1.602   1.053   3.327  0.1591  0.4406 -0.4646
 1882ETH     CH16932   1.595   1.153   3.442 -0.4766  0.7608 -0.7829
 1882ETH     HO16933   1.737   0.974   3.229 -1.8874 -1.7948  0.8081
 1882ETH     HC16934   1.547   1.092   3.241 -0.0439  1.1016 -0.0378
 1882ETH     HC16935   1.554   0.959   3.352  0.7891  0.2690  0.1355
 1882ETH     HC16936   1.657   1.238   3.415  0.4560 -0.2367 -1.8279
 1882ETH     HC16937   1.491   1.184   3.453 -0.1122  1.7701 -0.0590
 1882ETH     HC16938   1.622   1.113   3.540 -0.8105 -0.3661 -1.1459
 1883ETH     OH16939   0.832   1.440   2.343  0.0491  0.0704 -0.1283
 1883ETH     CH16940   0.872   1.360   2.452  0.0398  0.2176 -0.0181
 1883ETH     CH16941   0.755   1.291   2.522  0.5428 -0.3685  0.2440
 1883ETH     HO16942   0.800   1.378   2.278 -1.1478 -0.5641  1.0504
 1883ETH     HC16943   0.938   1.282   2.415 -1.1114 -0.3464 -0.9240
 1883ETH     HC16944   0.921   1.423   2.526  1.1654  0.2720 -0.8105
 1883ETH     HC16945   0.702   1.227   2.451  0.4712 -1.2296  1.0625
 1883ETH     HC16946   0.790   1.233   2.608  1.9266 -1.3274 -0.9269
 1883ETH     HC16947   0.678   1.352   2.569 -1.9100 -3.8239  0.9775
 1884ETH     OH16948   0.149   4.746   5.672  0.6305 -0.0469 -0.2622
 1884ETH     CH16949   0.270   4.775   5.608  0.3359 -0.0263 -0.8068
 1884ETH     CH16950   0.316   4.906   5.672  0.3011 -0.1283 -0.5729
 1884ETH     HO16951   0.181   4.696   5.746 -1.3379  0.8787  1.2850
 1884ETH     HC16952   0.343   4.699   5.635  1.0291  1.1102  0.5792
 1884ETH     HC16953   0.266   4.797   5.501 -1.3272 -0.6737 -0.8865
 1884ETH     HC16954   0.418   4.933   5.643  0.4211 -1.2569 -1.2468
 1884ETH     HC16955   0.252   4.990   5.644  0.9190  0.3369 -0.6071
 1884ETH     HC16956   0.303   4.894   5.779  0.3497 -1.0359 -0.6684
 1885ETH     OH16957   3.710   5.471   5.889 -0.1367  0.1657 -0.2551
 1885ETH     CH16958   3.846   5.502   5.869  0.0744 -0.4132  0.2704
 1885ETH     CH16959   3.924   5.399   5.788  0.4935 -0.1485  0.3319
 1885ETH     HO16960   3.699   5.393   5.941  1.6529  2.1835  3.3599
 1885ETH     HC16961   3.856   5.601   5.824 -1.8074  0.4890  1.7540
 1885ETH     HC16962   3.891   5.502   5.969  1.2932  0.4801 -0.2696
 1885ETH     HC16963   3.910   5.416   5.681 -0.5539 -0.7356  0.3638
 1885ETH     HC16964   4.031   5.397   5.803  0.5638 -0.2846 -0.1883
 1885ETH     HC16965   3.889   5.301   5.822  1.5876 -0.9566 -0.8463
 1886ETH     OH16966   4.619   0.702   4.689  0.0492 -0.3357  0.8436
 1886ETH     CH16967   4.603   0.589   4.772  0.5415 -0.4402  0.8019
 1886ETH     CH16968   4.675   0.464   4.722  0.3269 -0.1254 -0.2961
 1886ETH     HO16969   4.712   0.714   4.675 -0.2889  0.2107 -0.9736
 1886ETH     HC16970   4.636   0.608   4.874 -0.9579  0.8983  1.0584
 1886ETH     HC16971   4.496   0.567   4.780  0.5571 -1.1448 -0.8539
 1886ETH     HC16972   4.782   0.479   4.719  0.2515  0.3258 -0.7029
 1886ETH     HC16973   4.653   0.372   4.777 -0.7793 -3.0086 -5.1606
 1886ETH     HC16974   4.641   0.439   4.621 -1.0856  0.8348 -0.0717
 1887ETH     OH16975   2.103   4.518   1.197  0.3886 -0.0178 -0.3618
 1887ETH     CH16976   1.996   4.588   1.138  0.5077  0.2928 -0.2094
 1887ETH     CH16977   1.949   4.490   1.031  0.2262 -0.0264  0.2051
 1887ETH     HO16978   2.141   4.565   1.270 -0.5940 -2.3354  1.7183
 1887ETH     HC16979   1.919   4.617   1.209 -0.3256  0.5360 -1.2075
 1887ETH     HC16980   2.031   4.683   1.098 -4.3538  2.6993  0.8674
 1887ETH     HC16981   1.928   4.392   1.075  3.5618 -0.5052  0.8437
 1887ETH     HC16982   1.857   4.527   0.986  0.1272  0.7571  1.0444
 1887ETH     HC16983   2.026   4.472   0.956  1.2067  2.4231  0.5906
 1888ETH     OH16984   5.126   1.803   0.237 -0.5365 -0.4894 -0.2864
 1888ETH     CH16985   5.108   1.926   0.169 -0.5855 -0.3161  0.0388
 1888ETH     CH16986   5.092   2.045   0.264  0.3360  0.0365 -0.2495
 1888ETH     HO16987   5.205   1.811   0.287 -0.7729 -0.1217  0.0369
 1888ETH     HC16988   5.186   1.947   0.096 -0.4620 -1.5190 -0.1939
 1888ETH     HC16989   5.018   1.909   0.110 -1.2688 -3.7461  1.9146
 1888ETH     HC16990   5.183   2.061   0.322  0.8893 -0.3555 -0.9911
 1888ETH     HC16991   5.074   2.136   0.207 -0.6021 -0.9968 -1.6523
 1888ETH     HC16992   5.007   2.022   0.329 -0.0488 -0.2059 -0.8377
 1889ETH     OH16993   1.840   5.505   3.978 -0.1782  0.1677 -0.3842
 1889ETH     CH16994   1.785   5.566   3.864 -0.9383 -0.1966 -0.2132
 1889ETH     CH16995   1.819   5.715   3.859  0.2987 -0.4692  0.0579
 1889ETH     HO16996   1.829   5.411   3.967  0.3273  0.0968 -0.2899
 1889ETH     HC16997   1.816   5.523   3.769 -0.6376  1.9654 -1.1208
 1889ETH     HC16998   1.679   5.559   3.888 -0.6581 -2.3946  0.5365
 1889ETH     HC16999   1.926   5.717   3.835  1.1054  0.5841  3.5652
 1889ETH     HC17000   1.769   5.763   3.775  0.2858 -0.0138  0.3296
 1889ETH     HC17001   1.803   5.777   3.947 -1.0711  1.4977 -1.5344
 1890ETH     OH17002   5.853   5.359   5.688  0.1635  0.0009 -0.5408
 1890ETH     CH17003   5.975   5.415   5.645  0.2754 -0.0382 -0.2717
 1890ETH     CH17004   5.989   5.430   5.494 -0.2685  0.8864 -0.2348
 1890ETH     HO17005   5.792   5.431   5.695 -0.7124 -0.7066 -0.7492
 1890ETH     HC17006   5.991   5.509   5.699 -0.3194  1.1098 -2.0586
 1890ETH     HC17007   6.058   5.356   5.684  0.6294  1.8604  2.0156
 1890ETH     HC17008   5.916   5.501   5.455 -1.3248  0.2043  0.4869
 1890ETH     HC17009   6.089   5.464   5.468  0.3899 -0.5324  0.4178
 1890ETH     HC17010   5.969   5.333   5.450  2.2120  0.8991 -1.4716
 1891ETH     OH17011   1.262   6.169   2.038 -0.0923  0.0052  0.1778
 1891ETH     CH17012   1.330   6.049   2.006 -0.2683  0.1310 -0.6958
 1891ETH     CH17013   1.259   5.966   1.900 -0.5831 -0.4099 -0.0669
 1891ETH     HO17014   1.296   6.188   2.124  1.6019 -1.6426 -0.0783
 1891ETH     HC17015   1.429   6.062   1.962  0.5057 -1.0000  0.6682
 1891ETH     HC17016   1.339   5.995   2.101 -3.0763 -0.3120 -0.6580
 1891ETH     HC17017   1.228   6.024   1.813  1.4075  0.3833 -0.2850
 1891ETH     HC17018   1.325   5.896   1.848  2.2914  1.6979  0.6300
 1891ETH     HC17019   1.177   5.914   1.948 -1.3255  0.3735 -0.4766
 1892ETH     OH17020   6.197   4.804   1.916 -0.5421 -0.2273 -0.0660
 1892ETH     CH17021   6.219   4.932   1.971  0.4465 -0.3688 -0.1164
 1892ETH     CH17022   6.124   5.036   1.911 -0.0736 -0.4995  0.4740
 1892ETH     HO17023   6.118   4.763   1.948 -1.9060  0.7015 -2.1166
 1892ETH     HC17024   6.191   4.915   2.076 -2.1653  1.9264 -0.3716
 1892ETH     HC17025   6.320   4.964   1.948  0.3448  0.7101  0.8470
 1892ETH     HC17026   6.125   5.134   1.958  2.6259 -0.4813  0.4559
 1892ETH     HC17027   6.141   5.053   1.805  1.4165 -1.2401  0.5877
 1892ETH     HC17028   6.020   5.002   1.919  0.8542 -3.4978  0.2864
 1893ETH     OH17029   1.681   2.258   3.074  0.4744 -0.1464  0.1165
 1893ETH     CH17030   1.775   2.229   2.973 -0.2403 -0.1639 -0.5568
 1893ETH     CH17031   1.801   2.081   2.951 -0.2855 -0.3923  0.8423
 1893ETH     HO17032   1.602   2.246   3.023  0.9145 -0.7958 -0.4128
 1893ETH     HC17033   1.757   2.285   2.881 -0.2850  0.3202 -0.2571
 1893ETH     HC17034   1.864   2.282   3.009 -0.2605  0.1080 -0.9079
 1893ETH     HC17035   1.864   2.034   3.027 -0.1152  0.2255  1.0831
 1893ETH     HC17036   1.706   2.030   2.938 -0.7350  0.9231 -1.2187
 1893ETH     HC17037   1.848   2.063   2.853  0.0529 -1.3310  1.1650
 1894ETH     OH17038   2.670   5.109   1.056 -0.2585 -0.0591  0.2696
 1894ETH     CH17039   2.740   5.032   1.151 -0.1591 -0.0872  0.1744
 1894ETH     CH17040   2.793   4.904   1.087 -0.3722  0.1046 -0.3873
 1894ETH     HO17041   2.730   5.166   1.010  0.3013  0.4867  1.6406
 1894ETH     HC17042   2.815   5.102   1.189 -0.1667 -0.4822  0.9299
 1894ETH     HC17043   2.677   5.009   1.237 -0.1797 -0.0040  0.1820
 1894ETH     HC17044   2.864   4.930   1.009  0.1875  0.5574  0.2599
 1894ETH     HC17045   2.834   4.844   1.168  0.0560  2.2667  1.0475
 1894ETH     HC17046   2.718   4.846   1.033 -0.4187  0.1939 -0.4186
 1895ETH     OH17047   0.683   4.799   3.586 -0.3077 -0.1915  0.0910
 1895ETH     CH17048   0.763   4.696   3.531  0.2383  0.1674  0.2072
 1895ETH     CH17049   0.901   4.730   3.589  0.1529  0.0177  0.4979
 1895ETH     HO17050   0.718   4.879   3.549  1.0144 -0.9635 -0.3591
 1895ETH     HC17051   0.728   4.594   3.544 -0.6929  0.4591  0.0641
 1895ETH     HC17052   0.766   4.703   3.422 -1.1694  1.1627  0.2141
 1895ETH     HC17053   0.949   4.823   3.559  0.6405 -0.7683 -1.2421
 1895ETH     HC17054   0.905   4.727   3.698  2.2653  1.6294  0.5012
 1895ETH     HC17055   0.974   4.655   3.558 -2.2119 -1.7943 -0.8914
 1896ETH     OH17056   2.356   1.289   1.822  0.4287 -0.2116 -0.1944
 1896ETH     CH17057   2.219   1.309   1.795  0.4673  0.3783  0.0413
 1896ETH     CH17058   2.168   1.407   1.900 -0.0582  0.4886 -0.3157
 1896ETH     HO17059   2.401   1.237   1.757  1.9424 -1.0341  1.4579
 1896ETH     HC17060   2.213   1.350   1.694 -0.9845 -0.5349 -0.2593
 1896ETH     HC17061   2.160   1.217   1.789 -1.4624  1.5922 -0.0194
 1896ETH     HC17062   2.062   1.422   1.878  0.4474 -0.3624 -3.4734
 1896ETH     HC17063   2.174   1.381   2.006  1.2363 -0.2959 -0.5734
 1896ETH     HC17064   2.201   1.510   1.888  0.5203  0.2524 -0.7219
 1897ETH     OH17065   3.369   4.024   3.570 -0.0013  0.0029 -0.1180
 1897ETH     CH17066   3.437   4.144   3.538 -0.4176  0.4382  0.6222
 1897ETH     CH17067   3.441   4.175   3.388  0.0679  0.5886  0.6676
 1897ETH     HO17068   3.322   4.046   3.648 -0.7779  0.2640 -0.6476
 1897ETH     HC17069   3.386   4.230   3.581 -0.7163 -0.3236  1.8126
 1897ETH     HC17070   3.538   4.133   3.576 -0.0735 -1.2312 -0.7159
 1897ETH     HC17071   3.498   4.095   3.341  0.7135  0.9152  0.8718
 1897ETH     HC17072   3.349   4.177   3.330  0.0421 -3.3968  0.4667
 1897ETH     HC17073   3.509   4.259   3.371  0.9603  0.2688  2.4663
 1898ETH     OH17074   2.862   1.929   1.103  0.1939  0.3592  0.3748
 1898ETH     CH17075   2.736   1.943   1.166  0.1094 -0.2196  0.3347
 1898ETH     CH17076   2.714   1.829   1.266  0.2722 -0.5314  0.0160
 1898ETH     HO17077   2.928   1.952   1.167 -1.0570 -0.6702  2.0914
 1898ETH     HC17078   2.717   2.039   1.212  0.5314 -0.2017  0.4732
 1898ETH     HC17079   2.658   1.943   1.090 -0.0101 -1.0279  0.4449
 1898ETH     HC17080   2.792   1.826   1.342 -1.3348  2.6058  1.8936
 1898ETH     HC17081   2.621   1.844   1.319  1.3322 -0.5538  1.9190
 1898ETH     HC17082   2.720   1.733   1.214 -2.1496 -1.3278  1.1642
 1899ETH     OH17083   5.543   1.149   0.897  0.6133 -0.2996 -0.0238
 1899ETH     CH17084   5.602   1.023   0.921  0.1296 -0.3503  0.9150
 1899ETH     CH17085   5.753   1.042   0.931  0.0956  0.1254  0.5301
 1899ETH     HO17086   5.453   1.125   0.881  1.1528 -1.4359 -1.4889
 1899ETH     HC17087   5.567   0.972   1.011 -0.2326 -0.8268  0.5051
 1899ETH     HC17088   5.576   0.957   0.839  3.4040 -1.7609  0.9611
 1899ETH     HC17089   5.787   1.085   1.025 -0.0116  0.3241  0.4798
 1899ETH     HC17090   5.803   0.945   0.933 -1.3698 -0.6354  0.6930
 1899ETH     HC17091   5.794   1.103   0.850 -1.7680 -0.0360 -0.5755
 1900ETH     OH17092   1.337   3.277   5.553  0.2247 -0.0829  0.6820
 1900ETH     CH17093   1.431   3.378   5.526  0.0943 -0.2354 -0.3484
 1900ETH     CH17094   1.567   3.315   5.555  0.3148  0.5267  0.2817
 1900ETH     HO17095   1.281   3.274   5.477  0.4713  1.1393  0.4447
 1900ETH     HC17096   1.430   3.420   5.425 -0.3576 -0.2043 -0.3320
 1900ETH     HC17097   1.411   3.453   5.602  1.5275  0.2097 -0.3942
 1900ETH     HC17098   1.641   3.393   5.538  2.8577 -1.2112  2.7537
 1900ETH     HC17099   1.575   3.285   5.660  1.6404 -0.2418 -0.0213
 1900ETH     HC17100   1.584   3.227   5.493 -0.3216  0.7980 -0.2789
 1901ETH     OH17101   2.117   5.750   6.054 -0.2760  0.1767 -0.0689
 1901ETH     CH17102   2.239   5.819   6.053 -0.3825  0.3702  0.0843
 1901ETH     CH17103   2.207   5.966   6.079  1.0150  0.7286 -0.1629
 1901ETH     HO17104   2.079   5.771   6.138 -1.9523 -0.7350 -0.5795
 1901ETH     HC17105   2.311   5.775   6.122  1.9489 -2.0677 -3.6991
 1901ETH     HC17106   2.290   5.818   5.956  1.2849 -0.2301  0.9403
 1901ETH     HC17107   2.293   6.033   6.075  0.9853  0.8318  0.7890
 1901ETH     HC17108   2.141   6.003   6.001  0.2230  0.1314  0.2194
 1901ETH     HC17109   2.155   5.989   6.172 -0.0446  1.2537 -0.8722
 1902ETH     OH17110   3.219   3.418   0.961 -0.2181  0.3010  0.3091
 1902ETH     CH17111   3.159   3.442   1.086 -0.1660 -0.0067  0.3942
 1902ETH     CH17112   3.264   3.498   1.182 -0.0350  0.3209  0.0598
 1902ETH     HO17113   3.235   3.494   0.908  0.7197 -0.2175 -0.1872
 1902ETH     HC17114   3.074   3.509   1.075  1.7810  2.4366 -0.2348
 1902ETH     HC17115   3.114   3.350   1.125  0.3232  0.3406  1.8067
 1902ETH     HC17116   3.218   3.527   1.276 -1.7168  0.6344 -0.8390
 1902ETH     HC17117   3.345   3.431   1.212 -0.2842 -0.3513 -0.7464
 1902ETH     HC17118   3.316   3.582   1.136  2.1693  0.1709  2.1771
 1903ETH     OH17119   0.245   4.070   2.889 -0.1335  0.6183  0.1403
 1903ETH     CH17120   0.334   4.015   2.984 -0.4062  0.0364  0.0608
 1903ETH     CH17121   0.269   3.883   3.023 -0.2858 -0.3181 -0.9245
 1903ETH     HO17122   0.163   4.085   2.934 -0.1287 -1.8282  1.0575
 1903ETH     HC17123   0.431   4.003   2.934 -0.4053 -1.6179  0.4375
 1903ETH     HC17124   0.337   4.077   3.073  1.3036 -1.9034  1.4090
 1903ETH     HC17125   0.315   3.845   3.114  0.4712  0.5930 -0.9221
 1903ETH     HC17126   0.164   3.902   3.046 -0.1134  1.0109 -1.2107
 1903ETH     HC17127   0.284   3.807   2.946 -0.4412 -0.8219 -0.4620
 1904ETH     OH17128   5.808   1.799   5.272  0.2319 -0.0883 -0.3532
 1904ETH     CH17129   5.823   1.697   5.368 -0.1110  0.4032  0.2281
 1904ETH     CH17130   5.727   1.709   5.487  0.5895 -0.1009  0.8574
 1904ETH     HO17131   5.754   1.777   5.197  0.5384 -1.8480 -0.0844
 1904ETH     HC17132   5.811   1.598   5.323 -0.8329  0.1971  0.8607
 1904ETH     HC17133   5.925   1.691   5.406 -0.4357 -1.4965  0.8807
 1904ETH     HC17134   5.623   1.712   5.455  1.0769 -0.8683 -0.9204
 1904ETH     HC17135   5.710   1.612   5.532  0.1625 -0.5692 -0.2882
 1904ETH     HC17136   5.745   1.787   5.561  0.7892 -1.7125  2.5263
 1905ETH     OH17137   2.223   1.956   4.580  0.1866 -0.3843 -0.3801
 1905ETH     CH17138   2.303   1.947   4.697  0.1546 -0.0227 -0.3312
 1905ETH     CH17139   2.409   2.056   4.686  0.8550 -0.6973 -0.2703
 1905ETH     HO17140   2.216   2.048   4.563 -2.1700 -0.0071  2.2436
 1905ETH     HC17141   2.237   1.959   4.783 -0.6251  1.4289 -1.1101
 1905ETH     HC17142   2.347   1.848   4.703  0.4183  0.1524  0.6871
 1905ETH     HC17143   2.483   2.039   4.607 -0.1763 -2.2949 -0.9117
 1905ETH     HC17144   2.372   2.156   4.660 -1.4737 -1.0534  1.5387
 1905ETH     HC17145   2.461   2.069   4.781 -1.5188 -1.6717  1.2116
 1906ETH     OH17146   0.135   5.955   3.835  0.5132  0.2876  0.2632
 1906ETH     CH17147   0.185   5.830   3.875 -0.1329 -0.1405 -0.2805
 1906ETH     CH17148   0.066   5.739   3.911  0.2289 -0.3461  0.4056
 1906ETH     HO17149   0.090   5.990   3.911 -0.2260 -0.2072  0.0568
 1906ETH     HC17150   0.250   5.793   3.796 -1.4058 -0.4176 -1.2244
 1906ETH     HC17151   0.244   5.844   3.965  0.1402  0.9882 -0.6317
 1906ETH     HC17152  -0.004   5.737   3.828  1.4233  1.3347 -0.6930
 1906ETH     HC17153   0.084   5.632   3.911 -1.4790 -0.6773 -2.3858
 1906ETH     HC17154   0.015   5.766   4.003 -1.7476  1.4929 -1.1792
 1907ETH     OH17155   0.579   3.854   2.606 -0.6768 -0.3987 -0.0581
 1907ETH     CH17156   0.575   3.741   2.692  0.0540 -0.3738  0.0118
 1907ETH     CH17157   0.458   3.649   2.656  0.0285 -0.2389 -0.2568
 1907ETH     HO17158   0.498   3.901   2.620  0.6585  1.6857  0.9169
 1907ETH     HC17159   0.667   3.683   2.700  0.3452 -0.0546 -0.9163
 1907ETH     HC17160   0.566   3.786   2.790 -1.5728  0.1518 -0.3658
 1907ETH     HC17161   0.418   3.593   2.740  2.4061  0.1265  1.1645
 1907ETH     HC17162   0.368   3.698   2.620  1.0356  1.5716 -0.3773
 1907ETH     HC17163   0.486   3.579   2.578  0.0564 -0.5503  0.0339
 1908ETH     OH17164   1.129   0.100   0.154 -0.1217 -0.3611 -0.7094
 1908ETH     CH17165   1.005   0.091   0.087 -0.5223  0.4028 -0.0885
 1908ETH     CH17166   0.938  -0.039   0.132  0.4969 -0.0914  0.0261
 1908ETH     HO17167   1.121   0.071   0.244  0.3988  1.6341 -0.0118
 1908ETH     HC17168   0.948   0.183   0.093 -0.1529  0.6134  0.2690
 1908ETH     HC17169   1.021   0.080  -0.021 -2.3355  0.3874 -0.3652
 1908ETH     HC17170   0.893  -0.034   0.231 -0.3450 -0.7084 -0.3180
 1908ETH     HC17171   0.859  -0.075   0.066 -0.5967 -2.3981  2.5082
 1908ETH     HC17172   1.015  -0.116   0.127  1.5604  0.9721 -0.3925
 1909ETH     OH17173   2.582   2.268   2.999  0.1103  0.1808  0.0617
 1909ETH     CH17174   2.580   2.374   3.092  0.5895 -0.1807  0.4845
 1909ETH     CH17175   2.597   2.506   3.017 -0.0814  0.1527  0.9137
 1909ETH     HO17176   2.561   2.189   3.045 -0.1246  0.2125  0.0089
 1909ETH     HC17177   2.490   2.380   3.153 -0.2561  0.4061 -0.8060
 1909ETH     HC17178   2.658   2.345   3.163  1.7925 -0.4179 -0.9142
 1909ETH     HC17179   2.507   2.530   2.961  0.1229 -0.0510  0.5032
 1909ETH     HC17180   2.608   2.589   3.088  0.5406  1.9161 -1.2072
 1909ETH     HC17181   2.684   2.502   2.952  0.8995  0.8267  2.1583
 1910ETH     OH17182   6.145   0.510   1.233 -0.2839  0.3984 -0.1266
 1910ETH     CH17183   6.093   0.600   1.328 -0.2145  0.3696 -0.0605
 1910ETH     CH17184   5.977   0.525   1.394 -0.0698  0.2671  0.0748
 1910ETH     HO17185   6.091   0.500   1.156 -2.0727 -0.8899  1.2511
 1910ETH     HC17186   6.160   0.636   1.405 -0.9738  1.0039  0.3126
 1910ETH     HC17187   6.065   0.683   1.263  2.2238  0.4018 -1.1345
 1910ETH     HC17188   5.903   0.487   1.324 -0.4650 -2.0518  1.6990
 1910ETH     HC17189   6.023   0.438   1.441 -0.6551  0.6796  1.4212
 1910ETH     HC17190   5.923   0.575   1.473 -0.7328 -2.2391  1.2435
 1911ETH     OH17191   2.679   5.951   0.151 -0.4370  0.2473 -0.2758
 1911ETH     CH17192   2.683   5.811   0.171  0.1842  0.4217  0.8770
 1911ETH     CH17193   2.765   5.776   0.295  1.0140 -0.4766  0.0810
 1911ETH     HO17194   2.749   5.972   0.091 -0.0736  1.4243  0.5300
 1911ETH     HC17195   2.584   5.768   0.185 -0.3022  0.8774 -0.9450
 1911ETH     HC17196   2.740   5.764   0.091  1.3989  0.8426  1.4803
 1911ETH     HC17197   2.763   5.674   0.331 -1.5897  0.0092  1.3982
 1911ETH     HC17198   2.872   5.793   0.280  1.3677 -2.6218 -0.0117
 1911ETH     HC17199   2.723   5.827   0.381 -3.1444 -1.2988 -1.3819
 1912ETH     OH17200   3.786   2.854   0.238  0.0237 -0.2099  0.0146
 1912ETH     CH17201   3.862   2.740   0.273  0.1469 -0.0723  0.1965
 1912ETH     CH17202   4.004   2.773   0.227  0.1241  0.2324  0.3403
 1912ETH     HO17203   3.713   2.825   0.185 -0.5356  0.3895  0.4476
 1912ETH     HC17204   3.855   2.746   0.382 -2.7572 -1.4490  0.1488
 1912ETH     HC17205   3.824   2.644   0.239  0.2424 -0.5268  1.3529
 1912ETH     HC17206   4.005   2.764   0.118  0.2376  0.0944  0.3527
 1912ETH     HC17207   4.034   2.875   0.250  1.5383 -0.1350  0.1366
 1912ETH     HC17208   4.081   2.706   0.265 -0.9415 -2.2231 -1.6372
 1913ETH     OH17209   4.730   4.265   5.603  0.0614 -0.1033  0.4454
 1913ETH     CH17210   4.635   4.231   5.701 -0.1101 -0.4754  0.1501
 1913ETH     CH17211   4.583   4.092   5.664 -0.0873 -0.4103 -0.1339
 1913ETH     HO17212   4.801   4.306   5.649 -2.1265  1.8236  2.1881
 1913ETH     HC17213   4.676   4.240   5.801  3.0037 -0.2548 -1.0988
 1913ETH     HC17214   4.545   4.291   5.689  0.2143 -0.2397 -1.2584
 1913ETH     HC17215   4.654   4.009   5.669  2.6405  1.7641 -1.1189
 1913ETH     HC17216   4.497   4.064   5.724  1.3907 -0.1563  2.1660
 1913ETH     HC17217   4.549   4.085   5.561 -0.1083  0.9380 -0.2275
 1914ETH     OH17218   2.361   3.232   2.532 -0.4948 -0.1890 -0.3179
 1914ETH     CH17219   2.420   3.186   2.412 -0.2103  0.4215 -0.4127
 1914ETH     CH17220   2.469   3.044   2.439  0.1616  0.6281 -0.0012
 1914ETH     HO17221   2.426   3.264   2.592 -0.9534  0.3553 -0.1158
 1914ETH     HC17222   2.351   3.182   2.328 -1.6634  0.7840  0.7440
 1914ETH     HC17223   2.497   3.259   2.386  1.5672 -1.9819 -2.0942
 1914ETH     HC17224   2.473   2.995   2.342 -0.0246  0.8834 -0.1353
 1914ETH     HC17225   2.564   3.032   2.493 -1.3871 -2.4569  2.1764
 1914ETH     HC17226   2.395   2.988   2.496 -0.2550  1.1098 -0.0703
 1915ETH     OH17227   2.390   0.090   0.979  0.1073 -0.1373  0.1753
 1915ETH     CH17228   2.286   0.132   1.064 -0.1088 -0.2920 -0.0094
 1915ETH     CH17229   2.335   0.259   1.134 -0.2038 -0.3333  0.1329
 1915ETH     HO17230   2.381   0.125   0.892 -1.8438 -0.2934  0.2800
 1915ETH     HC17231   2.200   0.155   1.001  0.9664 -2.0434 -2.1624
 1915ETH     HC17232   2.255   0.057   1.137  0.8162 -0.0385  0.6549
 1915ETH     HC17233   2.434   0.240   1.177 -0.0665 -0.8972 -0.4231
 1915ETH     HC17234   2.345   0.342   1.065 -1.7754  0.3270  0.6795
 1915ETH     HC17235   2.268   0.297   1.211  0.3127  1.2170 -0.1671
 1916ETH     OH17236   1.487   0.293   4.540  0.4379  0.9026 -0.2814
 1916ETH     CH17237   1.411   0.382   4.461 -0.1079  0.2422 -0.4955
 1916ETH     CH17238   1.485   0.420   4.332  0.0193  0.2087 -0.4333
 1916ETH     HO17239   1.493   0.215   4.487 -0.9246  0.8588 -0.3682
 1916ETH     HC17240   1.310   0.346   4.440  0.7314 -0.9629 -2.6561
 1916ETH     HC17241   1.403   0.475   4.516 -1.5555 -0.2273  0.1188
 1916ETH     HC17242   1.405   0.466   4.273 -0.0319  2.0283  1.0088
 1916ETH     HC17243   1.574   0.482   4.327  2.1210 -2.7419 -1.1712
 1916ETH     HC17244   1.517   0.326   4.287  2.8689  1.5354 -1.2415
 1917ETH     OH17245   0.549   5.502   2.008 -0.3417  0.7437 -0.4412
 1917ETH     CH17246   0.546   5.532   1.870  0.0065 -0.0146 -0.6171
 1917ETH     CH17247   0.446   5.645   1.844 -0.2908 -0.0410  0.3932
 1917ETH     HO17248   0.490   5.431   2.029 -0.3406  0.7380 -0.4567
 1917ETH     HC17249   0.640   5.568   1.830  0.6235 -0.7297  0.1646
 1917ETH     HC17250   0.512   5.440   1.822  0.4458 -1.0143  0.9549
 1917ETH     HC17251   0.437   5.654   1.736  1.4326  0.7010  0.2917
 1917ETH     HC17252   0.346   5.628   1.884 -0.4542  2.0008  0.8803
 1917ETH     HC17253   0.485   5.739   1.881  1.0351 -0.0952 -0.8339
 1918ETH     OH17254   2.748   3.684   2.190  0.3316  0.3319  0.4141
 1918ETH     CH17255   2.627   3.624   2.227  0.2272  0.1187 -0.2754
 1918ETH     CH17256   2.616   3.482   2.171 -0.1841 -0.0365  0.1915
 1918ETH     HO17257   2.726   3.776   2.199 -1.0675  0.1244 -0.7723
 1918ETH     HC17258   2.616   3.633   2.335  0.1244 -0.1254 -0.2626
 1918ETH     HC17259   2.546   3.681   2.181  0.1881  1.5070  1.4545
 1918ETH     HC17260   2.697   3.421   2.211 -1.0312 -0.5813  1.0944
 1918ETH     HC17261   2.519   3.450   2.209  1.0430 -1.0830  2.5815
 1918ETH     HC17262   2.617   3.478   2.062  3.3521 -1.3123  0.2060
 1919ETH     OH17263   4.473   5.080   2.907 -0.0081 -0.0701  0.3330
 1919ETH     CH17264   4.360   5.006   2.867 -0.4046  0.5855  0.2403
 1919ETH     CH17265   4.296   5.078   2.748  0.2464  0.5795 -0.1191
 1919ETH     HO17266   4.503   5.046   2.991 -2.2161  0.9118  1.5545
 1919ETH     HC17267   4.398   4.906   2.845  0.8907  0.6959  1.8882
 1919ETH     HC17268   4.284   5.000   2.944 -0.9381 -0.8473 -0.3953
 1919ETH     HC17269   4.276   5.180   2.781 -1.0752  0.9406 -1.9982
 1919ETH     HC17270   4.352   5.079   2.654 -0.9167  0.1411 -0.8240
 1919ETH     HC17271   4.201   5.027   2.733  0.8430 -0.7317  0.4492
 1920ETH     OH17272   5.173   4.832   2.847 -0.4309 -0.5197  0.5077
 1920ETH     CH17273   5.290   4.845   2.924 -0.1969 -0.2954  0.1138
 1920ETH     CH17274   5.244   4.803   3.063 -0.2606  0.3245  0.2795
 1920ETH     HO17275   5.097   4.878   2.878  0.4599  1.4134 -0.0960
 1920ETH     HC17276   5.368   4.779   2.887  0.9284  0.9484  0.2227
 1920ETH     HC17277   5.339   4.942   2.920  0.4865 -0.6162  0.5563
 1920ETH     HC17278   5.171   4.872   3.107  0.8926  1.6996  0.0783
 1920ETH     HC17279   5.192   4.708   3.053  0.3601 -0.0682  0.7699
 1920ETH     HC17280   5.330   4.802   3.131 -0.5995 -1.1690  0.7089
 1921ETH     OH17281   0.119   5.069   3.540 -0.3381 -0.0293  1.1110
 1921ETH     CH17282   0.139   5.202   3.582  0.7407  0.1177  0.1566
 1921ETH     CH17283   0.137   5.218   3.734  0.5914  0.7514  0.0905
 1921ETH     HO17284   0.111   5.056   3.447 -1.3873 -0.9950  1.3228
 1921ETH     HC17285   0.238   5.237   3.552  0.5360  0.7116  0.1654
 1921ETH     HC17286   0.053   5.248   3.533  0.2822 -0.5895  0.2868
 1921ETH     HC17287   0.048   5.183   3.786  2.4137 -0.6429  2.3932
 1921ETH     HC17288   0.217   5.152   3.768 -1.3115 -0.5902  2.0854
 1921ETH     HC17289   0.167   5.320   3.759  2.1597  0.8148 -1.9561
 1922ETH     OH17290   0.867   3.230   3.628 -0.3490  0.1116 -0.2855
 1922ETH     CH17291   0.957   3.222   3.736 -0.0306 -0.1569 -0.5697
 1922ETH     CH17292   1.102   3.222   3.687  0.2391  0.4804  0.2185
 1922ETH     HO17293   0.786   3.192   3.658 -0.7636 -0.3541 -1.8964
 1922ETH     HC17294   0.951   3.315   3.792  2.9037 -0.9196  1.0899
 1922ETH     HC17295   0.927   3.140   3.802  1.1135  1.0644  1.4960
 1922ETH     HC17296   1.166   3.205   3.773  0.8510  0.8333 -0.1619
 1922ETH     HC17297   1.108   3.139   3.617  0.0209  1.7504 -1.3301
 1922ETH     HC17298   1.119   3.319   3.640 -1.8397  1.4670  1.4054
 1923ETH     OH17299   3.673   2.563   6.190 -0.6862 -0.0219  0.0697
 1923ETH     CH17300   3.629   2.437   6.237  0.4814 -0.4327  0.0873
 1923ETH     CH17301   3.535   2.353   6.150 -0.3530  0.7466 -0.1717
 1923ETH     HO17302   3.681   2.556   6.096  0.0988 -1.6088  0.2292
 1923ETH     HC17303   3.718   2.380   6.264 -0.3656 -0.8143  2.1242
 1923ETH     HC17304   3.577   2.460   6.330  0.8056  3.9137 -0.6905
 1923ETH     HC17305   3.436   2.397   6.140 -1.7091 -1.8352  1.4281
 1923ETH     HC17306   3.588   2.333   6.057  1.2792  1.1270  0.6643
 1923ETH     HC17307   3.521   2.265   6.214 -0.1361  1.4236  0.8257
 1924ETH     OH17308   2.930   6.173   2.052  0.3002  0.0748  0.1793
 1924ETH     CH17309   2.892   6.162   2.187 -0.0931 -0.2532  0.0426
 1924ETH     CH17310   2.912   6.017   2.233  0.4473 -0.2161 -0.0742
 1924ETH     HO17311   2.958   6.262   2.038 -0.6127  0.3258 -0.0944
 1924ETH     HC17312   2.943   6.227   2.258 -1.2898  0.8277 -0.0627
 1924ETH     HC17313   2.783   6.170   2.189 -0.2701 -1.9441 -1.2953
 1924ETH     HC17314   2.861   5.940   2.174 -1.4225  1.4748 -0.7467
 1924ETH     HC17315   3.020   6.007   2.240  0.8238  2.8752 -0.7708
 1924ETH     HC17316   2.880   6.017   2.337  1.5987 -0.2569  0.2761
 1925ETH     OH17317   2.185   4.256   1.309  0.2622 -0.2384  0.0923
 1925ETH     CH17318   2.174   4.146   1.221 -0.1984  0.0898 -0.2657
 1925ETH     CH17319   2.307   4.142   1.145  0.1030  0.0252  0.2597
 1925ETH     HO17320   2.166   4.337   1.264  0.8741 -0.3261 -0.3391
 1925ETH     HC17321   2.160   4.047   1.265  1.9306  0.0370  0.3392
 1925ETH     HC17322   2.085   4.174   1.166  1.2737  0.8787 -2.2919
 1925ETH     HC17323   2.344   4.243   1.123  1.9550 -0.9771 -1.3051
 1925ETH     HC17324   2.387   4.101   1.206  0.2716  0.1937  0.1504
 1925ETH     HC17325   2.288   4.086   1.054 -0.3435  1.5267 -0.6042
 1926ETH     OH17326   2.067   3.068   5.661  0.1895  0.3718  0.1171
 1926ETH     CH17327   1.972   3.155   5.606 -0.1128 -0.1788 -0.2333
 1926ETH     CH17328   1.905   3.093   5.483  0.1671 -0.3006 -0.3235
 1926ETH     HO17329   2.070   3.088   5.754 -0.4067 -1.7457  0.6253
 1926ETH     HC17330   1.903   3.194   5.682  0.3976 -0.1054  0.1936
 1926ETH     HC17331   2.029   3.238   5.564 -1.2512  1.0191  0.5304
 1926ETH     HC17332   1.978   3.073   5.404  0.4902  2.4910 -0.7776
 1926ETH     HC17333   1.856   2.998   5.504  1.5589 -1.0903 -0.5741
 1926ETH     HC17334   1.829   3.166   5.454  0.3914 -0.4002 -1.1880
 1927ETH     OH17335   6.287   4.823   3.724 -0.3915  0.1651 -0.6268
 1927ETH     CH17336   6.341   4.827   3.855 -0.1635  0.0598 -0.7172
 1927ETH     CH17337   6.480   4.764   3.858  0.2195  0.9407  0.4301
 1927ETH     HO17338   6.300   4.903   3.676 -0.6879  0.6903  0.1641
 1927ETH     HC17339   6.348   4.932   3.882 -1.1284 -0.0959  0.1578
 1927ETH     HC17340   6.268   4.786   3.924 -0.3638  1.0268 -0.3418
 1927ETH     HC17341   6.464   4.659   3.830  2.4232  1.3020 -2.4192
 1927ETH     HC17342   6.556   4.811   3.796  0.4656  0.4118  0.3251
 1927ETH     HC17343   6.533   4.775   3.952 -1.6262 -0.4122  1.6764
 1928ETH     OH17344   1.244   0.900   4.231 -0.3779  0.2984  0.1996
 1928ETH     CH17345   1.379   0.878   4.269 -0.3115 -0.1000 -0.2674
 1928ETH     CH17346   1.402   0.727   4.259  1.0444  0.0878 -0.0853
 1928ETH     HO17347   1.222   0.990   4.214 -1.0512 -0.2623 -1.9866
 1928ETH     HC17348   1.444   0.925   4.195 -0.3329 -1.0496 -0.9045
 1928ETH     HC17349   1.391   0.912   4.371  1.4132  1.3664 -0.9380
 1928ETH     HC17350   1.508   0.705   4.254  1.2564  0.3407  2.7607
 1928ETH     HC17351   1.369   0.679   4.351  4.3493  0.9408  1.6260
 1928ETH     HC17352   1.351   0.667   4.183  1.0557  2.4169 -1.9923
 1929ETH     OH17353   4.040   0.097   3.935 -0.0101  0.1445 -0.4761
 1929ETH     CH17354   4.051   0.080   4.074  0.6757  0.1162 -0.5327
 1929ETH     CH17355   4.162  -0.025   4.091 -0.2484 -0.8628 -0.5195
 1929ETH     HO17356   4.125   0.128   3.907 -0.7032  2.3340 -0.2904
 1929ETH     HC17357   4.071   0.177   4.119 -1.4752  0.4835 -0.3397
 1929ETH     HC17358   3.958   0.035   4.110  0.5335  2.1581  1.7877
 1929ETH     HC17359   4.254   0.033   4.095 -0.2486 -0.9696  2.5187
 1929ETH     HC17360   4.167  -0.072   4.189  0.3252  0.5573  0.1421
 1929ETH     HC17361   4.164  -0.105   4.017  2.1697 -0.9146 -0.4111
 1930ETH     OH17362   3.799   2.597   4.786 -0.4545  0.1263  0.3191
 1930ETH     CH17363   3.757   2.549   4.661 -0.2126 -0.3900  0.4379
 1930ETH     CH17364   3.845   2.602   4.548 -0.6646  0.6512  0.5694
 1930ETH     HO17365   3.738   2.563   4.850 -1.0315 -0.7058 -0.6541
 1930ETH     HC17366   3.770   2.442   4.681 -1.8877 -1.3997 -3.3547
 1930ETH     HC17367   3.652   2.575   4.647 -0.3583 -0.9213  0.5340
 1930ETH     HC17368   3.834   2.708   4.524  2.6485  0.7899 -0.6388
 1930ETH     HC17369   3.950   2.581   4.569 -0.6225  0.7464  0.4519
 1930ETH     HC17370   3.821   2.541   4.461 -0.9417  0.3018  0.8899
 1931ETH     OH17371   3.035   6.035   1.687 -0.1392 -0.0013  0.0791
 1931ETH     CH17372   3.101   6.024   1.563  0.3622 -0.0103  0.3450
 1931ETH     CH17373   3.023   6.091   1.450 -0.0555  0.1691  0.7388
 1931ETH     HO17374   3.096   6.013   1.756 -0.1743  1.8948  0.7598
 1931ETH     HC17375   3.205   6.057   1.573  0.8812 -1.2495 -0.8903
 1931ETH     HC17376   3.110   5.917   1.545  0.0244  0.0586 -0.2353
 1931ETH     HC17377   3.089   6.079   1.365  0.8015 -3.1634  1.7996
 1931ETH     HC17378   2.928   6.037   1.444  0.5241 -0.8528  0.7694
 1931ETH     HC17379   3.014   6.195   1.482  0.0055 -0.7036  3.7428
 1932ETH     OH17380   3.425   0.752   5.608  0.5459  0.4258  0.1182
 1932ETH     CH17381   3.367   0.748   5.737 -0.3449 -0.1710 -0.2924
 1932ETH     CH17382   3.282   0.874   5.756 -0.3957 -0.1562 -0.6111
 1932ETH     HO17383   3.359   0.722   5.547 -1.0417 -0.3468  2.1356
 1932ETH     HC17384   3.303   0.660   5.740  0.7571 -1.0231 -1.2739
 1932ETH     HC17385   3.448   0.753   5.810  1.9097  1.5447 -2.8046
 1932ETH     HC17386   3.254   0.867   5.861  0.6455  1.2694 -0.2293
 1932ETH     HC17387   3.327   0.972   5.744 -1.2029  0.4453  1.1176
 1932ETH     HC17388   3.191   0.870   5.696 -1.5445 -0.6260  1.1490
 1933ETH     OH17389   6.257   5.811   1.241  0.2251  0.0115 -0.3689
 1933ETH     CH17390   6.263   5.831   1.101 -0.3496 -0.5697 -0.4840
 1933ETH     CH17391   6.411   5.825   1.063 -0.1199  0.1305  0.2756
 1933ETH     HO17392   6.169   5.827   1.273  0.0441 -0.0722 -0.8102
 1933ETH     HC17393   6.207   5.750   1.055  1.1813 -1.1353 -1.3967
 1933ETH     HC17394   6.218   5.926   1.075  1.8927  1.0508  1.2985
 1933ETH     HC17395   6.441   5.720   1.074 -0.2179 -0.0375 -0.9807
 1933ETH     HC17396   6.430   5.843   0.957 -2.5055  2.2549  0.1715
 1933ETH     HC17397   6.483   5.884   1.121  1.1504  1.1915 -2.3056
 1934ETH     OH17398   3.736   4.139   5.713  0.1433 -0.3275  0.2715
 1934ETH     CH17399   3.688   4.086   5.591  0.1515  0.1357  0.0689
 1934ETH     CH17400   3.786   3.993   5.520 -0.1154 -0.1985  0.1387
 1934ETH     HO17401   3.666   4.129   5.775  1.5404 -0.0038  1.9367
 1934ETH     HC17402   3.595   4.034   5.610  0.0512  0.4356  0.4034
 1934ETH     HC17403   3.660   4.174   5.532  1.5250  0.7469  0.3136
 1934ETH     HC17404   3.751   3.949   5.426 -3.8782 -0.5823  1.6378
 1934ETH     HC17405   3.875   4.052   5.495  1.0910 -2.3728 -0.8591
 1934ETH     HC17406   3.817   3.915   5.589 -1.6188 -0.6900  0.2724
 1935ETH     OH17407   3.594   5.313   1.168  0.0546 -0.5177  0.7881
 1935ETH     CH17408   3.725   5.295   1.117 -0.3156  0.2186 -0.4414
 1935ETH     CH17409   3.717   5.260   0.968  0.3144  0.0565 -0.4391
 1935ETH     HO17410   3.548   5.367   1.105  1.4311 -0.4200 -0.1704
 1935ETH     HC17411   3.779   5.388   1.132  1.1110 -0.5464 -0.7549
 1935ETH     HC17412   3.786   5.215   1.159 -1.2738  0.1728  0.8989
 1935ETH     HC17413   3.661   5.172   0.937  0.2295  0.5198 -1.6103
 1935ETH     HC17414   3.667   5.342   0.916  1.4359  1.6993  1.0225
 1935ETH     HC17415   3.817   5.247   0.928  0.3022 -1.3456 -0.0405
 1936ETH     OH17416   4.960   1.719   3.315  0.6035  0.1485 -0.4029
 1936ETH     CH17417   5.089   1.761   3.354  0.0077  0.9345  0.7388
 1936ETH     CH17418   5.167   1.639   3.403 -0.7993  0.3701  0.6394
 1936ETH     HO17419   4.919   1.662   3.378  1.5064  0.2318  0.2657
 1936ETH     HC17420   5.139   1.809   3.270  2.2913 -0.6068  1.1763
 1936ETH     HC17421   5.085   1.834   3.435  1.0238 -0.8417  2.4499
 1936ETH     HC17422   5.204   1.582   3.318 -1.1578  2.7733 -1.1934
 1936ETH     HC17423   5.262   1.666   3.449  1.1942 -1.7257 -2.1230
 1936ETH     HC17424   5.118   1.588   3.486  1.5361 -1.2593  1.0766
 1937ETH     OH17425   1.431   5.872   3.937  0.1597 -0.0934 -0.5626
 1937ETH     CH17426   1.554   5.862   4.006 -0.3356 -1.4263  0.1518
 1937ETH     CH17427   1.547   5.930   4.143 -0.0037 -0.3973 -0.3353
 1937ETH     HO17428   1.360   5.841   3.992 -0.1480 -0.9951 -1.4499
 1937ETH     HC17429   1.564   5.754   4.016  2.8670 -1.2948 -1.0970
 1937ETH     HC17430   1.639   5.907   3.954 -2.6242 -0.7186 -3.1250
 1937ETH     HC17431   1.461   5.900   4.204  0.1681  0.2797  0.2424
 1937ETH     HC17432   1.643   5.905   4.188 -0.0507 -0.9993 -0.5604
 1937ETH     HC17433   1.537   6.038   4.140  1.3809 -0.0936  3.6115
 1938ETH     OH17434   4.488   5.993   3.617  0.2865  0.4836 -0.0649
 1938ETH     CH17435   4.410   5.998   3.734  0.0504  0.7367 -0.2307
 1938ETH     CH17436   4.481   6.067   3.851  0.6225  0.5953 -0.4928
 1938ETH     HO17437   4.429   5.953   3.554 -0.2593  2.7354 -1.0475
 1938ETH     HC17438   4.318   6.049   3.705  0.1145  1.3676  0.6484
 1938ETH     HC17439   4.395   5.894   3.763  2.8649  0.6515  1.0475
 1938ETH     HC17440   4.494   6.174   3.838  2.9243  0.6170  1.6165
 1938ETH     HC17441   4.421   6.068   3.943  0.5890  1.5120 -0.5273
 1938ETH     HC17442   4.577   6.019   3.871 -0.5671 -2.2135 -1.2843
 1939ETH     OH17443   3.352   4.682   1.555 -0.9074  0.2312 -0.4735
 1939ETH     CH17444   3.293   4.767   1.651 -0.7353 -0.1382 -0.0376
 1939ETH     CH17445   3.148   4.800   1.615 -0.6257  0.4259  0.0359
 1939ETH     HO17446   3.307   4.601   1.572 -1.2394  0.7574  1.3235
 1939ETH     HC17447   3.292   4.706   1.741 -0.2095  1.0774  0.8098
 1939ETH     HC17448   3.352   4.857   1.670  1.3011 -1.9036  2.3189
 1939ETH     HC17449   3.116   4.891   1.667 -3.0546 -0.7984  0.7485
 1939ETH     HC17450   3.143   4.818   1.508  0.5160 -0.7366 -0.2139
 1939ETH     HC17451   3.076   4.721   1.636 -1.9454  1.7505  0.6354
 1940ETH     OH17452   6.037   2.974   5.152  0.6376 -0.4569 -0.1283
 1940ETH     CH17453   6.121   3.053   5.070 -0.1469  0.0009 -0.4964
 1940ETH     CH17454   6.149   2.978   4.940  0.4087  0.2417 -0.5161
 1940ETH     HO17455   6.054   2.882   5.142  0.7627 -0.1713 -3.1876
 1940ETH     HC17456   6.073   3.150   5.057 -0.5603  0.1333  1.7661
 1940ETH     HC17457   6.216   3.069   5.122 -1.3149  2.8506  0.8683
 1940ETH     HC17458   6.216   3.028   4.870  1.9444 -1.1578 -0.0719
 1940ETH     HC17459   6.183   2.877   4.965  2.2509  0.6055 -1.4607
 1940ETH     HC17460   6.057   2.962   4.885  0.9147 -1.1713 -0.9715
 1941ETH     OH17461   0.579   3.160   1.356  0.6593 -0.3065 -0.0121
 1941ETH     CH17462   0.582   3.161   1.215 -0.0298  0.5825 -0.0283
 1941ETH     CH17463   0.610   3.021   1.160  0.3726  0.5267  0.3137
 1941ETH     HO17464   0.562   3.244   1.397 -1.6908  0.0727 -1.6663
 1941ETH     HC17465   0.490   3.204   1.178 -0.8349 -0.5544  0.6129
 1941ETH     HC17466   0.666   3.229   1.199  2.8251 -3.5526 -3.9093
 1941ETH     HC17467   0.553   2.998   1.070  3.2175  0.9842 -1.6849
 1941ETH     HC17468   0.715   3.011   1.130  0.8982  2.4779  1.3848
 1941ETH     HC17469   0.591   2.952   1.242  0.4159 -0.7440 -0.7338
 1942ETH     OH17470   2.404   4.389   4.548  0.1679 -0.1698  0.2180
 1942ETH     CH17471   2.404   4.267   4.478  0.1669  0.3337 -0.6618
 1942ETH     CH17472   2.372   4.144   4.563  0.0328  0.6947 -0.1911
 1942ETH     HO17473   2.314   4.417   4.555  0.7132  1.6218  0.3450
 1942ETH     HC17474   2.342   4.270   4.388  0.0936 -0.7346 -0.6548
 1942ETH     HC17475   2.508   4.257   4.447  0.4209  1.4858 -0.1852
 1942ETH     HC17476   2.265   4.140   4.581  0.0501  2.3665  0.3764
 1942ETH     HC17477   2.414   4.056   4.514  1.5554  2.5539 -2.3816
 1942ETH     HC17478   2.415   4.154   4.663 -1.4916  1.6280  0.3789
 1943ETH     OH17479   4.605   6.059   0.984 -0.5388 -0.1135 -0.2991
 1943ETH     CH17480   4.592   5.919   0.974  0.3644 -0.2362  0.2054
 1943ETH     CH17481   4.452   5.866   1.009  0.3943 -0.2391  0.3226
 1943ETH     HO17482   4.697   6.077   0.991 -0.9317  1.7052  0.4762
 1943ETH     HC17483   4.616   5.889   0.872 -2.5948  1.5313 -1.0857
 1943ETH     HC17484   4.653   5.864   1.046 -1.0749 -4.1421 -1.4450
 1943ETH     HC17485   4.372   5.933   0.977 -0.9137 -0.8327  2.2871
 1943ETH     HC17486   4.438   5.771   0.957  0.9653 -1.5658  2.5248
 1943ETH     HC17487   4.451   5.844   1.116  1.1978 -1.2128  0.1374
 1944ETH     OH17488   4.855   0.290   2.643 -0.0533 -0.6244 -0.0591
 1944ETH     CH17489   4.969   0.271   2.561  0.2492  0.1767  0.1683
 1944ETH     CH17490   5.027   0.136   2.605 -0.0523  0.2545  0.8221
 1944ETH     HO17491   4.802   0.358   2.604 -0.0947 -0.8213 -0.3506
 1944ETH     HC17492   4.940   0.272   2.456  0.7631  0.8652  0.0317
 1944ETH     HC17493   5.034   0.357   2.575  0.2034 -0.1606  2.7337
 1944ETH     HC17494   4.968   0.046   2.586 -0.9296  0.6780  1.5210
 1944ETH     HC17495   5.117   0.118   2.546 -1.4245 -1.1381 -0.9120
 1944ETH     HC17496   5.057   0.137   2.710  1.3157 -1.0495  0.4668
 1945ETH     OH17497   3.233   4.061   4.387 -0.6983 -0.6029 -0.4337
 1945ETH     CH17498   3.185   3.930   4.368 -0.2330 -0.8201 -0.1218
 1945ETH     CH17499   3.260   3.842   4.468  0.1914  0.2810  0.5403
 1945ETH     HO17500   3.212   4.089   4.475  1.8190  0.2915 -0.0858
 1945ETH     HC17501   3.078   3.934   4.391 -0.5056 -0.6557 -1.3654
 1945ETH     HC17502   3.201   3.894   4.266 -0.4929 -0.5610 -0.2571
 1945ETH     HC17503   3.367   3.859   4.457  0.2576  0.2823  1.2181
 1945ETH     HC17504   3.240   3.848   4.575 -1.4890 -1.3954  0.3639
 1945ETH     HC17505   3.259   3.736   4.443 -1.8632  0.0915  1.3199
 1946ETH     OH17506   0.558   3.437   3.748 -0.3280 -0.2650 -0.2905
 1946ETH     CH17507   0.461   3.445   3.850 -0.4092 -0.0237 -0.3848
 1946ETH     CH17508   0.321   3.486   3.803 -0.3891  0.4805 -0.0144
 1946ETH     HO17509   0.553   3.352   3.708  0.2302 -1.0296  1.2325
 1946ETH     HC17510   0.464   3.349   3.903  0.7062 -0.3661 -1.0539
 1946ETH     HC17511   0.504   3.527   3.908 -2.1252  1.2323 -0.8537
 1946ETH     HC17512   0.256   3.509   3.887  0.5263 -0.3600  0.9523
 1946ETH     HC17513   0.316   3.563   3.727  0.9246  0.3885 -0.2084
 1946ETH     HC17514   0.268   3.405   3.754 -0.0369  0.8165 -0.9591
 1947ETH     OH17515   5.778   2.317   3.865  0.3417 -0.0541  0.3869
 1947ETH     CH17516   5.885   2.339   3.955  0.5906 -0.2207  0.1330
 1947ETH     CH17517   5.901   2.219   4.048  0.4629 -0.1044  0.3053
 1947ETH     HO17518   5.782   2.234   3.821 -1.1051 -0.1722  0.4719
 1947ETH     HC17519   5.977   2.366   3.904 -0.2330  0.8927 -0.7789
 1947ETH     HC17520   5.859   2.419   4.024  0.4311 -0.2842  0.1467
 1947ETH     HC17521   5.976   2.229   4.127 -1.9679 -0.1828  2.7172
 1947ETH     HC17522   5.803   2.202   4.094 -1.1409  0.8045 -2.6693
 1947ETH     HC17523   5.929   2.130   3.992  1.7685 -0.5506  1.6184
 1948ETH     OH17524   4.696   4.110   0.423  0.4431  0.5660 -0.2160
 1948ETH     CH17525   4.660   4.065   0.294 -0.8028  0.5802  0.1253
 1948ETH     CH17526   4.751   4.128   0.190  0.3373  0.3192  0.9602
 1948ETH     HO17527   4.760   4.045   0.448  0.4551  0.4815 -0.4629
 1948ETH     HC17528   4.662   3.956   0.288 -0.4305  0.7117 -2.4880
 1948ETH     HC17529   4.557   4.092   0.270 -0.4588 -0.6714 -2.9380
 1948ETH     HC17530   4.855   4.098   0.202  0.3484 -0.3824 -0.7438
 1948ETH     HC17531   4.709   4.106   0.092 -0.2992  1.3521  0.9893
 1948ETH     HC17532   4.751   4.237   0.198 -0.4859  0.4380 -0.4705
 1949ETH     OH17533   5.790   6.249   1.099 -0.0043  0.0453  0.0925
 1949ETH     CH17534   5.869   6.358   1.141 -0.0769  0.2746 -0.3698
 1949ETH     CH17535   5.845   6.396   1.287  0.7295  0.3480 -0.2536
 1949ETH     HO17536   5.814   6.229   1.010 -0.2711  0.6023 -0.1057
 1949ETH     HC17537   5.974   6.347   1.117  0.0665  1.2144 -0.1965
 1949ETH     HC17538   5.827   6.441   1.083  0.1721  0.9806  0.4493
 1949ETH     HC17539   5.740   6.423   1.304  0.6013 -0.3174  0.0158
 1949ETH     HC17540   5.879   6.319   1.356  0.6053 -0.8707 -1.5377
 1949ETH     HC17541   5.906   6.484   1.307  2.2726 -0.4657 -1.3473
 1950ETH     OH17542   1.555   0.265   0.014  0.5666  0.6121  0.2216
 1950ETH     CH17543   1.425   0.316  -0.003  0.3563 -0.1277 -0.4225
 1950ETH     CH17544   1.440   0.467   0.016 -0.9944 -0.0844  0.3838
 1950ETH     HO17545   1.570   0.270   0.107 -0.4526 -0.8815  0.4981
 1950ETH     HC17546   1.389   0.298  -0.104  2.4704 -2.7778 -0.7538
 1950ETH     HC17547   1.359   0.269   0.070 -0.7082  0.9482 -0.6603
 1950ETH     HC17548   1.340   0.509   0.009 -1.3830 -1.3504 -2.3805
 1950ETH     HC17549   1.479   0.486   0.117  1.1583  0.4246 -0.5188
 1950ETH     HC17550   1.508   0.522  -0.049 -0.1344 -0.8174  0.6517
 1951ETH     OH17551   4.100   0.153   5.161  0.1147 -0.2119  0.9708
 1951ETH     CH17552   4.052   0.188   5.289 -0.6368 -0.0709  0.6545
 1951ETH     CH17553   4.171   0.167   5.383 -0.0463 -0.1614 -0.1100
 1951ETH     HO17554   4.144   0.227   5.123  0.8408 -0.7821  0.6816
 1951ETH     HC17555   4.016   0.291   5.291  1.1081  0.6010 -0.8461
 1951ETH     HC17556   3.974   0.115   5.313 -1.3531  0.7041  0.7090
 1951ETH     HC17557   4.135   0.170   5.486  2.1633  0.0322  0.6838
 1951ETH     HC17558   4.217   0.068   5.375  0.6397  0.2004 -0.6384
 1951ETH     HC17559   4.249   0.239   5.362  0.6041 -1.2725 -1.6318
 1952ETH     OH17560   1.353   3.124   2.396  0.5470  0.1611  0.4321
 1952ETH     CH17561   1.256   3.030   2.437  0.4484 -0.0194 -0.2213
 1952ETH     CH17562   1.222   2.944   2.315 -0.7542  0.0264  0.0776
 1952ETH     HO17563   1.380   3.169   2.475  1.5710  0.9774 -0.3663
 1952ETH     HC17564   1.299   2.963   2.511  1.9293  0.2584 -0.8086
 1952ETH     HC17565   1.170   3.073   2.487  0.6909  0.5080 -0.2553
 1952ETH     HC17566   1.310   2.932   2.252 -1.2073 -1.6213 -0.2822
 1952ETH     HC17567   1.195   2.846   2.355  0.2249 -0.9663 -1.5920
 1952ETH     HC17568   1.134   2.975   2.259 -0.0219  0.4411 -0.8537
 1953ETH     OH17569   4.433   4.723   1.471  0.0763  0.2214  0.4172
 1953ETH     CH17570   4.561   4.683   1.427 -0.0069 -0.2786  0.6205
 1953ETH     CH17571   4.649   4.677   1.551  0.2526 -0.4859  0.4272
 1953ETH     HO17572   4.382   4.726   1.391  1.3080  0.0440 -0.3868
 1953ETH     HC17573   4.552   4.593   1.367 -0.9202 -0.3835  0.9098
 1953ETH     HC17574   4.605   4.749   1.352 -1.8613  1.3918  0.9339
 1953ETH     HC17575   4.752   4.654   1.525  0.1915 -1.7816  1.2726
 1953ETH     HC17576   4.662   4.766   1.612 -1.2629  0.2651 -0.3153
 1953ETH     HC17577   4.612   4.603   1.623  0.8273 -2.0279 -0.8377
 1954ETH     OH17578   0.924   4.583   1.183  0.0854  0.0889  0.1664
 1954ETH     CH17579   0.988   4.458   1.174 -0.0056  0.0682 -0.2098
 1954ETH     CH17580   1.061   4.419   1.302 -0.2407 -0.2980 -0.1883
 1954ETH     HO17581   0.986   4.652   1.166 -1.5261  1.1865 -1.4973
 1954ETH     HC17582   0.907   4.390   1.150  0.1685  0.3184 -1.5320
 1954ETH     HC17583   1.067   4.470   1.100  1.5957  1.6136  1.6624
 1954ETH     HC17584   1.118   4.328   1.281  0.4374  0.3456 -1.2066
 1954ETH     HC17585   1.130   4.498   1.334  0.0722  0.7582 -3.3272
 1954ETH     HC17586   0.993   4.385   1.380  0.9414 -0.0542  0.9650
 1955ETH     OH17587   3.659   5.558   1.667 -0.0909  0.1572  0.5112
 1955ETH     CH17588   3.641   5.468   1.774  0.6563 -0.3261  0.2392
 1955ETH     CH17589   3.659   5.544   1.906 -0.3330 -0.2024  0.3060
 1955ETH     HO17590   3.654   5.504   1.589  0.6837 -1.6035  1.6534
 1955ETH     HC17591   3.546   5.418   1.755  1.0707 -1.1829  0.3933
 1955ETH     HC17592   3.724   5.398   1.780  1.5869  0.7905  0.5468
 1955ETH     HC17593   3.641   5.480   1.991  1.1553 -1.2758 -0.1625
 1955ETH     HC17594   3.758   5.589   1.912  0.5118 -1.8327 -1.0598
 1955ETH     HC17595   3.599   5.634   1.915 -1.1220 -0.8082  1.1037
 1956ETH     OH17596   1.425   1.366   0.462 -0.0090  0.1742 -0.1259
 1956ETH     CH17597   1.479   1.265   0.380 -0.4645 -0.2448  0.0801
 1956ETH     CH17598   1.366   1.200   0.301  0.3335 -0.5370 -0.8309
 1956ETH     HO17599   1.389   1.435   0.410 -0.6145  0.2573  0.3954
 1956ETH     HC17600   1.544   1.323   0.314 -2.0668  0.6119 -0.7784
 1956ETH     HC17601   1.543   1.198   0.438 -2.7580 -2.0053  0.6157
 1956ETH     HC17602   1.291   1.269   0.261 -2.4099 -2.6231  0.5500
 1956ETH     HC17603   1.414   1.147   0.218  3.7753  0.5176  0.4228
 1956ETH     HC17604   1.308   1.131   0.362  0.8342 -0.6910 -0.5227
 1957ETH     OH17605   4.979   4.712   0.473 -0.8096  0.2269 -0.2575
 1957ETH     CH17606   4.951   4.814   0.380  0.2665  0.4244 -0.3629
 1957ETH     CH17607   4.807   4.859   0.400 -0.0261 -0.7189  0.1396
 1957ETH     HO17608   4.999   4.765   0.548 -1.6161 -1.8566  1.4949
 1957ETH     HC17609   5.029   4.890   0.383 -1.6322  2.4839 -1.5825
 1957ETH     HC17610   4.957   4.770   0.280  1.5367  0.2991 -0.2443
 1957ETH     HC17611   4.782   4.877   0.505 -1.2150  0.6427 -0.3501
 1957ETH     HC17612   4.788   4.960   0.363 -2.8624 -1.1520  0.3043
 1957ETH     HC17613   4.752   4.774   0.360 -0.9267  0.4697 -1.2165
 1958ETH     OH17614   0.689   0.876   4.721  0.3284  0.1608 -0.0924
 1958ETH     CH17615   0.825   0.914   4.723  0.3696  0.0396 -0.5724
 1958ETH     CH17616   0.901   0.826   4.624  0.7322  0.4073 -0.6179
 1958ETH     HO17617   0.639   0.948   4.757 -1.2828 -1.3851  0.8519
 1958ETH     HC17618   0.842   1.021   4.714  1.6356 -0.0915  0.1921
 1958ETH     HC17619   0.871   0.890   4.819  0.8944  2.0627 -0.3001
 1958ETH     HC17620   1.004   0.863   4.613  0.5106  1.5360  0.9667
 1958ETH     HC17621   0.897   0.723   4.659  0.8120  0.3152 -0.8736
 1958ETH     HC17622   0.863   0.831   4.522  2.6824  2.6504 -1.3138
 1959ETH     OH17623   1.903   1.267   3.243 -0.4375 -0.2544  0.0725
 1959ETH     CH17624   1.866   1.362   3.145 -0.4937 -0.4798 -0.1257
 1959ETH     CH17625   1.714   1.376   3.140 -0.4718 -0.2714 -0.1934
 1959ETH     HO17626   1.851   1.189   3.230 -2.6599  1.0907  0.4968
 1959ETH     HC17627   1.923   1.452   3.167 -0.8208 -0.6381  1.4478
 1959ETH     HC17628   1.896   1.336   3.044 -0.7731  1.6030 -0.7674
 1959ETH     HC17629   1.685   1.463   3.080  2.4107 -0.3261 -1.7438
 1959ETH     HC17630   1.670   1.299   3.077 -2.1840 -0.1003  0.7557
 1959ETH     HC17631   1.662   1.380   3.235  1.3424 -0.5751  0.8387
 1960ETH     OH17632   2.484   2.694   4.519 -0.6277 -0.1054  0.4519
 1960ETH     CH17633   2.423   2.738   4.400 -0.0207 -0.2750  0.0802
 1960ETH     CH17634   2.522   2.709   4.286 -0.3546 -0.1884 -0.2351
 1960ETH     HO17635   2.435   2.732   4.591 -0.5991 -0.7810  0.8356
 1960ETH     HC17636   2.333   2.679   4.385 -0.2204  0.0545 -0.0156
 1960ETH     HC17637   2.397   2.842   4.413 -0.8309 -0.6720  1.6714
 1960ETH     HC17638   2.612   2.769   4.294  1.0762 -2.1600 -1.3069
 1960ETH     HC17639   2.556   2.605   4.282 -3.5269 -1.2650 -0.7170
 1960ETH     HC17640   2.462   2.728   4.197 -0.7407  0.1657  0.1001
 1961ETH     OH17641   0.133   0.158   5.805 -0.4674 -0.1350  0.2661
 1961ETH     CH17642   0.231   0.183   5.707 -0.3490  0.1400  0.4569
 1961ETH     CH17643   0.179   0.309   5.639 -0.4176 -0.0931  0.0816
 1961ETH     HO17644   0.142   0.068   5.833  0.9376 -0.4966 -1.2608
 1961ETH     HC17645   0.331   0.189   5.750 -1.2045 -1.8365  2.8467
 1961ETH     HC17646   0.228   0.107   5.630 -1.3331  0.6926 -0.0527
 1961ETH     HC17647   0.249   0.353   5.567  0.2665 -0.5477  0.4726
 1961ETH     HC17648   0.083   0.291   5.590 -0.1564 -0.8553 -0.1575
 1961ETH     HC17649   0.173   0.387   5.715 -0.0421  0.0090  0.0056
 1962ETH     OH17650   2.756   2.603   2.358  0.7253 -0.5264 -0.4795
 1962ETH     CH17651   2.839   2.689   2.433  0.0462 -0.3202  0.0486
 1962ETH     CH17652   2.791   2.687   2.578  0.0115  0.0970  0.0446
 1962ETH     HO17653   2.664   2.621   2.375  1.0448  0.7053  0.0399
 1962ETH     HC17654   2.939   2.647   2.422  1.0303  2.0418 -0.3736
 1962ETH     HC17655   2.848   2.794   2.402 -0.4351  0.5894  2.8845
 1962ETH     HC17656   2.804   2.585   2.614  0.7646 -0.6739 -2.2987
 1962ETH     HC17657   2.852   2.758   2.634  0.7688 -2.2738  2.2920
 1962ETH     HC17658   2.693   2.732   2.596 -0.5551 -1.3352  0.6165
 1963ETH     OH17659   1.019   0.832   5.420 -0.3389 -0.1098 -0.0155
 1963ETH     CH17660   0.968   0.772   5.303 -0.0862 -0.2453 -0.0575
 1963ETH     CH17661   0.821   0.807   5.279  0.0495  0.1039 -0.3916
 1963ETH     HO17662   1.111   0.818   5.406 -0.3142  0.3028 -0.2724
 1963ETH     HC17663   0.986   0.666   5.287 -0.4029 -0.4164  0.7078
 1963ETH     HC17664   1.025   0.814   5.220 -1.4248  1.5132 -0.1243
 1963ETH     HC17665   0.785   0.909   5.297 -1.8283 -0.1276 -2.6191
 1963ETH     HC17666   0.795   0.781   5.176 -2.4382  0.9210 -0.0116
 1963ETH     HC17667   0.761   0.741   5.342  0.3129 -0.7973 -1.0735
 1964ETH     OH17668   3.734   2.322   1.214  0.0868  0.0720 -0.3029
 1964ETH     CH17669   3.859   2.303   1.278 -0.0714 -0.3624 -0.1245
 1964ETH     CH17670   3.957   2.267   1.166  0.2800  0.2035 -0.0010
 1964ETH     HO17671   3.746   2.381   1.140  1.1072  0.7788  0.4008
 1964ETH     HC17672   3.894   2.393   1.329  0.8599 -0.9632  0.3049
 1964ETH     HC17673   3.864   2.229   1.358 -1.5796  0.0230  0.3510
 1964ETH     HC17674   3.926   2.181   1.106 -0.4292  0.0644  0.5578
 1964ETH     HC17675   3.964   2.348   1.093  1.5963  0.8565  0.8346
 1964ETH     HC17676   4.057   2.245   1.203  0.7412 -0.3711 -1.5513
 1965ETH     OH17677   3.208   3.701   3.436 -0.2984 -0.2801  0.8671
 1965ETH     CH17678   3.179   3.681   3.300  0.2686 -0.1283  0.7224
 1965ETH     CH17679   3.309   3.642   3.230 -0.0866  0.2714 -0.1687
 1965ETH     HO17680   3.250   3.786   3.444 -0.7284 -0.2001  2.5682
 1965ETH     HC17681   3.118   3.591   3.300 -0.7505  0.4435 -4.0631
 1965ETH     HC17682   3.129   3.766   3.254 -0.0677 -0.4225  0.5364
 1965ETH     HC17683   3.388   3.717   3.243 -1.2698  1.4256  0.4439
 1965ETH     HC17684   3.344   3.547   3.270  0.0984 -0.5853 -2.2924
 1965ETH     HC17685   3.300   3.627   3.122  2.7724  0.2420 -0.4450
 1966ETH     OH17686   5.397   2.103   1.798  0.2346 -0.2177 -0.2029
 1966ETH     CH17687   5.259   2.076   1.804  0.1911  0.1674  0.6640
 1966ETH     CH17688   5.190   2.159   1.697  0.1685 -0.2641  0.3433
 1966ETH     HO17689   5.431   2.097   1.710 -0.1084 -1.2787 -0.2675
 1966ETH     HC17690   5.238   1.970   1.790 -0.3736  0.1496  1.5926
 1966ETH     HC17691   5.232   2.102   1.907 -0.3866  1.5461  0.1646
 1966ETH     HC17692   5.086   2.126   1.691 -0.9177  3.2224 -1.9941
 1966ETH     HC17693   5.167   2.264   1.715  0.5185 -0.0460 -0.4457
 1966ETH     HC17694   5.219   2.142   1.593  0.8998  3.3066 -0.0960
 1967ETH     OH17695   0.367   0.249   0.325 -0.3364  0.2938 -0.4869
 1967ETH     CH17696   0.366   0.110   0.298  0.3882  0.2229 -0.1489
 1967ETH     CH17697   0.340   0.026   0.424  0.4657 -0.0232 -0.2979
 1967ETH     HO17698   0.293   0.274   0.378  2.7390  0.8475  3.8498
 1967ETH     HC17699   0.290   0.088   0.224 -0.5678  0.3501  0.7828
 1967ETH     HC17700   0.458   0.077   0.251  0.8544  0.2148  0.7459
 1967ETH     HC17701   0.247   0.061   0.469  0.1996 -1.3360  0.1970
 1967ETH     HC17702   0.305  -0.072   0.391 -0.1007 -0.0976  0.5192
 1967ETH     HC17703   0.419   0.027   0.499 -1.1660 -2.2735  1.4892
 1968ETH     OH17704   3.870   3.866   1.094 -0.1815 -0.0046 -0.2798
 1968ETH     CH17705   3.757   3.811   1.031 -0.3015  0.3303 -0.3610
 1968ETH     CH17706   3.797   3.668   0.992 -0.1212  0.2271  0.1921
 1968ETH     HO17707   3.929   3.880   1.022  0.6831 -0.9887  0.2192
 1968ETH     HC17708   3.682   3.798   1.110 -1.4008  0.1501 -1.4201
 1968ETH     HC17709   3.718   3.874   0.951 -1.3452 -1.2929 -1.1754
 1968ETH     HC17710   3.832   3.618   1.082  0.1879  1.4233  0.7500
 1968ETH     HC17711   3.721   3.607   0.942 -0.2088  0.7904 -0.3746
 1968ETH     HC17712   3.869   3.668   0.910  0.9764  0.1222  1.1459
 1969ETH     OH17713   4.948   5.853   5.748 -0.2106 -0.3012 -0.0951
 1969ETH     CH17714   5.037   5.905   5.844 -0.4198 -0.4765  0.1954
 1969ETH     CH17715   5.076   6.049   5.810  0.9005 -0.8952 -0.0851
 1969ETH     HO17716   4.864   5.883   5.778 -1.7802 -2.8461 -1.7635
 1969ETH     HC17717   5.000   5.909   5.946  2.4253  0.1230  1.2324
 1969ETH     HC17718   5.123   5.838   5.835 -0.2638 -0.5270  1.9830
 1969ETH     HC17719   4.984   6.106   5.804  0.1699 -2.1683 -1.1751
 1969ETH     HC17720   5.138   6.094   5.888 -0.7698  1.2453  0.0715
 1969ETH     HC17721   5.114   6.058   5.708  0.4139 -0.8869 -0.2646
 1970ETH     OH17722   1.514   2.119   3.731  0.3363  0.7833  0.2387
 1970ETH     CH17723   1.389   2.163   3.683 -0.1210 -0.5924  0.1427
 1970ETH     CH17724   1.271   2.148   3.779 -0.1983 -0.1371  0.1201
 1970ETH     HO17725   1.492   2.073   3.811 -2.6013  2.2384  0.3328
 1970ETH     HC17726   1.396   2.267   3.653 -2.5986 -0.3825  0.2027
 1970ETH     HC17727   1.371   2.108   3.590  0.5383 -0.0100 -0.3339
 1970ETH     HC17728   1.178   2.175   3.730 -0.4955  0.4082  0.9808
 1970ETH     HC17729   1.258   2.051   3.827 -0.8348  0.0925  0.4112
 1970ETH     HC17730   1.288   2.217   3.861 -1.5131 -0.4203  0.6488
 1971ETH     OH17731   6.212   2.294   4.432  0.2110 -0.2551 -0.4919
 1971ETH     CH17732   6.157   2.191   4.510  0.6021  0.2741  0.4943
 1971ETH     CH17733   6.128   2.237   4.653 -0.0151  0.8767  0.1757
 1971ETH     HO17734   6.155   2.369   4.448  1.5087  0.4061  1.2127
 1971ETH     HC17735   6.061   2.161   4.467  0.4027  1.2184  0.2871
 1971ETH     HC17736   6.226   2.107   4.502 -1.3228 -1.1586 -1.8051
 1971ETH     HC17737   6.219   2.261   4.708  0.4017 -2.1739  0.9128
 1971ETH     HC17738   6.068   2.327   4.645 -1.5925 -0.3198 -2.1480
 1971ETH     HC17739   6.063   2.169   4.710 -1.9296  0.5356 -2.3225
 1972ETH     OH17740   0.990   3.410   3.447 -0.0046  0.1948 -0.9924
 1972ETH     CH17741   0.929   3.537   3.436  0.0403  0.3268  0.2187
 1972ETH     CH17742   1.007   3.623   3.337 -0.1876  0.2925  0.0066
 1972ETH     HO17743   0.952   3.367   3.522  3.4189 -1.0019  0.1673
 1972ETH     HC17744   0.830   3.523   3.392 -0.3195 -1.2391  1.4520
 1972ETH     HC17745   0.929   3.585   3.534 -1.6564  0.8953 -0.0411
 1972ETH     HC17746   1.114   3.630   3.355 -0.0433  2.4196 -1.5056
 1972ETH     HC17747   1.010   3.578   3.238  0.3611 -1.7408  0.9190
 1972ETH     HC17748   0.957   3.720   3.325 -2.2118 -0.6451  0.6026
 1973ETH     OH17749   0.531   4.519   5.365 -0.6834  0.2801  0.1916
 1973ETH     CH17750   0.539   4.407   5.450 -0.7813 -0.4293 -0.7266
 1973ETH     CH17751   0.567   4.276   5.377 -0.0052 -0.4446 -0.3999
 1973ETH     HO17752   0.441   4.548   5.370 -1.3339 -1.6100 -0.3088
 1973ETH     HC17753   0.629   4.431   5.507  0.8129  0.2170 -3.4302
 1973ETH     HC17754   0.456   4.405   5.520 -2.4079 -0.0755 -2.5851
 1973ETH     HC17755   0.545   4.198   5.449  3.2674 -0.9231  0.1573
 1973ETH     HC17756   0.502   4.272   5.289 -1.9327 -0.9738  1.0264
 1973ETH     HC17757   0.671   4.270   5.343 -0.8405  1.0471 -3.4341
 1974ETH     OH17758   1.130   5.768   4.642  0.2409 -0.2569  0.2711
 1974ETH     CH17759   1.111   5.874   4.551 -0.0102 -0.0796  0.5333
 1974ETH     CH17760   1.039   5.832   4.423 -0.0633 -0.2066  0.6044
 1974ETH     HO17761   1.165   5.809   4.719  0.3619  0.2044 -0.0224
 1974ETH     HC17762   1.052   5.953   4.599  2.7131  2.0703  0.4819
 1974ETH     HC17763   1.207   5.917   4.523 -0.8237  0.5763 -1.3795
 1974ETH     HC17764   0.942   5.789   4.452 -1.8367  0.9937 -3.2503
 1974ETH     HC17765   1.008   5.916   4.362  1.1357 -0.7815 -0.8147
 1974ETH     HC17766   1.091   5.757   4.364  1.2614  1.4628 -0.3707
 1975ETH     OH17767   5.869   1.737   3.833  0.0909 -0.5353  0.0873
 1975ETH     CH17768   5.796   1.800   3.935  0.2348 -0.1941 -0.0208
 1975ETH     CH17769   5.713   1.703   4.018 -0.2499  0.7394  0.5955
 1975ETH     HO17770   5.809   1.713   3.763  0.3776  1.8343 -1.0029
 1975ETH     HC17771   5.873   1.848   3.996  2.2007 -0.5440 -2.1729
 1975ETH     HC17772   5.738   1.879   3.887  0.0575  0.4296  1.2018
 1975ETH     HC17773   5.773   1.644   4.087  1.8378  1.6233 -0.4419
 1975ETH     HC17774   5.642   1.748   4.088 -0.6565  1.4273 -0.2552
 1975ETH     HC17775   5.662   1.621   3.966  1.6170  0.8500 -1.4529
 1976ETH     OH17776   5.357   1.091   2.156 -0.1787 -0.3751 -0.2778
 1976ETH     CH17777   5.232   1.035   2.122 -0.2404 -0.0245 -0.6271
 1976ETH     CH17778   5.240   0.884   2.143  0.3624  0.0733 -0.1198
 1976ETH     HO17779   5.361   1.101   2.250 -0.2252 -1.9791 -0.0850
 1976ETH     HC17780   5.153   1.074   2.186 -2.5255 -2.2506 -2.0001
 1976ETH     HC17781   5.203   1.072   2.023 -0.3011  1.4572 -0.0730
 1976ETH     HC17782   5.145   0.844   2.107  0.1117  1.1345 -0.6508
 1976ETH     HC17783   5.317   0.842   2.078 -0.2663 -0.6444 -0.4098
 1976ETH     HC17784   5.255   0.853   2.246 -0.0631 -0.0070 -0.0820
 1977ETH     OH17785   6.157   4.452   0.504  0.0191 -0.2633  0.0915
 1977ETH     CH17786   6.139   4.519   0.626  0.1657  0.1611 -0.1184
 1977ETH     CH17787   6.246   4.624   0.656  0.0372  0.2105  0.1655
 1977ETH     HO17788   6.114   4.487   0.427  0.1344 -1.7263 -0.6647
 1977ETH     HC17789   6.040   4.561   0.607 -0.1513 -0.6058 -0.1783
 1977ETH     HC17790   6.117   4.453   0.710  0.2503 -1.3766 -1.2937
 1977ETH     HC17791   6.250   4.705   0.583 -1.0463  1.1091  1.0740
 1977ETH     HC17792   6.235   4.672   0.754  1.7785 -2.3778  1.6661
 1977ETH     HC17793   6.345   4.579   0.658  0.0116  0.1956  2.0511
 1978ETH     OH17794   5.703   5.629   5.712 -0.1793 -0.3564 -0.1120
 1978ETH     CH17795   5.724   5.696   5.835 -0.1271 -0.1720 -0.2209
 1978ETH     CH17796   5.678   5.842   5.831  0.5774  0.0485 -0.2616
 1978ETH     HO17797   5.739   5.673   5.636 -0.7527 -0.2082 -0.3025
 1978ETH     HC17798   5.676   5.646   5.920 -1.3426  1.3767  0.0226
 1978ETH     HC17799   5.831   5.689   5.855 -0.2699 -1.9369 -0.0009
 1978ETH     HC17800   5.707   5.887   5.926  0.0238 -2.1125  0.9712
 1978ETH     HC17801   5.743   5.899   5.765  0.3258 -0.0544 -0.5975
 1978ETH     HC17802   5.572   5.858   5.813 -0.1281 -1.6246  2.0811
 1979ETH     OH17803   0.625   5.109   1.434  0.2386 -0.2614  0.2924
 1979ETH     CH17804   0.558   5.089   1.312  0.3253  0.1049  0.1853
 1979ETH     CH17805   0.645   5.005   1.219  0.5978  0.2479  0.3095
 1979ETH     HO17806   0.632   5.024   1.475 -2.0109 -0.0262  1.2015
 1979ETH     HC17807   0.466   5.033   1.333  0.4541 -0.2725 -0.2664
 1979ETH     HC17808   0.531   5.191   1.283 -0.4144 -0.1075  0.1038
 1979ETH     HC17809   0.578   4.970   1.140 -0.9142  0.1872  1.5758
 1979ETH     HC17810   0.728   5.058   1.172  2.4076 -1.5042  1.4520
 1979ETH     HC17811   0.678   4.914   1.268  0.1230 -0.8403 -1.3549
 1980ETH     OH17812   5.024   3.988   2.977  0.1898 -0.3438 -0.1647
 1980ETH     CH17813   5.028   3.960   3.115  0.1543 -0.5517 -0.2068
 1980ETH     CH17814   4.903   4.029   3.167  0.6229 -0.1946  0.4440
 1980ETH     HO17815   5.055   4.077   2.968  2.5044 -0.9334  1.4636
 1980ETH     HC17816   5.037   3.852   3.129 -2.9040 -1.1338 -2.1160
 1980ETH     HC17817   5.118   4.006   3.156 -1.2641  0.6928  1.5525
 1980ETH     HC17818   4.922   4.136   3.157 -1.3135  0.1109 -0.2534
 1980ETH     HC17819   4.810   3.997   3.121  0.9936 -1.0419  0.2891
 1980ETH     HC17820   4.896   4.025   3.276 -0.1609  1.4875  0.4808
 1981ETH     OH17821   4.823   6.176   3.759  0.4503  0.2319  0.6468
 1981ETH     CH17822   4.823   6.090   3.648  0.0626  0.2483  0.6346
 1981ETH     CH17823   4.861   5.947   3.684 -0.4087 -0.0718 -0.1179
 1981ETH     HO17824   4.883   6.249   3.748  0.3145  0.2343 -0.0723
 1981ETH     HC17825   4.722   6.098   3.606  0.7489  2.6971 -0.6634
 1981ETH     HC17826   4.888   6.129   3.570  0.2175  1.2340  1.2465
 1981ETH     HC17827   4.807   5.913   3.772  0.9260  1.3926  1.2969
 1981ETH     HC17828   4.827   5.880   3.605 -0.7109  0.5904 -0.5540
 1981ETH     HC17829   4.967   5.929   3.706 -0.9727 -1.4097  1.5764
 1982ETH     OH17830   6.125   1.912   3.652  0.0144  0.1009 -0.6400
 1982ETH     CH17831   6.185   1.901   3.779 -0.1395 -0.6151 -0.6274
 1982ETH     CH17832   6.264   2.023   3.827 -0.1699 -0.7676 -0.1870
 1982ETH     HO17833   6.195   1.904   3.590  2.1942  1.9696  1.4607
 1982ETH     HC17834   6.102   1.884   3.848 -0.6676  0.8521 -0.8813
 1982ETH     HC17835   6.249   1.814   3.796  1.2145  0.3629 -0.5933
 1982ETH     HC17836   6.308   2.008   3.926 -0.6711  3.6243  0.7755
 1982ETH     HC17837   6.357   2.035   3.771  0.8344 -1.1085  1.3623
 1982ETH     HC17838   6.193   2.104   3.820 -0.4675 -0.9622  0.5328
 1983ETH     OH17839   5.858   5.870   4.376  0.1099 -0.2169  0.1316
 1983ETH     CH17840   5.797   5.996   4.397 -0.2337 -0.3722  0.0789
 1983ETH     CH17841   5.700   5.998   4.515 -0.4950 -0.3945 -0.1372
 1983ETH     HO17842   5.864   5.823   4.458 -0.9806 -0.1047  0.2948
 1983ETH     HC17843   5.864   6.082   4.396  2.5049 -2.3996  2.3799
 1983ETH     HC17844   5.737   6.021   4.310 -0.8200 -1.6786  0.0924
 1983ETH     HC17845   5.628   5.916   4.508 -0.0415 -0.8259  0.2227
 1983ETH     HC17846   5.750   5.980   4.610 -0.8874  0.3925  0.2232
 1983ETH     HC17847   5.645   6.092   4.526 -0.3375 -0.4028  0.7114
 1984ETH     OH17848   4.372   1.932   3.900  0.1025  0.1181  0.2437
 1984ETH     CH17849   4.416   2.064   3.881  0.5662 -0.0466  0.1808
 1984ETH     CH17850   4.389   2.108   3.737  0.0311  0.0591  0.3121
 1984ETH     HO17851   4.278   1.933   3.884  0.1906 -0.9555 -0.3657
 1984ETH     HC17852   4.347   2.126   3.939 -0.5804  0.2396 -1.4622
 1984ETH     HC17853   4.521   2.076   3.909 -0.2605  1.4824  2.7883
 1984ETH     HC17854   4.401   2.214   3.716  2.8250 -0.2405  0.2297
 1984ETH     HC17855   4.445   2.045   3.667 -1.1777  1.3237 -1.8415
 1984ETH     HC17856   4.284   2.093   3.713  0.0641  2.9876 -1.8983
 1985ETH     OH17857   1.358   2.260   1.599 -0.1618 -0.6413  0.2203
 1985ETH     CH17858   1.483   2.210   1.556  0.0694  0.3419 -0.2606
 1985ETH     CH17859   1.478   2.156   1.414 -0.1209  0.0841 -0.1553
 1985ETH     HO17860   1.297   2.189   1.596 -0.4397 -0.3542 -0.8552
 1985ETH     HC17861   1.556   2.288   1.578 -2.6690  2.7147  0.8294
 1985ETH     HC17862   1.511   2.132   1.627 -0.5403  0.5849  0.2573
 1985ETH     HC17863   1.438   2.240   1.358  1.4672  0.4907 -0.7075
 1985ETH     HC17864   1.580   2.133   1.385 -0.5173 -0.8402 -0.8645
 1985ETH     HC17865   1.419   2.067   1.390 -0.5308 -0.2844  2.1388
 1986ETH     OH17866   4.415   2.408   5.139  0.5536 -0.1829  0.0835
 1986ETH     CH17867   4.453   2.490   5.031 -0.1291 -0.3147 -0.2591
 1986ETH     CH17868   4.354   2.605   5.011  0.4085  0.2603  0.3472
 1986ETH     HO17869   4.439   2.451   5.220  0.2997  1.7830 -0.8437
 1986ETH     HC17870   4.552   2.527   5.057  0.0784 -0.0133 -1.4222
 1986ETH     HC17871   4.450   2.422   4.945 -0.4682 -2.4378  1.3969
 1986ETH     HC17872   4.337   2.659   5.104 -0.1720 -0.4730  0.6755
 1986ETH     HC17873   4.388   2.687   4.949 -1.9728  0.8703 -0.1886
 1986ETH     HC17874   4.255   2.583   4.969  0.7397  1.0686 -0.8848
 1987ETH     OH17875   3.253   5.208   2.862  0.0028  0.2729  0.0649
 1987ETH     CH17876   3.383   5.236   2.816  0.1074  0.1213  0.2699
 1987ETH     CH17877   3.466   5.295   2.930  0.0445  0.7703 -0.0208
 1987ETH     HO17878   3.193   5.276   2.835  2.8266  1.4756 -3.5114
 1987ETH     HC17879   3.426   5.148   2.767 -0.2848 -0.5090  1.0452
 1987ETH     HC17880   3.369   5.310   2.738 -0.3235  0.9996  1.1617
 1987ETH     HC17881   3.495   5.211   2.994 -0.3519  0.8453  0.2582
 1987ETH     HC17882   3.559   5.344   2.901  2.4415 -3.3470  0.2929
 1987ETH     HC17883   3.412   5.364   2.995  0.3995  0.4406  0.6375
 1988ETH     OH17884   4.235   3.008   6.160  0.1063  0.5366  0.6020
 1988ETH     CH17885   4.237   2.869   6.135  1.1603  0.6586 -0.0590
 1988ETH     CH17886   4.312   2.830   6.008  0.6354 -0.2348 -0.0929
 1988ETH     HO17887   4.197   3.047   6.082  1.8760 -1.2964 -1.2608
 1988ETH     HC17888   4.284   2.817   6.218  1.1301 -0.2101 -0.5822
 1988ETH     HC17889   4.134   2.832   6.137  1.7956 -1.0988  1.2542
 1988ETH     HC17890   4.258   2.852   5.915 -1.5844  1.0022  1.4332
 1988ETH     HC17891   4.405   2.886   6.003 -0.8323  2.1115 -2.8288
 1988ETH     HC17892   4.331   2.723   5.999  0.4451 -0.2331 -0.5243
 1989ETH     OH17893   4.734   3.188   3.145  0.1008  0.3028  0.2144
 1989ETH     CH17894   4.771   3.059   3.102  0.6627  0.4143  0.3578
 1989ETH     CH17895   4.860   3.072   2.979 -0.6436  0.1471 -0.6262
 1989ETH     HO17896   4.684   3.226   3.075  2.3712 -0.5432 -1.9324
 1989ETH     HC17897   4.806   2.998   3.185 -1.8259 -2.2089 -0.4230
 1989ETH     HC17898   4.677   3.010   3.076 -1.1014  2.3505  2.8186
 1989ETH     HC17899   4.845   3.164   2.923 -0.4196 -0.6275 -1.9979
 1989ETH     HC17900   4.967   3.072   3.001 -0.7960  0.3952  0.1153
 1989ETH     HC17901   4.839   2.989   2.912  0.9167 -1.0892  0.3651
 1990ETH     OH17902   3.171   2.352   2.684  0.2660  0.1026 -0.3253
 1990ETH     CH17903   3.225   2.473   2.733 -0.3197  0.4279 -0.4854
 1990ETH     CH17904   3.107   2.568   2.757 -0.5193 -0.0439  0.4052
 1990ETH     HO17905   3.240   2.313   2.632  0.2324  0.2122 -0.4526
 1990ETH     HC17906   3.268   2.460   2.832 -2.2934 -1.2031  0.1944
 1990ETH     HC17907   3.306   2.517   2.675 -0.4021 -0.5398 -1.3391
 1990ETH     HC17908   3.054   2.594   2.666  0.0396 -2.0649 -0.5157
 1990ETH     HC17909   3.036   2.519   2.824  0.5125  0.9338  2.2727
 1990ETH     HC17910   3.143   2.663   2.795  1.0918 -0.1647 -0.7902
 1991ETH     OH17911   1.343   0.515   5.942 -0.1474 -0.6074 -0.2819
 1991ETH     CH17912   1.446   0.445   5.876  0.5022 -0.2734  0.3638
 1991ETH     CH17913   1.492   0.520   5.750  0.1551  0.2441  0.5395
 1991ETH     HO17914   1.282   0.521   5.870  1.0459  0.2373 -1.2502
 1991ETH     HC17915   1.537   0.422   5.931 -0.1466  1.3313  2.1966
 1991ETH     HC17916   1.404   0.346   5.857  1.0324 -0.6478  1.1199
 1991ETH     HC17917   1.591   0.488   5.718  0.1856 -0.2343  1.0873
 1991ETH     HC17918   1.416   0.491   5.678 -2.0578 -1.0008  3.2788
 1991ETH     HC17919   1.484   0.628   5.756  0.4700  0.2611  0.7291
 1992ETH     OH17920   0.874   3.331   6.070  0.0209 -0.0039 -0.0521
 1992ETH     CH17921   0.968   3.341   5.965  0.2179  0.2303  0.1451
 1992ETH     CH17922   0.884   3.382   5.845 -0.1705  0.4788  0.4999
 1992ETH     HO17923   0.811   3.269   6.037  0.6359 -0.1451 -0.9743
 1992ETH     HC17924   1.047   3.413   5.987 -0.3203  0.3188  1.9323
 1992ETH     HC17925   1.013   3.241   5.961  0.8747  0.5865 -1.4544
 1992ETH     HC17926   0.855   3.487   5.844  1.0147  0.8385  2.0911
 1992ETH     HC17927   0.942   3.356   5.756  2.2548  2.5216  1.4242
 1992ETH     HC17928   0.789   3.332   5.825 -0.8039  2.1056 -0.6682
 1993ETH     OH17929   4.936   4.979   3.028  0.4492 -0.4746 -0.3163
 1993ETH     CH17930   4.983   5.091   3.099  0.2473 -0.5489 -0.0637
 1993ETH     CH17931   5.060   5.184   3.004 -0.3037 -0.2677 -0.2366
 1993ETH     HO17932   4.888   4.927   3.090  0.6879 -0.7846 -0.3907
 1993ETH     HC17933   4.892   5.140   3.132  1.0482  1.0198 -0.1010
 1993ETH     HC17934   5.043   5.059   3.185  0.2954 -1.5563 -0.4651
 1993ETH     HC17935   5.010   5.189   2.907  0.0038 -1.4220 -0.4647
 1993ETH     HC17936   5.074   5.287   3.036 -0.3324 -0.4533  0.3861
 1993ETH     HC17937   5.161   5.142   2.997  0.0897  0.4905  0.8029
 1994ETH     OH17938   4.222   0.382   5.073  0.3153 -0.3651 -0.3294
 1994ETH     CH17939   4.151   0.467   4.986  0.0551 -0.2697 -0.0242
 1994ETH     CH17940   4.201   0.608   5.019  0.2917 -0.2708 -0.3773
 1994ETH     HO17941   4.315   0.383   5.055  0.1080 -2.1049 -1.6923
 1994ETH     HC17942   4.172   0.432   4.885 -0.8519  0.8721 -0.6213
 1994ETH     HC17943   4.044   0.458   5.003  0.1221  0.8736  1.1022
 1994ETH     HC17944   4.143   0.679   4.960 -1.9657 -1.9698 -0.2700
 1994ETH     HC17945   4.184   0.636   5.123 -3.4046 -0.4839 -0.8637
 1994ETH     HC17946   4.307   0.613   4.991  0.6125  0.8716  0.9932
 1995ETH     OH17947   2.227   4.923   2.565 -0.1093 -0.6432  0.2927
 1995ETH     CH17948   2.203   4.789   2.527 -0.0749 -0.4389 -0.4617
 1995ETH     CH17949   2.184   4.792   2.375 -0.2581  0.0940 -0.4306
 1995ETH     HO17950   2.162   4.983   2.531 -0.8121 -0.8751  1.2143
 1995ETH     HC17951   2.276   4.718   2.565  0.5821  0.4405 -0.0621
 1995ETH     HC17952   2.103   4.768   2.566 -0.8210 -0.1791 -2.1607
 1995ETH     HC17953   2.135   4.698   2.350  0.4891 -1.0288  2.1172
 1995ETH     HC17954   2.113   4.870   2.350 -1.5462 -0.7666  0.4799
 1995ETH     HC17955   2.271   4.807   2.311 -0.2763  1.4326 -0.1612
 1996ETH     OH17956   4.657   3.563   1.349 -0.4892 -0.0677  0.1671
 1996ETH     CH17957   4.628   3.684   1.416  0.3391  0.3615 -0.2378
 1996ETH     CH17958   4.754   3.770   1.419  0.5448  0.0315  0.5618
 1996ETH     HO17959   4.713   3.511   1.405  0.4791 -0.4269 -1.1113
 1996ETH     HC17960   4.546   3.743   1.374  1.8761  1.7025 -1.3992
 1996ETH     HC17961   4.611   3.664   1.521 -2.4696  0.9070 -0.5497
 1996ETH     HC17962   4.838   3.716   1.462  0.1295 -0.8231  0.3045
 1996ETH     HC17963   4.774   3.796   1.315  0.7240 -0.6990  0.4116
 1996ETH     HC17964   4.730   3.856   1.482  3.8882  1.8158 -0.4993
 1997ETH     OH17965   0.776   2.337   2.725  0.2373 -0.0549  0.2069
 1997ETH     CH17966   0.842   2.243   2.807  0.5096  0.1081  0.1763
 1997ETH     CH17967   0.940   2.170   2.715  0.1426  0.1424 -0.2422
 1997ETH     HO17968   0.724   2.398   2.773  1.0504  0.6103  0.2555
 1997ETH     HC17969   0.893   2.284   2.894 -1.0147 -1.2791  1.7759
 1997ETH     HC17970   0.770   2.174   2.851  1.2038 -0.0965  1.0154
 1997ETH     HC17971   1.012   2.238   2.668 -1.0080  1.1880 -0.5211
 1997ETH     HC17972   0.989   2.099   2.781  2.0069  1.1363 -0.5227
 1997ETH     HC17973   0.893   2.098   2.648  1.3340 -0.9620  0.1018
 1998ETH     OH17974   3.268   1.866   5.853  0.0894 -0.0561 -0.1238
 1998ETH     CH17975   3.280   2.004   5.881  0.1132 -0.0355 -0.2359
 1998ETH     CH17976   3.412   2.022   5.956 -0.4086  0.3342  0.5984
 1998ETH     HO17977   3.184   1.840   5.819  0.9360 -1.8444 -0.9118
 1998ETH     HC17978   3.284   2.067   5.792 -0.6606  0.6513  0.2012
 1998ETH     HC17979   3.193   2.031   5.941 -1.9238 -0.8433 -2.7311
 1998ETH     HC17980   3.505   1.990   5.909 -1.1121  0.5705 -0.9972
 1998ETH     HC17981   3.428   2.128   5.975 -1.0684  0.5625 -0.0863
 1998ETH     HC17982   3.406   1.967   6.050  0.3116 -1.5057 -0.4189
 1999ETH     OH17983   2.232   2.673   0.553  0.2722  0.1695 -0.0245
 1999ETH     CH17984   2.169   2.582   0.466  0.1098  0.1983  0.0630
 1999ETH     CH17985   2.082   2.487   0.548 -0.1800  0.6335  0.2658
 1999ETH     HO17986   2.167   2.713   0.609  0.3033 -0.5128  0.5086
 1999ETH     HC17987   2.104   2.636   0.396 -2.4975 -1.8573  0.7963
 1999ETH     HC17988   2.243   2.520   0.416  1.4613  1.7315  0.1250
 1999ETH     HC17989   2.042   2.403   0.491 -1.1335  0.6672  0.8709
 1999ETH     HC17990   2.149   2.454   0.628 -1.3289  0.8246  1.3275
 1999ETH     HC17991   2.001   2.541   0.596 -0.5607 -0.8191  1.3254
 2000ETH     OH17992   0.662   5.747   4.922 -0.1199 -0.1549 -0.2039
 2000ETH     CH17993   0.774   5.734   4.838 -0.0842 -0.0089 -0.1803
 2000ETH     CH17994   0.812   5.878   4.804  0.3615  0.0199  0.4299
 2000ETH     HO17995   0.606   5.809   4.877 -1.8862  0.1553  2.3404
 2000ETH     HC17996   0.858   5.687   4.890  1.0399  0.3261 -1.6527
 2000ETH     HC17997   0.753   5.677   4.747  0.1919 -0.0841 -0.1997
 2000ETH     HC17998   0.719   5.928   4.779 -0.1022 -1.0900 -0.1190
 2000ETH     HC17999   0.866   5.926   4.885 -0.1848 -0.5620  1.1342
 2000ETH     HC18000   0.870   5.874   4.711  1.0680  1.1029  0.8167
 2001ETH     OH18001   0.940   1.527   6.033  0.2100  0.8927 -0.1034
 2001ETH     CH18002   0.881   1.551   6.159  0.4592 -0.2166  0.2323
 2001ETH     CH18003   0.904   1.693   6.212 -0.0029 -0.0323 -0.0553
 2001ETH     HO18004   1.033   1.543   6.032  0.1914  1.4655  2.5465
 2001ETH     HC18005   0.776   1.529   6.141  1.4239 -3.8547 -1.5038
 2001ETH     HC18006   0.913   1.475   6.230  1.0170  0.6302  0.8984
 2001ETH     HC18007   1.009   1.721   6.220  0.3691 -1.5186  0.4919
 2001ETH     HC18008   0.843   1.758   6.149  0.2533  1.3734  1.1322
 2001ETH     HC18009   0.851   1.699   6.307  1.7591  0.3461  0.9393
 2002ETH     OH18010   5.916   0.201   4.456  0.6041  0.2271 -0.2286
 2002ETH     CH18011   5.939   0.078   4.522  0.3039  0.2394 -0.1038
 2002ETH     CH18012   5.968   0.103   4.670  0.1447 -0.4633  0.0451
 2002ETH     HO18013   5.992   0.256   4.468  1.0044  0.4674 -3.4363
 2002ETH     HC18014   5.852   0.014   4.508 -0.8916  1.2154  2.4754
 2002ETH     HC18015   6.024   0.036   4.470 -1.1817 -0.3589 -2.1130
 2002ETH     HC18016   6.069   0.143   4.684 -0.7091  2.0577 -0.7360
 2002ETH     HC18017   5.909   0.183   4.713  1.5376  0.5948  0.0168
 2002ETH     HC18018   5.961   0.015   4.734 -0.7253  1.2009  2.2790
 2003ETH     OH18019   2.411   3.896   5.951  0.3711  0.6149 -0.1213
 2003ETH     CH18020   2.418   3.887   6.092 -0.0501 -0.2233 -0.1516
 2003ETH     CH18021   2.388   3.747   6.145 -0.4130  0.0021  0.2372
 2003ETH     HO18022   2.444   3.983   5.933 -0.7289  1.4491  1.6667
 2003ETH     HC18023   2.516   3.926   6.118  0.3999  0.7091 -3.0354
 2003ETH     HC18024   2.347   3.956   6.139  0.1044 -1.4983  1.9996
 2003ETH     HC18025   2.395   3.726   6.252  2.6987 -0.4635 -0.0140
 2003ETH     HC18026   2.289   3.722   6.108 -0.6776  2.2294 -0.6540
 2003ETH     HC18027   2.465   3.700   6.084  1.2003  0.8250  1.5846
 2004ETH     OH18028   2.109   4.604   0.340 -0.6479  0.4277 -0.4747
 2004ETH     CH18029   2.184   4.716   0.296  0.5029 -0.0483  0.2589
 2004ETH     CH18030   2.260   4.681   0.168 -0.7304 -0.5403 -0.3473
 2004ETH     HO18031   2.045   4.571   0.279 -5.0282  2.1139  2.9532
 2004ETH     HC18032   2.113   4.793   0.266 -1.6500 -1.7645  0.7748
 2004ETH     HC18033   2.243   4.763   0.375  2.4899 -1.4904 -0.3475
 2004ETH     HC18034   2.338   4.751   0.141  2.8737 -3.4210  2.1080
 2004ETH     HC18035   2.302   4.580   0.170 -0.6557 -0.5163 -0.8545
 2004ETH     HC18036   2.191   4.676   0.084 -0.1965 -1.6490 -0.7331
 2005ETH     OH18037   0.772   1.751   1.311 -0.1945  0.7143 -0.0739
 2005ETH     CH18038   0.842   1.675   1.406 -0.3965 -0.4475 -0.8432
 2005ETH     CH18039   0.755   1.644   1.528  0.0058 -0.2852 -0.5170
 2005ETH     HO18040   0.758   1.834   1.353  5.2639  1.6827  0.2078
 2005ETH     HC18041   0.875   1.586   1.353  1.1803  0.2933 -1.1170
 2005ETH     HC18042   0.930   1.723   1.447 -0.9789 -0.4756  0.4652
 2005ETH     HC18043   0.710   1.728   1.582 -2.7600 -1.2817 -1.2160
 2005ETH     HC18044   0.675   1.573   1.512 -0.0489 -0.4629  0.4754
 2005ETH     HC18045   0.823   1.608   1.606  1.8110 -0.7990 -2.2812
 2006ETH     OH18046   2.483   2.135   5.564  0.3373  0.0737 -0.2920
 2006ETH     CH18047   2.455   2.002   5.525  0.0751  0.0718 -0.0984
 2006ETH     CH18048   2.577   1.910   5.530 -0.0532 -0.0632  0.5901
 2006ETH     HO18049   2.412   2.186   5.527  2.4289  1.4126 -2.6444
 2006ETH     HC18050   2.374   1.963   5.586  1.8649 -2.0848  0.9487
 2006ETH     HC18051   2.427   2.014   5.421  1.1788 -0.1574 -0.4365
 2006ETH     HC18052   2.609   1.883   5.631  3.0344 -0.1730 -0.3572
 2006ETH     HC18053   2.540   1.829   5.467 -3.0109  1.9843 -0.3835
 2006ETH     HC18054   2.657   1.953   5.471 -0.5471 -1.0595 -0.8335
 2007ETH     OH18055   5.953   1.423   5.471 -0.1088 -0.6818  0.4094
 2007ETH     CH18056   5.967   1.287   5.503  0.0971 -0.5792  0.7692
 2007ETH     CH18057   5.921   1.197   5.388  0.0911  0.4468 -0.0359
 2007ETH     HO18058   5.957   1.468   5.555  0.9324 -1.1442  0.6089
 2007ETH     HC18059   6.070   1.275   5.536  0.2243  0.3512  0.7039
 2007ETH     HC18060   5.903   1.268   5.589 -1.2321 -0.7384 -0.2248
 2007ETH     HC18061   5.925   1.095   5.425 -0.4640 -0.5087 -2.5070
 2007ETH     HC18062   5.820   1.216   5.350  0.5218 -0.3321 -1.6351
 2007ETH     HC18063   5.974   1.206   5.293 -0.8749  3.7673 -0.3363
 2008ETH     OH18064   1.895   4.982   4.065 -0.4394 -0.5500 -0.2916
 2008ETH     CH18065   1.903   4.926   4.194  0.4464  0.2955  0.0199
 2008ETH     CH18066   1.901   5.044   4.292 -0.5235 -0.0751  0.4508
 2008ETH     HO18067   1.891   4.910   4.004  1.8794 -1.4029  0.4997
 2008ETH     HC18068   1.816   4.862   4.207 -1.1216  2.2890 -0.4320
 2008ETH     HC18069   1.997   4.872   4.205  0.9896  1.2312  0.0835
 2008ETH     HC18070   1.817   5.112   4.277  0.7259  1.2789 -0.5998
 2008ETH     HC18071   1.896   5.002   4.393  1.8789  0.3858  0.8046
 2008ETH     HC18072   1.994   5.098   4.275 -1.2548  0.8122 -0.8313
 2009ETH     OH18073   2.675   1.707   2.368 -0.3298 -0.2959 -0.4102
 2009ETH     CH18074   2.653   1.661   2.500 -0.0532  0.4314 -0.1107
 2009ETH     CH18075   2.665   1.510   2.513 -0.5165  0.3746 -0.3449
 2009ETH     HO18076   2.761   1.682   2.340  0.9363  1.9208  1.3368
 2009ETH     HC18077   2.737   1.700   2.558 -1.7562  1.6023  1.6250
 2009ETH     HC18078   2.559   1.697   2.542  0.8845  0.0417  2.4009
 2009ETH     HC18079   2.632   1.448   2.430 -0.7170 -1.1797  0.8730
 2009ETH     HC18080   2.772   1.490   2.508 -0.3712  1.0403  0.0869
 2009ETH     HC18081   2.618   1.457   2.596 -0.6020 -2.6706 -2.2440
 2010ETH     OH18082   3.236   4.866   2.359  0.4754 -0.7620 -0.3123
 2010ETH     CH18083   3.271   4.900   2.491  0.1921  0.2792 -0.5008
 2010ETH     CH18084   3.195   5.030   2.521 -0.2849  0.0176 -0.5904
 2010ETH     HO18085   3.255   4.775   2.343  1.6371 -0.9301  1.8198
 2010ETH     HC18086   3.229   4.827   2.560 -0.8033  1.5401  0.2681
 2010ETH     HC18087   3.378   4.912   2.513  0.4002  1.5009 -2.0969
 2010ETH     HC18088   3.087   5.027   2.529 -0.2105  1.8454  1.1518
 2010ETH     HC18089   3.234   5.066   2.616 -1.3779  1.3557 -0.6282
 2010ETH     HC18090   3.219   5.097   2.438  1.9147  0.5846  0.4626
 2011ETH     OH18091   1.825   5.052   1.562 -0.0986  0.1873  0.4309
 2011ETH     CH18092   1.801   4.913   1.563  0.0179  0.1525 -0.8269
 2011ETH     CH18093   1.696   4.902   1.673  0.8264  0.4650 -0.0253
 2011ETH     HO18094   1.873   5.073   1.483  0.5305  0.2033  0.8123
 2011ETH     HC18095   1.747   4.869   1.479  1.1241  1.9641 -2.5451
 2011ETH     HC18096   1.898   4.865   1.573 -0.0681  0.5236  1.9991
 2011ETH     HC18097   1.660   4.800   1.688  0.8915  0.2180 -1.5435
 2011ETH     HC18098   1.749   4.929   1.765  2.3704  1.0036 -1.0587
 2011ETH     HC18099   1.613   4.971   1.662  1.1832  0.9049  0.0002
 2012ETH     OH18100   2.962   2.211   4.408 -0.4381 -0.6400  0.4147
 2012ETH     CH18101   3.102   2.198   4.424 -0.3018 -0.4841 -0.5768
 2012ETH     CH18102   3.159   2.094   4.328  0.7412 -0.4013 -0.0579
 2012ETH     HO18103   2.931   2.291   4.447  0.0094  0.1957 -0.9010
 2012ETH     HC18104   3.156   2.288   4.395  0.3492 -0.9064 -0.6755
 2012ETH     HC18105   3.131   2.171   4.526 -1.4532 -0.3208 -0.1921
 2012ETH     HC18106   3.121   1.993   4.345 -0.2245  0.0335  0.4492
 2012ETH     HC18107   3.147   2.102   4.219  2.1996  1.3512 -0.1235
 2012ETH     HC18108   3.267   2.099   4.342  0.7017  0.0316  0.1150
 2013ETH     OH18109   4.939   4.828   1.155 -0.1911 -0.2652 -0.1817
 2013ETH     CH18110   5.021   4.936   1.118 -0.0244 -0.3410 -0.0289
 2013ETH     CH18111   5.167   4.890   1.117  0.0188 -0.1898 -0.3905
 2013ETH     HO18112   4.968   4.749   1.111 -0.4358 -0.5393  0.1444
 2013ETH     HC18113   4.982   4.982   1.027 -0.6560 -0.5361  0.1421
 2013ETH     HC18114   5.015   5.011   1.198 -2.0593 -0.1491 -0.3454
 2013ETH     HC18115   5.195   4.810   1.185  0.9298 -0.6469 -1.2833
 2013ETH     HC18116   5.206   4.842   1.027  2.7416 -0.9134  1.1193
 2013ETH     HC18117   5.231   4.978   1.123 -1.6949  0.9726  1.3727
 2014ETH     OH18118   1.320   1.453   1.570 -0.0110 -0.1147 -0.0323
 2014ETH     CH18119   1.181   1.451   1.545 -0.0561  0.2350  0.1958
 2014ETH     CH18120   1.156   1.336   1.448 -0.4394  0.3928  0.1090
 2014ETH     HO18121   1.343   1.535   1.611  2.5504 -1.0580  0.4841
 2014ETH     HC18122   1.108   1.445   1.626 -1.5950 -1.1038 -1.2681
 2014ETH     HC18123   1.164   1.543   1.490  0.2571 -1.9704 -3.7257
 2014ETH     HC18124   1.201   1.358   1.351 -0.0493  1.2085  0.4750
 2014ETH     HC18125   1.196   1.243   1.487  0.9400  2.2944  3.4541
 2014ETH     HC18126   1.050   1.319   1.425 -0.6046  1.8347 -0.2595
 2015ETH     OH18127   1.235   5.739   0.268 -0.1147 -0.5070  0.2087
 2015ETH     CH18128   1.270   5.630   0.186  0.1070 -0.3432  0.0886
 2015ETH     CH18129   1.216   5.500   0.246 -0.1454 -0.0221  0.5602
 2015ETH     HO18130   1.222   5.813   0.211  0.5910  0.1874  0.9539
 2015ETH     HC18131   1.226   5.649   0.088 -0.8365  0.2591  0.6320
 2015ETH     HC18132   1.378   5.631   0.171 -0.0293  1.4004 -0.9217
 2015ETH     HC18133   1.121   5.529   0.290  0.0821  1.1260  0.3275
 2015ETH     HC18134   1.197   5.430   0.165  0.6234  0.7380 -0.2995
 2015ETH     HC18135   1.285   5.446   0.312  1.2578  1.8097  0.6425
 2016ETH     OH18136   3.278   5.319   3.821  0.2485  0.3715 -0.5411
 2016ETH     CH18137   3.254   5.183   3.793 -0.4381  0.3113  0.3021
 2016ETH     CH18138   3.230   5.168   3.643  0.6718  0.1596  0.1350
 2016ETH     HO18139   3.284   5.333   3.915  1.4964  2.8430 -0.9427
 2016ETH     HC18140   3.328   5.118   3.842  0.3169 -0.2659 -1.5431
 2016ETH     HC18141   3.162   5.165   3.848 -1.0729  0.0820 -0.8094
 2016ETH     HC18142   3.325   5.198   3.597 -0.0844  0.6435 -1.1605
 2016ETH     HC18143   3.208   5.066   3.611 -1.9057  0.2433  1.5804
 2016ETH     HC18144   3.156   5.238   3.603  0.8046  0.2696  0.0774
 2017ETH     OH18145   5.418   3.493   0.434 -0.3318  0.5103 -0.4039
 2017ETH     CH18146   5.310   3.502   0.343 -0.5716  0.1490 -0.1564
 2017ETH     CH18147   5.250   3.362   0.331  0.3426 -0.2498 -0.1626
 2017ETH     HO18148   5.398   3.413   0.481  1.2143  0.1457 -0.3384
 2017ETH     HC18149   5.237   3.571   0.383  0.0662  1.1962 -0.7888
 2017ETH     HC18150   5.351   3.546   0.252  2.9233 -0.1640  1.1763
 2017ETH     HC18151   5.146   3.362   0.299  0.5468  1.0711 -0.8250
 2017ETH     HC18152   5.309   3.305   0.259  0.2521 -0.1424 -0.3225
 2017ETH     HC18153   5.243   3.307   0.425 -1.1349  2.1613  1.1957
 2018ETH     OH18154   0.649   5.326   1.610 -0.0994 -0.6164  0.3079
 2018ETH     CH18155   0.764   5.306   1.689  0.2199  0.3530  0.0914
 2018ETH     CH18156   0.731   5.209   1.801  0.8311  0.2388  0.1774
 2018ETH     HO18157   0.627   5.246   1.565 -3.6162 -0.4072  1.5639
 2018ETH     HC18158   0.850   5.263   1.637  0.4623  1.4243 -0.4223
 2018ETH     HC18159   0.808   5.401   1.722 -2.2349  1.1039  1.2582
 2018ETH     HC18160   0.736   5.103   1.775  2.4405  0.3864 -0.1710
 2018ETH     HC18161   0.812   5.227   1.871  0.4653  0.3976  0.5625
 2018ETH     HC18162   0.637   5.239   1.848  0.6470  0.8394 -0.5694
 2019ETH     OH18163   0.036   5.335   5.438  0.3915 -0.1523 -0.1606
 2019ETH     CH18164   0.140   5.346   5.532 -0.4177  0.0754  0.7161
 2019ETH     CH18165   0.075   5.375   5.667  0.6387  0.3376  1.1788
 2019ETH     HO18166   0.078   5.355   5.356  1.2819  1.3838  0.6530
 2019ETH     HC18167   0.192   5.252   5.549 -1.7038 -0.5467  1.2685
 2019ETH     HC18168   0.198   5.434   5.502 -2.3232  1.1482  0.0904
 2019ETH     HC18169   0.017   5.298   5.719 -0.0506  0.3101  0.3802
 2019ETH     HC18170   0.158   5.402   5.732  0.7237  1.4701  0.6048
 2019ETH     HC18171   0.008   5.461   5.666 -2.1034 -1.7315  0.3930
 2020ETH     OH18172   1.128   6.165   4.952 -0.0873  0.0348  0.3078
 2020ETH     CH18173   1.144   6.198   4.816 -0.2954 -0.1641  0.2349
 2020ETH     CH18174   1.021   6.280   4.777  0.1232  0.3334 -0.0475
 2020ETH     HO18175   1.205   6.116   4.977  0.8966  1.7131  0.6929
 2020ETH     HC18176   1.233   6.260   4.799 -0.3673  0.2975  1.4989
 2020ETH     HC18177   1.169   6.107   4.762  0.7064  0.5038 -0.4657
 2020ETH     HC18178   0.972   6.333   4.858  0.9509 -1.3511  1.5890
 2020ETH     HC18179   1.047   6.352   4.699  0.1986 -0.5468 -0.8542
 2020ETH     HC18180   0.941   6.219   4.736  0.9960  1.5531 -3.7656
 2021ETH     OH18181   1.093   4.776   6.156  0.1483 -0.2744  0.1708
 2021ETH     CH18182   0.988   4.869   6.172  0.4597  0.0841  0.1632
 2021ETH     CH18183   0.934   4.938   6.047  0.4378 -0.6023 -0.2122
 2021ETH     HO18184   1.174   4.824   6.162 -0.0714 -0.0881  1.7900
 2021ETH     HC18185   0.907   4.810   6.216 -0.3689 -0.4229 -1.9625
 2021ETH     HC18186   1.004   4.942   6.251  1.7603  0.0978 -0.1028
 2021ETH     HC18187   1.016   4.975   5.985  1.9180 -1.3184  1.2908
 2021ETH     HC18188   0.874   4.871   5.986 -1.0717 -0.0774  0.6692
 2021ETH     HC18189   0.864   5.013   6.083  1.0301 -0.5284  0.8030
 2022ETH     OH18190   1.478   0.558   3.919  0.3031 -0.3775 -0.3509
 2022ETH     CH18191   1.496   0.692   3.879 -0.0502 -0.2703 -0.1531
 2022ETH     CH18192   1.354   0.749   3.870  0.1195  0.1926  0.0432
 2022ETH     HO18193   1.560   0.534   3.959 -0.5590 -0.3102  1.5198
 2022ETH     HC18194   1.550   0.739   3.961  1.0880 -0.2966 -0.8857
 2022ETH     HC18195   1.548   0.695   3.784 -0.6937 -0.2664 -0.5124
 2022ETH     HC18196   1.343   0.838   3.809  0.2588  0.7726  0.8636
 2022ETH     HC18197   1.295   0.667   3.827  0.6724 -0.5829  0.7388
 2022ETH     HC18198   1.314   0.777   3.967  0.7201 -1.4125  0.7821
 2023ETH     OH18199   0.513   1.696   5.382  0.2365  0.1371 -0.2063
 2023ETH     CH18200   0.480   1.794   5.478  0.8715  0.0777  0.0748
 2023ETH     CH18201   0.470   1.931   5.411 -0.1073  0.1494  0.3644
 2023ETH     HO18202   0.516   1.619   5.436  1.7117  1.4881  1.6940
 2023ETH     HC18203   0.377   1.782   5.511  0.8434  0.3149  0.0733
 2023ETH     HC18204   0.548   1.803   5.562  1.8030  0.0699 -0.6713
 2023ETH     HC18205   0.463   2.007   5.489  0.8241  0.8089 -0.1844
 2023ETH     HC18206   0.558   1.963   5.356 -0.4169 -0.8524 -0.7405
 2023ETH     HC18207   0.385   1.938   5.343  0.5217  3.2722 -0.1791
 2024ETH     OH18208   3.259   5.566   2.590  0.5137  0.5837  0.1109
 2024ETH     CH18209   3.233   5.508   2.464  0.4587  0.2344  0.2814
 2024ETH     CH18210   3.258   5.357   2.460 -0.6825  0.0573 -0.1525
 2024ETH     HO18211   3.282   5.655   2.568 -1.2965  0.8390 -0.8354
 2024ETH     HC18212   3.132   5.534   2.434 -0.3887 -3.2331 -0.1121
 2024ETH     HC18213   3.299   5.562   2.396 -1.1278  2.5967  0.5575
 2024ETH     HC18214   3.364   5.338   2.448 -0.4140  0.3536  1.5620
 2024ETH     HC18215   3.222   5.313   2.553  2.1152 -1.5162  0.2297
 2024ETH     HC18216   3.201   5.320   2.375  0.6387 -1.1532 -0.5252
 2025ETH     OH18217   0.900   0.074   0.616 -0.0627  0.4127 -0.0123
 2025ETH     CH18218   0.921   0.207   0.657  0.1364  0.3643  0.0429
 2025ETH     CH18219   1.004   0.222   0.784 -0.6230  0.0608  0.5840
 2025ETH     HO18220   0.837   0.041   0.679  1.2428 -1.4900  0.3304
 2025ETH     HC18221   0.965   0.265   0.577 -1.4296 -0.3792 -1.3855
 2025ETH     HC18222   0.823   0.246   0.686  0.9353  0.4062  2.8928
 2025ETH     HC18223   1.032   0.327   0.801  0.2040  0.1006 -0.9555
 2025ETH     HC18224   0.958   0.173   0.870  2.3831  0.6653  2.6579
 2025ETH     HC18225   1.100   0.174   0.765 -0.6238  1.2650 -2.8286
 2026ETH     OH18226   1.524   1.403   4.512  0.0187  0.2793  0.3457
 2026ETH     CH18227   1.601   1.453   4.404  0.6222 -0.2263  0.5362
 2026ETH     CH18228   1.543   1.594   4.390  0.3943 -0.3384  0.3443
 2026ETH     HO18229   1.534   1.309   4.518  0.8977  0.2915 -0.7403
 2026ETH     HC18230   1.708   1.440   4.420  0.4787 -3.6933 -0.9089
 2026ETH     HC18231   1.572   1.410   4.308  0.6854  2.2886 -0.6214
 2026ETH     HC18232   1.614   1.637   4.319 -0.7784 -0.3074 -0.8417
 2026ETH     HC18233   1.440   1.592   4.353  0.4937  0.4471  0.0266
 2026ETH     HC18234   1.539   1.650   4.483  1.7453 -0.0139  0.2162
 2027ETH     OH18235   4.752   3.535   4.033 -0.5980 -0.3837  0.4699
 2027ETH     CH18236   4.638   3.486   4.102 -0.4706 -0.4792  0.6140
 2027ETH     CH18237   4.514   3.545   4.035 -0.1039 -0.2137  0.1620
 2027ETH     HO18238   4.766   3.626   4.055 -1.3856 -0.5636  1.8233
 2027ETH     HC18239   4.627   3.378   4.106  0.3669 -0.5641  0.7410
 2027ETH     HC18240   4.637   3.522   4.204 -0.8056 -0.4447  0.5971
 2027ETH     HC18241   4.505   3.506   3.933  1.4093  0.5840 -0.2904
 2027ETH     HC18242   4.424   3.550   4.096  1.0334  1.4327  1.7164
 2027ETH     HC18243   4.537   3.650   4.021 -0.3390  0.1143  2.1322
 2028ETH     OH18244   3.412   5.758   3.084 -0.6556 -0.4469 -0.1897
 2028ETH     CH18245   3.493   5.679   3.000  0.0750  0.2117 -0.1070
 2028ETH     CH18246   3.410   5.637   2.878 -0.3374 -0.0235  0.2558
 2028ETH     HO18247   3.370   5.694   3.140 -0.6701 -1.9954 -1.9079
 2028ETH     HC18248   3.583   5.735   2.974 -0.7425  0.6179 -2.2000
 2028ETH     HC18249   3.522   5.586   3.048 -0.1361  1.0912  1.7372
 2028ETH     HC18250   3.466   5.585   2.801 -1.7697 -1.2639  0.0088
 2028ETH     HC18251   3.319   5.584   2.907 -0.8828 -0.3286 -1.9081
 2028ETH     HC18252   3.374   5.725   2.825 -0.1647  0.8722  1.5956
 2029ETH     OH18253   1.418   4.870   1.266 -0.0715 -0.2103 -0.1156
 2029ETH     CH18254   1.341   4.871   1.384  0.0780  0.3423 -0.0197
 2029ETH     CH18255   1.357   5.004   1.457 -0.5144 -0.0409  0.8178
 2029ETH     HO18256   1.385   4.792   1.224 -2.2061 -0.3783  1.7997
 2029ETH     HC18257   1.370   4.789   1.450  3.2445 -0.5343 -2.3636
 2029ETH     HC18258   1.237   4.870   1.353  0.3390  0.5719 -0.9089
 2029ETH     HC18259   1.459   5.044   1.462 -0.5874  0.4888 -1.5809
 2029ETH     HC18260   1.306   5.084   1.404 -0.4424 -1.4281 -1.4187
 2029ETH     HC18261   1.326   5.002   1.562 -2.7197  1.7681  0.2280
 2030ETH     OH18262   2.412   0.283   2.999  0.3498 -0.5663 -0.2366
 2030ETH     CH18263   2.506   0.386   2.984  0.2681 -0.4097  0.3213
 2030ETH     CH18264   2.631   0.328   2.918  0.4746  0.3538  0.0352
 2030ETH     HO18265   2.458   0.204   3.024  0.5358 -0.6089 -0.7131
 2030ETH     HC18266   2.460   0.468   2.928 -2.7513 -1.9112  0.4892
 2030ETH     HC18267   2.535   0.417   3.085 -1.9343  0.0292  0.8521
 2030ETH     HC18268   2.686   0.416   2.883  0.7398  0.3339  0.4068
 2030ETH     HC18269   2.691   0.272   2.989  2.9870  0.3242 -2.0407
 2030ETH     HC18270   2.614   0.262   2.833  0.6087 -1.7291  1.5978
 2031ETH     OH18271   5.299   0.338   5.266  0.0766  0.0436 -0.5398
 2031ETH     CH18272   5.290   0.397   5.393 -0.0261 -1.2005  0.0361
 2031ETH     CH18273   5.429   0.376   5.454  0.2167  0.3085  0.0310
 2031ETH     HO18274   5.218   0.345   5.218  0.7142 -1.6482 -1.9097
 2031ETH     HC18275   5.219   0.353   5.463 -0.0522 -0.3837  0.5396
 2031ETH     HC18276   5.276   0.505   5.382  0.0941 -1.2375 -0.4935
 2031ETH     HC18277   5.495   0.442   5.398  2.8367  0.7144  3.4425
 2031ETH     HC18278   5.424   0.407   5.559 -1.7934 -2.4317  0.8004
 2031ETH     HC18279   5.457   0.271   5.444 -1.1632 -0.1665  0.9290
 2032ETH     OH18280   2.941   4.419   0.707 -0.0845 -0.2413 -0.7422
 2032ETH     CH18281   2.942   4.559   0.686  0.6322 -0.1441 -0.0902
 2032ETH     CH18282   2.854   4.645   0.777  0.4912 -0.2341 -0.1400
 2032ETH     HO18283   2.975   4.407   0.794 -0.5639  4.4308  0.2558
 2032ETH     HC18284   3.043   4.598   0.683  0.0244  1.3907 -1.7865
 2032ETH     HC18285   2.897   4.576   0.588  0.0272 -1.1230  0.0052
 2032ETH     HC18286   2.837   4.740   0.726  0.0768 -0.0133  0.4088
 2032ETH     HC18287   2.759   4.597   0.800 -0.2397  1.2878  0.1541
 2032ETH     HC18288   2.911   4.663   0.868  0.9176  0.1215 -0.4683
 2033ETH     OH18289   1.389   2.215   4.476 -0.0696  0.1889 -0.6416
 2033ETH     CH18290   1.490   2.121   4.447  0.1977  0.2928 -0.0599
 2033ETH     CH18291   1.419   1.985   4.450 -0.7891  0.7884 -0.5108
 2033ETH     HO18292   1.424   2.297   4.508  1.1512 -1.1942  1.6806
 2033ETH     HC18293   1.532   2.137   4.347 -2.7380 -1.3600 -1.6386
 2033ETH     HC18294   1.578   2.133   4.509  1.3132  0.5323 -1.6685
 2033ETH     HC18295   1.330   1.985   4.387 -1.2836 -1.7535  0.1530
 2033ETH     HC18296   1.485   1.906   4.414  1.2176  2.0352  0.3292
 2033ETH     HC18297   1.386   1.951   4.548  1.2099 -0.9061 -0.3927
 2034ETH     OH18298   1.397   5.496   1.531 -0.1775 -0.0199  0.0754
 2034ETH     CH18299   1.537   5.482   1.537 -0.2072 -0.2695  0.2036
 2034ETH     CH18300   1.581   5.344   1.489  0.6694  0.1322 -0.1485
 2034ETH     HO18301   1.369   5.464   1.616  0.5821  0.7145  0.6168
 2034ETH     HC18302   1.596   5.553   1.479 -3.4376  2.0231 -0.3963
 2034ETH     HC18303   1.569   5.490   1.641  0.0336 -1.7921  0.2627
 2034ETH     HC18304   1.553   5.262   1.555  0.5630  0.3405  0.0666
 2034ETH     HC18305   1.549   5.315   1.388  0.0365  0.6057 -0.0824
 2034ETH     HC18306   1.690   5.354   1.491  0.7275  0.0050 -1.6651
 2035ETH     OH18307   3.775   3.550   2.065  0.2256 -0.5533  0.8154
 2035ETH     CH18308   3.896   3.553   1.994 -0.1360 -0.2183  0.2089
 2035ETH     CH18309   3.881   3.552   1.841 -0.6697  0.2624  0.2583
 2035ETH     HO18310   3.779   3.611   2.137 -0.9138  1.7255 -0.9843
 2035ETH     HC18311   3.961   3.636   2.021 -0.9156  0.9384 -1.4059
 2035ETH     HC18312   3.940   3.457   2.025 -1.3443 -1.3776 -1.5602
 2035ETH     HC18313   3.830   3.645   1.818 -1.6981 -0.1825  0.7023
 2035ETH     HC18314   3.979   3.541   1.795  0.2166  0.3187  2.0565
 2035ETH     HC18315   3.819   3.467   1.813  1.1360 -0.5912 -1.2602
 2036ETH     OH18316   6.270   4.121   5.201 -0.6722 -0.5709  0.0518
 2036ETH     CH18317   6.289   4.033   5.309 -0.6981 -0.5752  0.0536
 2036ETH     CH18318   6.329   4.109   5.436 -0.1081 -0.2035 -0.3537
 2036ETH     HO18319   6.235   4.077   5.125 -0.0827  0.1509 -0.6489
 2036ETH     HC18320   6.197   3.976   5.324 -0.1757 -1.1240  1.2531
 2036ETH     HC18321   6.363   3.958   5.283  0.3239  0.8048 -1.1212
 2036ETH     HC18322   6.241   4.146   5.488  0.3561 -0.6784  0.7946
 2036ETH     HC18323   6.370   4.025   5.493 -0.1960 -0.9149 -1.3203
 2036ETH     HC18324   6.403   4.187   5.418 -1.7386  0.6934 -3.4362
 2037ETH     OH18325   3.325   4.786   3.117 -0.2121 -0.9638 -0.0432
 2037ETH     CH18326   3.218   4.695   3.115 -0.6979 -0.3932  0.1471
 2037ETH     CH18327   3.251   4.558   3.174  0.5205 -0.2552 -0.2165
 2037ETH     HO18328   3.302   4.876   3.100 -2.1438 -1.0438  1.8933
 2037ETH     HC18329   3.140   4.734   3.180 -2.5146 -0.0699 -2.1167
 2037ETH     HC18330   3.169   4.684   3.018 -0.1489  0.4426 -0.2260
 2037ETH     HC18331   3.238   4.547   3.281 -0.6310  0.0121 -0.3232
 2037ETH     HC18332   3.177   4.490   3.133  0.4582  0.2830 -0.9974
 2037ETH     HC18333   3.327   4.511   3.111 -0.7184 -3.0967  0.3446
 2038ETH     OH18334   0.574   5.866   3.760  0.5265  0.7639  0.4353
 2038ETH     CH18335   0.551   5.878   3.898 -0.3215 -0.1387  0.3718
 2038ETH     CH18336   0.672   5.816   3.967 -0.1681 -0.7496 -0.4352
 2038ETH     HO18337   0.499   5.822   3.723 -0.0747  1.9875  0.1527
 2038ETH     HC18338   0.540   5.984   3.921 -2.1100 -0.2777  0.2051
 2038ETH     HC18339   0.463   5.823   3.932 -0.7013  1.1475  1.5248
 2038ETH     HC18340   0.639   5.759   4.054  0.1420  0.1423  0.2861
 2038ETH     HC18341   0.740   5.757   3.906  1.2523 -0.2525  0.6120
 2038ETH     HC18342   0.735   5.901   3.993 -2.2176  0.7952 -0.4277
 2039ETH     OH18343   4.794   6.274   5.899 -0.2349  0.1649  0.1694
 2039ETH     CH18344   4.736   6.322   5.780 -0.1750 -0.0820  0.0428
 2039ETH     CH18345   4.710   6.471   5.794  0.4483  0.1015 -0.7036
 2039ETH     HO18346   4.886   6.297   5.908  0.3081 -1.5872 -0.7506
 2039ETH     HC18347   4.803   6.300   5.696 -3.0569  0.4973 -2.4996
 2039ETH     HC18348   4.640   6.272   5.775 -0.9682  1.0867  3.0049
 2039ETH     HC18349   4.647   6.480   5.882  0.2962  1.8585 -0.9697
 2039ETH     HC18350   4.805   6.525   5.807  0.8956 -0.6754 -0.7393
 2039ETH     HC18351   4.668   6.525   5.709  0.1810 -1.1612 -1.3686
 2040ETH     OH18352   0.052   1.279   0.363 -0.3593  0.2892 -0.5692
 2040ETH     CH18353   0.156   1.360   0.412 -0.4365  0.1198 -0.1263
 2040ETH     CH18354   0.155   1.505   0.364  0.6260 -0.0133 -0.5478
 2040ETH     HO18355   0.063   1.277   0.269 -1.3785 -2.7392 -0.6781
 2040ETH     HC18356   0.137   1.362   0.520  2.5478  0.2368  0.4286
 2040ETH     HC18357   0.257   1.323   0.394  0.3220  2.6709 -1.3610
 2040ETH     HC18358   0.069   1.569   0.381 -0.5992 -2.3390  2.3606
 2040ETH     HC18359   0.225   1.567   0.422 -0.1334  2.0020 -1.7255
 2040ETH     HC18360   0.178   1.506   0.257  3.5121  3.0740  0.0013
 2041ETH     OH18361   0.698   0.542   0.421 -0.1408 -0.1155 -0.7840
 2041ETH     CH18362   0.654   0.410   0.399 -0.2152 -0.2744  0.3268
 2041ETH     CH18363   0.757   0.340   0.311  0.9205  0.2120  1.2601
 2041ETH     HO18364   0.753   0.571   0.350 -0.3857 -1.8093 -1.6982
 2041ETH     HC18365   0.649   0.353   0.493  2.3681 -0.9939  0.0518
 2041ETH     HC18366   0.549   0.407   0.368 -1.2015 -0.5481  3.4574
 2041ETH     HC18367   0.754   0.358   0.204  2.2850  2.6081  1.5882
 2041ETH     HC18368   0.860   0.341   0.347  1.2369  1.3937  0.3358
 2041ETH     HC18369   0.727   0.235   0.312  0.3141  0.3796  0.8509
 2042ETH     OH18370   5.209   3.034   0.084  0.1414 -0.5167 -0.4082
 2042ETH     CH18371   5.200   2.969  -0.041  0.3237 -0.1871 -0.5950
 2042ETH     CH18372   5.056   2.927  -0.074  0.0828  0.0242  0.1855
 2042ETH     HO18373   5.277   3.099   0.077 -1.1558  1.0435  0.9448
 2042ETH     HC18374   5.249   3.031  -0.116  2.2437  0.2726  1.0184
 2042ETH     HC18375   5.271   2.886  -0.043  0.7970  0.1847  0.3726
 2042ETH     HC18376   5.001   3.009  -0.120  2.9603  1.5701 -0.6172
 2042ETH     HC18377   5.063   2.835  -0.132 -0.0207 -0.7351  1.3596
 2042ETH     HC18378   4.999   2.899   0.015 -1.0703 -0.0329 -0.5667
 2043ETH     OH18379   5.129   4.519   2.530 -0.6354 -0.1782 -0.2470
 2043ETH     CH18380   5.106   4.596   2.646  0.4703  0.1423 -0.2376
 2043ETH     CH18381   4.987   4.687   2.616  0.7476  0.4846 -0.3068
 2043ETH     HO18382   5.142   4.569   2.450  2.6946 -1.3659 -0.5257
 2043ETH     HC18383   5.094   4.538   2.737  1.8840  0.8765  0.4287
 2043ETH     HC18384   5.199   4.649   2.667  0.5220 -0.5624  1.3767
 2043ETH     HC18385   5.011   4.756   2.534  2.0330 -0.5163 -0.7978
 2043ETH     HC18386   4.907   4.627   2.572  1.2504  0.4250 -1.1474
 2043ETH     HC18387   4.949   4.744   2.701  0.1588  1.6615 -1.3299
 2044ETH     OH18388   3.027   3.915   0.450  0.0292 -0.2998 -0.2070
 2044ETH     CH18389   3.047   3.792   0.384  0.1818 -0.3795 -0.0117
 2044ETH     CH18390   3.193   3.771   0.346  0.3792 -0.0292  0.5512
 2044ETH     HO18391   3.078   3.982   0.408  2.0388 -0.4907  1.8352
 2044ETH     HC18392   3.013   3.718   0.457 -2.0524 -0.9254 -1.5405
 2044ETH     HC18393   2.990   3.780   0.292  1.3713 -0.0994 -0.8007
 2044ETH     HC18394   3.263   3.790   0.427  0.9489 -0.6306  0.2102
 2044ETH     HC18395   3.206   3.677   0.292 -0.1815  1.2549 -1.8932
 2044ETH     HC18396   3.221   3.850   0.277  1.6956 -2.5362 -1.8956
 2045ETH     OH18397   3.403   4.453   2.096  0.1167  0.1659 -0.2885
 2045ETH     CH18398   3.451   4.324   2.067  0.2883  0.1639  0.0064
 2045ETH     CH18399   3.334   4.227   2.074 -0.1464  0.6892  0.0351
 2045ETH     HO18400   3.464   4.524   2.082 -1.0962  1.3614  0.2971
 2045ETH     HC18401   3.505   4.337   1.973  1.0302 -2.3167  0.0486
 2045ETH     HC18402   3.523   4.300   2.146  0.2380  1.1259  0.3552
 2045ETH     HC18403   3.259   4.236   1.995 -3.0032  0.0889  2.5691
 2045ETH     HC18404   3.381   4.131   2.053 -1.4251 -0.2211  1.2512
 2045ETH     HC18405   3.288   4.241   2.172 -0.0060  0.3004  0.1570
 2046ETH     OH18406   1.352   0.881   0.234 -0.0556  0.1787 -0.9911
 2046ETH     CH18407   1.323   0.753   0.285 -0.5712  0.4787 -0.5294
 2046ETH     CH18408   1.199   0.763   0.374 -0.2222  0.1883 -0.0131
 2046ETH     HO18409   1.434   0.881   0.187  0.0031 -0.5356 -0.8841
 2046ETH     HC18410   1.299   0.686   0.203 -0.9217  0.2196 -0.2182
 2046ETH     HC18411   1.408   0.717   0.342  0.2630  0.7550 -1.5859
 2046ETH     HC18412   1.197   0.663   0.417  0.7529 -0.6524 -1.8602
 2046ETH     HC18413   1.217   0.835   0.455  0.5851 -1.3172  1.1684
 2046ETH     HC18414   1.112   0.789   0.314  0.4536  2.0099 -0.2506
 2047ETH     OH18415   1.203   3.859   0.945 -0.0643 -0.1007  0.1279
 2047ETH     CH18416   1.230   3.726   0.982 -0.1669 -0.1892 -0.1129
 2047ETH     CH18417   1.272   3.736   1.129  0.6515  0.0903 -0.3650
 2047ETH     HO18418   1.182   3.905   1.025  0.7074  0.3935  0.0508
 2047ETH     HC18419   1.138   3.667   0.980 -0.2455 -0.0469 -0.6911
 2047ETH     HC18420   1.310   3.680   0.925  1.1437 -0.3486  1.8038
 2047ETH     HC18421   1.267   3.636   1.172 -0.4006  0.4804  0.4604
 2047ETH     HC18422   1.372   3.773   1.147  0.5997  0.9669 -1.8402
 2047ETH     HC18423   1.200   3.790   1.190  2.3956  0.2533  1.6164
 2048ETH     OH18424   4.315   5.465   4.403 -0.4586 -0.5277 -0.6257
 2048ETH     CH18425   4.368   5.353   4.472 -0.2421 -0.1883 -0.2369
 2048ETH     CH18426   4.517   5.343   4.442 -0.2403 -0.4783 -0.1247
 2048ETH     HO18427   4.323   5.538   4.462 -0.3424 -1.0560  0.0219
 2048ETH     HC18428   4.351   5.347   4.579 -1.2765 -3.9800 -0.5692
 2048ETH     HC18429   4.318   5.267   4.428 -0.6435 -0.5785  0.9850
 2048ETH     HC18430   4.575   5.416   4.497  2.0978 -1.8324 -0.6977
 2048ETH     HC18431   4.550   5.241   4.461  0.6315 -0.1392  0.1969
 2048ETH     HC18432   4.550   5.348   4.338 -0.5246  1.9914 -0.1268
 2049ETH     OH18433   1.609   1.551   0.573 -0.2513 -0.2330 -0.0453
 2049ETH     CH18434   1.599   1.602   0.704 -0.0609 -0.6312  0.1265
 2049ETH     CH18435   1.526   1.737   0.693  1.0765 -0.0418 -0.2643
 2049ETH     HO18436   1.554   1.475   0.562 -0.6049  0.2610 -1.8387
 2049ETH     HC18437   1.536   1.533   0.760 -0.0570 -0.7515 -0.0167
 2049ETH     HC18438   1.693   1.609   0.758 -1.7856  5.2444  2.8256
 2049ETH     HC18439   1.574   1.803   0.621  0.6369  0.7539  0.1793
 2049ETH     HC18440   1.420   1.729   0.669  0.1789  3.1942  2.3368
 2049ETH     HC18441   1.540   1.778   0.792 -4.8746 -1.6513  1.4232
 2050ETH     OH18442   5.793   3.855   0.551  0.5268  0.2253 -0.1028
 2050ETH     CH18443   5.798   3.849   0.691 -0.3221  0.3834 -0.0654
 2050ETH     CH18444   5.944   3.812   0.719 -0.3535 -0.2913 -0.7898
 2050ETH     HO18445   5.754   3.778   0.513  1.2746 -0.4953  0.5728
 2050ETH     HC18446   5.761   3.943   0.734 -1.2961 -0.0245 -0.0046
 2050ETH     HC18447   5.727   3.774   0.726 -1.6229  2.1771  1.2692
 2050ETH     HC18448   5.961   3.721   0.661  0.0113 -0.0852 -1.0019
 2050ETH     HC18449   6.009   3.892   0.686 -3.1680  0.8218 -3.8930
 2050ETH     HC18450   5.970   3.798   0.824  0.9754 -0.5639 -1.1521
 2051ETH     OH18451   3.833   1.780   2.349  0.2388 -0.2465  0.0402
 2051ETH     CH18452   3.950   1.825   2.284 -0.4041  0.4739 -0.6212
 2051ETH     CH18453   4.016   1.705   2.216  0.0417  0.4842 -0.2097
 2051ETH     HO18454   3.781   1.850   2.385 -0.6743 -1.3621  0.9201
 2051ETH     HC18455   3.922   1.899   2.208 -1.1768  0.8011 -0.0312
 2051ETH     HC18456   4.014   1.890   2.344  0.0167 -1.7696  1.4034
 2051ETH     HC18457   4.101   1.721   2.150  0.7237 -1.8995  0.0426
 2051ETH     HC18458   4.046   1.637   2.296  0.9103  1.0895 -0.0145
 2051ETH     HC18459   3.940   1.659   2.153 -1.2969  1.0668  0.9320
 2052ETH     OH18460   1.789   2.718   5.703 -0.2418 -0.0634  0.0612
 2052ETH     CH18461   1.832   2.587   5.671 -0.2953 -0.0255 -0.1655
 2052ETH     CH18462   1.750   2.486   5.751  0.2553 -0.1492  0.2458
 2052ETH     HO18463   1.772   2.726   5.796 -0.8703  2.3182 -0.2232
 2052ETH     HC18464   1.809   2.578   5.565  0.0494  3.5296 -0.6056
 2052ETH     HC18465   1.940   2.575   5.674 -0.2282 -0.8851 -4.2968
 2052ETH     HC18466   1.650   2.472   5.709 -0.1552 -0.7964  1.4096
 2052ETH     HC18467   1.790   2.385   5.763 -0.4053 -0.3390  0.8819
 2052ETH     HC18468   1.738   2.529   5.850  1.7745 -0.5128  0.6009
 2053ETH     OH18469   2.469   0.598   1.235 -0.3503 -0.2987 -0.4204
 2053ETH     CH18470   2.432   0.606   1.371  0.7716  0.7985 -0.1654
 2053ETH     CH18471   2.518   0.700   1.455  0.2724  0.5193  0.6715
 2053ETH     HO18472   2.561   0.578   1.233 -0.8817 -2.8200 -1.5331
 2053ETH     HC18473   2.329   0.643   1.373  0.7121  0.8219 -2.4046
 2053ETH     HC18474   2.430   0.507   1.417  0.4218  1.5567  1.4707
 2053ETH     HC18475   2.481   0.713   1.556  0.6501  1.5013  0.6877
 2053ETH     HC18476   2.622   0.667   1.458  0.8923  2.3320  0.1836
 2053ETH     HC18477   2.516   0.799   1.409 -2.6373 -0.2528 -1.0115
 2054ETH     OH18478   4.864   0.266   5.355  0.2334  0.1382  0.1769
 2054ETH     CH18479   4.827   0.340   5.469 -0.6009  0.4069 -0.2689
 2054ETH     CH18480   4.898   0.474   5.488 -0.3953  0.3804 -0.8398
 2054ETH     HO18481   4.812   0.188   5.362  0.4580  0.0247  0.5697
 2054ETH     HC18482   4.720   0.358   5.460 -1.1983 -2.8647 -0.0292
 2054ETH     HC18483   4.843   0.286   5.562 -1.3633 -2.5242 -1.7744
 2054ETH     HC18484   5.005   0.456   5.485 -0.5204 -0.9676  1.5812
 2054ETH     HC18485   4.873   0.548   5.411  0.1126  0.5803 -0.8164
 2054ETH     HC18486   4.862   0.526   5.577  1.2174 -0.6023  0.4007
 2055ETH     OH18487   0.673   5.285   3.456 -0.0021  0.1922  0.1752
 2055ETH     CH18488   0.575   5.220   3.378  0.2019  0.2227 -0.1053
 2055ETH     CH18489   0.484   5.131   3.463 -0.1283  0.4000 -0.2705
 2055ETH     HO18490   0.729   5.218   3.493 -0.6568 -1.6165 -1.9697
 2055ETH     HC18491   0.515   5.294   3.325  0.5024  0.2044 -0.4763
 2055ETH     HC18492   0.616   5.162   3.295  0.4933 -1.0585  0.9021
 2055ETH     HC18493   0.439   5.175   3.552  1.4141  0.0335  0.7125
 2055ETH     HC18494   0.399   5.101   3.402 -0.1143 -0.2983  0.0414
 2055ETH     HC18495   0.524   5.034   3.493 -0.2582  0.3730 -0.1831
 2056ETH     OH18496   0.222   6.011   5.668 -0.0470  0.4067  0.7379
 2056ETH     CH18497   0.360   6.001   5.697 -0.0150  0.5363  0.6309
 2056ETH     CH18498   0.442   6.104   5.620 -0.3326 -0.2413 -0.7527
 2056ETH     HO18499   0.223   6.007   5.574  0.6841 -0.0216  0.7604
 2056ETH     HC18500   0.367   6.031   5.802  0.5832 -1.1643  1.0971
 2056ETH     HC18501   0.410   5.905   5.688 -0.5586  0.0141  2.8283
 2056ETH     HC18502   0.540   6.118   5.666 -0.1091  1.6464 -1.7577
 2056ETH     HC18503   0.457   6.063   5.520 -2.3471 -1.0343 -0.7545
 2056ETH     HC18504   0.395   6.202   5.617  0.6308  0.2429 -0.4438
 2057ETH     OH18505   6.111   5.791   5.490 -0.6778 -0.1945  0.5350
 2057ETH     CH18506   6.236   5.765   5.550 -0.3990  0.0452  0.0563
 2057ETH     CH18507   6.225   5.798   5.698 -0.0870  0.3224  0.0197
 2057ETH     HO18508   6.115   5.802   5.397 -0.7275  2.7551  0.8196
 2057ETH     HC18509   6.268   5.663   5.528  1.1239  0.3436  0.8397
 2057ETH     HC18510   6.307   5.823   5.491 -1.9037 -1.4121 -3.3441
 2057ETH     HC18511   6.171   5.722   5.755 -0.3042  0.5832  0.1636
 2057ETH     HC18512   6.326   5.784   5.736 -1.2366 -2.7463  2.1877
 2057ETH     HC18513   6.186   5.896   5.727  3.0892  1.2874  1.3203
 2058ETH     OH18514   2.128   2.094   0.471  0.3033 -0.2613  0.3469
 2058ETH     CH18515   2.208   2.069   0.585  0.2519 -0.0289  0.4336
 2058ETH     CH18516   2.328   1.982   0.551  0.4790  0.0696  0.9785
 2058ETH     HO18517   2.053   2.037   0.474  1.5277 -1.9059  0.6538
 2058ETH     HC18518   2.235   2.160   0.639  2.0450 -2.2050  3.3002
 2058ETH     HC18519   2.142   2.004   0.642 -0.0764 -0.9140 -0.9254
 2058ETH     HC18520   2.375   1.952   0.645  1.7695  0.7326  0.5658
 2058ETH     HC18521   2.298   1.884   0.514  1.7758 -0.2344  0.6772
 2058ETH     HC18522   2.408   2.012   0.483 -1.1362  2.8845  0.2827
 2059ETH     OH18523   2.505   3.856   0.174 -0.7219 -0.1816 -0.2275
 2059ETH     CH18524   2.542   3.856   0.310  0.1302 -0.3663 -0.4515
 2059ETH     CH18525   2.661   3.767   0.347  0.4929  0.3251  0.0683
 2059ETH     HO18526   2.572   3.905   0.128 -0.7952 -1.3794 -1.6566
 2059ETH     HC18527   2.573   3.953   0.348 -0.9710 -0.0893 -0.2540
 2059ETH     HC18528   2.458   3.829   0.374  1.1191 -1.1342  0.5434
 2059ETH     HC18529   2.630   3.662   0.350 -1.9628  1.0208  0.3099
 2059ETH     HC18530   2.750   3.783   0.286 -1.0181  0.8893 -2.0514
 2059ETH     HC18531   2.698   3.786   0.447 -0.2871 -1.6440  0.7499
 2060ETH     OH18532   4.656   2.642   3.324  0.1302 -0.0038 -0.1773
 2060ETH     CH18533   4.611   2.761   3.385 -0.1372 -0.1073 -0.1711
 2060ETH     CH18534   4.711   2.832   3.477 -0.5099  0.0675  0.0993
 2060ETH     HO18535   4.691   2.578   3.384  0.1407 -1.4611 -1.7085
 2060ETH     HC18536   4.574   2.838   3.316  0.7486 -0.5142 -1.1164
 2060ETH     HC18537   4.522   2.738   3.442  0.3385  0.2532  0.7244
 2060ETH     HC18538   4.744   2.771   3.561  1.6046  0.5457 -0.3491
 2060ETH     HC18539   4.789   2.859   3.405 -3.2604  0.5374 -2.8281
 2060ETH     HC18540   4.667   2.924   3.515 -0.2620  0.8351 -1.4112
 2061ETH     OH18541   1.584   0.275   3.023 -0.3788  0.0338  0.3320
 2061ETH     CH18542   1.631   0.269   2.890 -0.0279  0.5102  0.4319
 2061ETH     CH18543   1.556   0.366   2.799 -0.1173  0.4328  0.4232
 2061ETH     HO18544   1.636   0.208   3.066  1.4798  1.3315  0.1778
 2061ETH     HC18545   1.739   0.281   2.880  0.1493 -1.7658 -0.7076
 2061ETH     HC18546   1.617   0.167   2.855 -0.5467  0.6556  0.2166
 2061ETH     HC18547   1.581   0.466   2.833 -0.9247  0.5758  0.6220
 2061ETH     HC18548   1.593   0.341   2.700  1.1162  2.4608  0.3545
 2061ETH     HC18549   1.447   0.359   2.806 -0.0862 -1.1005 -0.4870
 2062ETH     OH18550   0.652   3.002   5.065  0.3438 -0.3384  0.0116
 2062ETH     CH18551   0.707   3.072   4.955  0.1308 -0.1837  0.0014
 2062ETH     CH18552   0.854   3.105   4.982 -0.0309  0.1422  0.4864
 2062ETH     HO18553   0.713   2.931   5.077 -0.9668 -1.5585 -0.4167
 2062ETH     HC18554   0.689   3.027   4.857 -0.8798 -0.6077  0.3697
 2062ETH     HC18555   0.656   3.167   4.963  0.2424 -0.0602 -0.7079
 2062ETH     HC18556   0.923   3.024   4.958 -0.0238  0.4902 -0.6805
 2062ETH     HC18557   0.889   3.199   4.940 -1.4961  0.6648  0.4082
 2062ETH     HC18558   0.865   3.108   5.090 -0.8126  4.1675  0.5240
 2063ETH     OH18559   2.644   5.780   5.122 -0.0257 -0.2136  0.2055
 2063ETH     CH18560   2.573   5.660   5.101 -0.5412  0.1338 -0.0394
 2063ETH     CH18561   2.486   5.623   5.221 -0.5713 -0.0699 -0.1232
 2063ETH     HO18562   2.712   5.789   5.057 -1.4162  0.4853 -1.1756
 2063ETH     HC18563   2.514   5.652   5.009 -0.4164 -1.4934  0.0096
 2063ETH     HC18564   2.655   5.588   5.093  0.4929  1.3846 -0.9426
 2063ETH     HC18565   2.420   5.707   5.244 -0.0457  0.8017 -1.6761
 2063ETH     HC18566   2.436   5.529   5.197 -1.6178  0.8152 -1.4832
 2063ETH     HC18567   2.533   5.611   5.319 -0.6470 -2.5892 -0.3802
 2064ETH     OH18568   6.034   4.483   3.014  0.2135  0.7281 -0.2429
 2064ETH     CH18569   5.977   4.497   3.143  0.2080 -0.1852 -0.1422
 2064ETH     CH18570   5.828   4.511   3.110  0.3035 -0.1061 -0.5414
 2064ETH     HO18571   5.992   4.544   2.956 -1.5097  1.2618  1.4923
 2064ETH     HC18572   5.995   4.408   3.203  0.7314  0.1114  0.1331
 2064ETH     HC18573   6.013   4.591   3.185  0.9723 -0.6458  0.2355
 2064ETH     HC18574   5.780   4.542   3.202 -1.9116 -3.7174 -0.3916
 2064ETH     HC18575   5.799   4.592   3.042 -0.6308 -0.4556 -0.5701
 2064ETH     HC18576   5.798   4.411   3.078  0.9415 -0.9843  1.5472
 2065ETH     OH18577   3.337   6.129   4.673  0.4859 -0.0063  0.4877
 2065ETH     CH18578   3.338   6.236   4.582  0.0872 -0.4874 -0.0860
 2065ETH     CH18579   3.416   6.353   4.642 -0.4620  0.2438 -0.7764
 2065ETH     HO18580   3.285   6.162   4.744 -1.2028 -0.2707 -0.6046
 2065ETH     HC18581   3.377   6.192   4.490  2.5004 -1.4447  1.3519
 2065ETH     HC18582   3.240   6.275   4.554  1.0754  0.4518 -2.4023
 2065ETH     HC18583   3.520   6.334   4.670 -0.7915  1.8544  1.6520
 2065ETH     HC18584   3.406   6.444   4.583 -0.4291  1.2170  0.6848
 2065ETH     HC18585   3.371   6.373   4.739  0.9451 -0.1969 -0.0111
 2066ETH     OH18586   2.274   0.219   4.704 -0.1372  0.1037 -0.7241
 2066ETH     CH18587   2.359   0.331   4.720 -0.1454  0.0485 -0.3040
 2066ETH     CH18588   2.277   0.460   4.714 -0.0176  0.1251 -0.4107
 2066ETH     HO18589   2.324   0.142   4.724 -1.0041  0.2461  2.1459
 2066ETH     HC18590   2.406   0.313   4.817 -2.3799  0.3922  0.8941
 2066ETH     HC18591   2.432   0.328   4.640 -1.8615  1.9966 -1.9994
 2066ETH     HC18592   2.202   0.464   4.793  0.1605  0.1275 -0.2427
 2066ETH     HC18593   2.338   0.548   4.730  1.2186 -0.6751 -0.6447
 2066ETH     HC18594   2.229   0.472   4.616  0.3743 -1.4381 -0.8098
 2067ETH     OH18595   3.066   2.405   3.431  0.1400 -0.0347 -0.4332
 2067ETH     CH18596   3.003   2.304   3.506  0.3374  0.4242  0.3525
 2067ETH     CH18597   2.920   2.374   3.615 -0.9766  0.3855 -0.6124
 2067ETH     HO18598   3.132   2.449   3.482 -0.9597  0.0446  0.9517
 2067ETH     HC18599   2.930   2.237   3.461  0.4962 -0.7208  1.7545
 2067ETH     HC18600   3.079   2.235   3.542  0.8798  0.5825 -0.4863
 2067ETH     HC18601   2.852   2.454   3.583 -1.2247  0.1538 -0.6662
 2067ETH     HC18602   2.857   2.299   3.663 -1.4542  1.2994  0.1913
 2067ETH     HC18603   2.991   2.416   3.686  0.1493  1.4997 -2.3507
 2068ETH     OH18604   2.122   3.837   0.622  0.4964  0.4465 -0.2193
 2068ETH     CH18605   2.182   3.947   0.687  0.9007 -0.0435  0.2495
 2068ETH     CH18606   2.095   4.073   0.676  0.6166 -0.2708 -0.1430
 2068ETH     HO18607   2.175   3.759   0.623  0.2758  0.3067  1.3721
 2068ETH     HC18608   2.223   3.926   0.785 -0.6523 -0.4851  0.8097
 2068ETH     HC18609   2.274   3.971   0.634  0.5351 -0.7370 -0.7198
 2068ETH     HC18610   2.144   4.154   0.730 -1.2145 -0.6233  2.0857
 2068ETH     HC18611   2.075   4.110   0.575  0.0424 -0.4071 -0.0753
 2068ETH     HC18612   2.006   4.068   0.738  1.9108  1.0002  1.8992
 2069ETH     OH18613   0.465   1.794   0.912  0.2437 -0.3458  0.4531
 2069ETH     CH18614   0.581   1.867   0.944  0.5102 -0.3097 -0.5866
 2069ETH     CH18615   0.555   2.017   0.963 -0.0883 -0.4615 -0.2249
 2069ETH     HO18616   0.394   1.837   0.958  0.1379  0.5144 -0.4876
 2069ETH     HC18617   0.607   1.838   1.046  0.9197 -1.6551 -1.0604
 2069ETH     HC18618   0.665   1.839   0.881 -0.6390 -3.0102 -0.9727
 2069ETH     HC18619   0.460   2.028   1.016  0.7902  3.1991  0.6892
 2069ETH     HC18620   0.617   2.062   1.041 -1.4480  1.3462 -0.1688
 2069ETH     HC18621   0.555   2.068   0.868 -0.4572 -3.0901 -1.6965
 2070ETH     OH18622   5.829   5.225   4.825 -0.3037 -0.4433  0.1787
 2070ETH     CH18623   5.743   5.271   4.724  0.0974 -0.1553 -0.0344
 2070ETH     CH18624   5.602   5.216   4.744 -0.1336  0.1971 -0.6762
 2070ETH     HO18625   5.819   5.278   4.903 -2.0160  1.2364 -1.1521
 2070ETH     HC18626   5.754   5.378   4.712  0.0555 -0.2776 -1.2301
 2070ETH     HC18627   5.780   5.223   4.633  1.6926  3.3081 -1.3087
 2070ETH     HC18628   5.542   5.237   4.833  1.8396  2.3621  0.1709
 2070ETH     HC18629   5.532   5.244   4.665  0.4514 -0.3776 -1.4045
 2070ETH     HC18630   5.610   5.107   4.745  2.1755  0.3582 -0.6341
 2071ETH     OH18631   1.613   0.884   0.053 -0.6758  0.3623  0.2277
 2071ETH     CH18632   1.584   1.012  -0.000 -0.1529 -0.0580 -1.0990
 2071ETH     CH18633   1.661   1.102   0.096 -0.3486 -0.3551 -0.6641
 2071ETH     HO18634   1.643   0.830  -0.019 -2.5018  0.4292 -0.6030
 2071ETH     HC18635   1.620   1.046  -0.097  0.6460  0.1176 -0.7468
 2071ETH     HC18636   1.477   1.028   0.009  0.0862  1.3479 -0.5830
 2071ETH     HC18637   1.662   1.209   0.074  0.9816 -0.0659  0.7034
 2071ETH     HC18638   1.637   1.097   0.203 -1.3785 -0.9000 -0.9218
 2071ETH     HC18639   1.766   1.076   0.085 -0.2629 -1.0126  1.3768
 2072ETH     OH18640   6.128   3.915   2.941  0.2725  0.1195  0.3037
 2072ETH     CH18641   6.070   3.806   3.008  0.5635 -0.2808 -0.0965
 2072ETH     CH18642   6.037   3.856   3.148  0.5954 -0.1145 -0.1487
 2072ETH     HO18643   6.144   3.894   2.850  0.3794  0.1506  0.3147
 2072ETH     HC18644   5.985   3.778   2.945  2.1073  1.1136 -2.9036
 2072ETH     HC18645   6.148   3.730   3.015  2.5886  1.9637  2.5066
 2072ETH     HC18646   5.971   3.942   3.137  2.3263  1.1714 -0.6419
 2072ETH     HC18647   5.996   3.774   3.206  0.3284  1.0305  1.3183
 2072ETH     HC18648   6.133   3.884   3.192  1.1744 -0.9957 -0.8468
 2073ETH     OH18649   4.172   3.019   4.607 -0.1125 -0.3090 -0.4560
 2073ETH     CH18650   4.128   3.063   4.480 -0.5523  0.1829 -0.1383
 2073ETH     CH18651   4.171   2.966   4.370 -0.0067 -0.3344  0.5299
 2073ETH     HO18652   4.257   3.057   4.624  0.6388 -1.6016 -1.2757
 2073ETH     HC18653   4.020   3.059   4.491 -0.5977 -1.4997 -1.0822
 2073ETH     HC18654   4.149   3.169   4.467  0.8943 -0.1845 -1.0028
 2073ETH     HC18655   4.280   2.959   4.367 -0.0377 -0.7054  0.1206
 2073ETH     HC18656   4.129   2.865   4.367 -2.2233  0.5404  1.4168
 2073ETH     HC18657   4.131   3.000   4.275 -0.6650  2.7248  1.8643
 2074ETH     OH18658   0.454   3.326   5.540  0.1972 -0.2645 -0.0750
 2074ETH     CH18659   0.488   3.441   5.467 -0.6473 -0.4093 -0.6958
 2074ETH     CH18660   0.572   3.407   5.343  0.1203 -0.0127 -0.2879
 2074ETH     HO18661   0.415   3.263   5.482 -0.4135  0.7319 -0.7366
 2074ETH     HC18662   0.399   3.491   5.429 -0.3632  0.4050 -0.2969
 2074ETH     HC18663   0.529   3.518   5.532 -1.1754 -0.3226 -0.4601
 2074ETH     HC18664   0.512   3.354   5.270 -2.1769  1.7558  0.2387
 2074ETH     HC18665   0.596   3.502   5.295  1.0024  0.2973  0.7352
 2074ETH     HC18666   0.668   3.363   5.370  0.6398  1.3553  0.1263
 2075ETH     OH18667   1.597   5.105   4.973 -0.3430 -0.0846 -0.5395
 2075ETH     CH18668   1.461   5.068   4.978 -0.3739  0.1180  0.0662
 2075ETH     CH18669   1.439   4.943   4.894 -0.4039  0.3415 -0.2555
 2075ETH     HO18670   1.637   5.102   4.887 -1.2679  0.1093 -0.9839
 2075ETH     HC18671   1.442   5.053   5.085  1.6493  2.9000  0.8956
 2075ETH     HC18672   1.396   5.148   4.941 -2.4767 -1.0710  1.0891
 2075ETH     HC18673   1.517   4.870   4.918 -1.4858 -0.6848  0.1591
 2075ETH     HC18674   1.339   4.902   4.905  0.3373 -2.3144 -2.6018
 2075ETH     HC18675   1.459   4.961   4.788  1.7689 -2.0256 -0.2959
 2076ETH     OH18676   2.740   1.300   3.476  0.2380  0.2175  0.1881
 2076ETH     CH18677   2.741   1.160   3.491 -0.1405  0.2070  0.1210
 2076ETH     CH18678   2.592   1.123   3.482 -0.1278 -0.1112  1.0959
 2076ETH     HO18679   2.666   1.330   3.424  0.7031  0.2967 -0.4272
 2076ETH     HC18680   2.803   1.121   3.411 -0.5131 -1.5907  0.6865
 2076ETH     HC18681   2.790   1.133   3.585 -2.7392 -0.3567  1.3763
 2076ETH     HC18682   2.575   1.016   3.471  0.4054 -0.0946 -0.0165
 2076ETH     HC18683   2.534   1.160   3.566 -1.5605 -1.7539  0.8323
 2076ETH     HC18684   2.544   1.152   3.389 -0.4299 -0.3393  1.1831
 2077ETH     OH18685   1.775   1.335   4.121 -0.0903 -0.0014 -0.3781
 2077ETH     CH18686   1.878   1.429   4.143 -0.2922 -0.0226  0.7000
 2077ETH     CH18687   2.000   1.387   4.061 -0.5079  0.7377 -0.0132
 2077ETH     HO18688   1.744   1.337   4.032 -2.3528 -0.0545  0.3703
 2077ETH     HC18689   1.835   1.521   4.104 -0.6559 -0.6999 -0.5060
 2077ETH     HC18690   1.908   1.439   4.247 -0.5436 -0.3192  0.8006
 2077ETH     HC18691   1.981   1.362   3.957 -0.0180  3.1693 -0.7327
 2077ETH     HC18692   2.083   1.458   4.066  1.0027 -1.0275  0.4313
 2077ETH     HC18693   2.046   1.297   4.102 -0.5405  0.5285 -0.4297
 2078ETH     OH18694   5.284   5.731   1.591  0.1434  0.3047 -0.5281
 2078ETH     CH18695   5.210   5.673   1.696  0.2683 -0.0266 -0.6218
 2078ETH     CH18696   5.104   5.766   1.756  0.8270 -0.1907  0.6385
 2078ETH     HO18697   5.338   5.664   1.551 -0.7479 -1.0294  0.4632
 2078ETH     HC18698   5.160   5.585   1.658 -2.2178  0.7027  0.8197
 2078ETH     HC18699   5.282   5.643   1.772  0.5127  2.5246  0.2272
 2078ETH     HC18700   5.078   5.732   1.856 -0.5141  1.0290  0.7183
 2078ETH     HC18701   5.134   5.868   1.777 -2.7042  0.6788  1.8452
 2078ETH     HC18702   5.009   5.771   1.703  1.6159  0.0255 -0.7817
 2079ETH     OH18703   0.346   3.371   4.654 -0.3169  0.5030  0.1149
 2079ETH     CH18704   0.431   3.266   4.616 -0.1064  0.9686 -0.6980
 2079ETH     CH18705   0.575   3.301   4.653 -0.0193 -0.0571 -0.0391
 2079ETH     HO18706   0.274   3.369   4.593 -1.3881 -1.7437  1.3752
 2079ETH     HC18707   0.413   3.166   4.657 -0.1747  1.3194  0.1303
 2079ETH     HC18708   0.420   3.252   4.508  0.3579 -2.0267 -0.4139
 2079ETH     HC18709   0.643   3.216   4.641  0.9808  0.6976  0.1654
 2079ETH     HC18710   0.622   3.380   4.593  1.8587 -0.0537  1.3920
 2079ETH     HC18711   0.579   3.336   4.756  2.2310  0.6661 -0.3405
 2080ETH     OH18712   5.633   5.045   0.263  0.2571  0.4055 -0.1829
 2080ETH     CH18713   5.714   5.011   0.153  0.3598 -0.1106  0.0516
 2080ETH     CH18714   5.862   5.032   0.183  0.4781 -0.2187 -0.4526
 2080ETH     HO18715   5.545   5.045   0.228 -0.1017 -1.2007  0.6829
 2080ETH     HC18716   5.692   4.906   0.135  0.6654 -0.2450  0.4561
 2080ETH     HC18717   5.678   5.069   0.068 -0.1926  1.1744  1.1576
 2080ETH     HC18718   5.884   5.138   0.193  2.2201 -0.5478 -0.6081
 2080ETH     HC18719   5.886   4.976   0.273 -0.4652 -3.3652 -2.0915
 2080ETH     HC18720   5.926   4.999   0.101  2.0498  1.9197 -0.1422
 2081ETH     OH18721   1.306   5.689   2.603  0.7005 -0.2121 -0.0599
 2081ETH     CH18722   1.398   5.620   2.684  0.1214 -0.3401  0.4979
 2081ETH     CH18723   1.416   5.691   2.818  1.1331 -0.2368  0.3117
 2081ETH     HO18724   1.224   5.641   2.611  1.0046 -0.6784  0.2635
 2081ETH     HC18725   1.366   5.516   2.689  1.8878 -0.9848 -0.8009
 2081ETH     HC18726   1.493   5.611   2.631 -0.6819  0.2096 -1.0840
 2081ETH     HC18727   1.325   5.696   2.878 -0.0440  3.3710 -1.6434
 2081ETH     HC18728   1.488   5.637   2.881  0.3922 -1.0239  0.4941
 2081ETH     HC18729   1.453   5.789   2.787  2.0608 -0.6333  0.1295
 2082ETH     OH18730   3.091   2.002   1.249 -0.3469 -0.1377 -0.3156
 2082ETH     CH18731   3.163   1.951   1.359 -1.0736 -0.1668  0.1472
 2082ETH     CH18732   3.187   1.803   1.330 -0.0038  0.1509 -0.6162
 2082ETH     HO18733   3.135   2.082   1.225  0.9197 -0.6558  0.2270
 2082ETH     HC18734   3.256   2.004   1.374 -1.1674  0.4473 -1.4040
 2082ETH     HC18735   3.109   1.966   1.453 -1.2446 -1.5646  0.2855
 2082ETH     HC18736   3.093   1.748   1.324  0.9470 -2.0335  2.8433
 2082ETH     HC18737   3.237   1.793   1.234  0.0175 -0.5117 -0.5437
 2082ETH     HC18738   3.248   1.751   1.404 -0.3324  0.8374  0.1469
 2083ETH     OH18739   1.519   1.361   2.266 -0.1630  0.6944 -1.1454
 2083ETH     CH18740   1.438   1.264   2.205  0.1597  0.0270 -0.5158
 2083ETH     CH18741   1.486   1.127   2.253 -0.4003 -0.0179 -0.0737
 2083ETH     HO18742   1.607   1.350   2.233  0.0073  3.0246 -1.5869
 2083ETH     HC18743   1.332   1.280   2.224  0.5372  0.3084  1.4359
 2083ETH     HC18744   1.457   1.264   2.098  0.0914  1.6114 -0.5385
 2083ETH     HC18745   1.428   1.042   2.215 -0.8315  0.6838 -0.9981
 2083ETH     HC18746   1.584   1.112   2.208  0.3177  0.4886  1.3296
 2083ETH     HC18747   1.493   1.114   2.361  1.0589  2.6810  0.1847
 2084ETH     OH18748   5.096   4.889   4.328 -0.1549  0.3811 -0.2866
 2084ETH     CH18749   5.171   4.973   4.245 -0.0467  0.2372 -0.3339
 2084ETH     CH18750   5.143   4.935   4.099 -0.1683 -0.9008 -0.0127
 2084ETH     HO18751   5.152   4.871   4.402 -0.3951 -2.7166 -0.7869
 2084ETH     HC18752   5.150   5.077   4.271 -0.3418  0.4651 -1.4513
 2084ETH     HC18753   5.279   4.968   4.263  0.2009  0.4619 -1.6471
 2084ETH     HC18754   5.039   4.966   4.093 -0.5693 -2.6535 -2.8274
 2084ETH     HC18755   5.213   4.975   4.026 -0.1110 -0.9610  0.0098
 2084ETH     HC18756   5.145   4.826   4.086  1.3922 -0.9715  0.7057
 2085ETH     OH18757   5.887   1.546   4.769  0.2798 -0.1233 -0.1853
 2085ETH     CH18758   5.902   1.407   4.790 -0.7107 -0.2028  0.0447
 2085ETH     CH18759   5.827   1.375   4.919  0.3398 -0.6851  0.5471
 2085ETH     HO18760   5.960   1.566   4.713 -1.0486 -1.0856 -2.3183
 2085ETH     HC18761   5.857   1.350   4.708  1.5561 -0.4065 -1.1033
 2085ETH     HC18762   6.009   1.385   4.797 -0.4980  0.6029 -0.5035
 2085ETH     HC18763   5.726   1.415   4.929  0.6162 -0.1880  1.3957
 2085ETH     HC18764   5.819   1.267   4.930 -4.3300 -0.4793  0.3368
 2085ETH     HC18765   5.879   1.403   5.010  2.1590 -1.1415 -0.3413
 2086ETH     OH18766   4.545   0.023   1.751  0.1564  0.4157  0.1424
 2086ETH     CH18767   4.540   0.150   1.691  0.0470  0.2343 -0.2338
 2086ETH     CH18768   4.627   0.260   1.751  0.0640 -0.1228  0.4055
 2086ETH     HO18769   4.638   0.010   1.766  0.7525  2.2550 -1.7926
 2086ETH     HC18770   4.562   0.135   1.585 -1.6519  1.1468 -0.7262
 2086ETH     HC18771   4.437   0.186   1.691 -0.0899 -0.1459  0.5846
 2086ETH     HC18772   4.617   0.362   1.714 -2.2378 -0.3638  0.3044
 2086ETH     HC18773   4.605   0.264   1.858  1.5044 -0.6319  0.7333
 2086ETH     HC18774   4.729   0.223   1.735  0.2036  1.2242 -2.0726
 2087ETH     OH18775   0.188   2.512   4.940  0.1034  0.4629  0.6060
 2087ETH     CH18776   0.287   2.493   4.842 -0.1980 -0.3385  0.4531
 2087ETH     CH18777   0.213   2.408   4.738  0.1713  0.1999 -0.2525
 2087ETH     HO18778   0.230   2.550   5.016 -0.7191  1.6622  0.4893
 2087ETH     HC18779   0.300   2.592   4.797 -1.4838 -0.0453  0.7004
 2087ETH     HC18780   0.381   2.454   4.881  1.5767 -0.1200 -3.3688
 2087ETH     HC18781   0.261   2.374   4.647  2.0207 -0.9831  1.1373
 2087ETH     HC18782   0.173   2.315   4.778 -0.0338 -0.5243 -2.1145
 2087ETH     HC18783   0.126   2.469   4.713 -1.4375 -1.0429  2.1718
 2088ETH     OH18784   3.168   3.805   1.089 -0.2360 -0.3724 -0.2320
 2088ETH     CH18785   3.273   3.899   1.103 -0.0411 -0.6104 -0.0868
 2088ETH     CH18786   3.375   3.878   0.991  0.0759 -0.7702  0.0505
 2088ETH     HO18787   3.163   3.787   0.996  0.1148  1.4815 -0.6374
 2088ETH     HC18788   3.224   3.996   1.094 -1.1350 -1.2112 -0.6985
 2088ETH     HC18789   3.318   3.895   1.202  3.2365  0.4216 -1.4515
 2088ETH     HC18790   3.332   3.862   0.892  0.9923 -2.7036 -0.0593
 2088ETH     HC18791   3.446   3.960   0.986 -1.3086  0.4659  0.4454
 2088ETH     HC18792   3.431   3.785   1.001  0.2780 -0.7279 -0.6463
 2089ETH     OH18793   3.918   1.880   4.352  0.0227 -0.2399 -0.5460
 2089ETH     CH18794   3.927   1.744   4.387  0.1887 -0.3306 -0.9444
 2089ETH     CH18795   4.049   1.670   4.331  0.2288 -0.7282 -0.3398
 2089ETH     HO18796   3.989   1.936   4.378  0.2693  0.2527 -2.2375
 2089ETH     HC18797   3.931   1.728   4.494  1.7647  0.3957 -0.8912
 2089ETH     HC18798   3.841   1.701   4.334 -2.0408  0.6107  1.8053
 2089ETH     HC18799   4.054   1.562   4.336 -1.4095 -0.7138  2.4419
 2089ETH     HC18800   4.083   1.703   4.233  1.1639  3.0530  1.1638
 2089ETH     HC18801   4.133   1.706   4.390 -0.2121  0.2359 -0.2822
 2090ETH     OH18802   0.856   1.807   3.836  0.2711 -0.6922 -0.1473
 2090ETH     CH18803   0.807   1.677   3.862  0.5053 -0.7368  0.0712
 2090ETH     CH18804   0.880   1.577   3.772  0.5361 -0.2694 -0.4274
 2090ETH     HO18805   0.940   1.798   3.879  0.3660 -2.4099 -0.6310
 2090ETH     HC18806   0.810   1.647   3.967 -1.6390 -1.4630 -0.0529
 2090ETH     HC18807   0.700   1.675   3.845  0.4874 -0.4716  0.1594
 2090ETH     HC18808   0.857   1.484   3.826 -2.8949  0.4479 -0.5072
 2090ETH     HC18809   0.856   1.569   3.666 -1.8974  2.9676 -0.2008
 2090ETH     HC18810   0.987   1.598   3.774  0.7777 -1.3374 -1.5285
 2091ETH     OH18811   3.407   1.464   3.183 -0.2113 -0.1637 -0.0170
 2091ETH     CH18812   3.325   1.467   3.068  0.0363 -0.0560 -0.1903
 2091ETH     CH18813   3.390   1.549   2.957 -0.0028  0.5755  0.2521
 2091ETH     HO18814   3.402   1.549   3.225  0.9514 -0.5424  0.9131
 2091ETH     HC18815   3.294   1.366   3.039  2.0961 -0.5909 -0.6044
 2091ETH     HC18816   3.235   1.519   3.100  1.0082  2.1117 -0.9383
 2091ETH     HC18817   3.424   1.648   2.987  0.9278  0.5576 -0.7159
 2091ETH     HC18818   3.477   1.494   2.923  1.2985  1.4094  2.1683
 2091ETH     HC18819   3.323   1.576   2.875 -0.4199 -0.0945  0.3645
 2092ETH     OH18820   6.108   3.238   4.042 -0.1143 -0.2920  0.0565
 2092ETH     CH18821   6.215   3.302   3.975 -0.2139 -0.0330  0.1443
 2092ETH     CH18822   6.208   3.453   3.996  0.0518 -0.0652  0.4558
 2092ETH     HO18823   6.107   3.144   4.031  0.4032 -0.2925  0.0331
 2092ETH     HC18824   6.316   3.263   3.988 -0.4231 -0.4545  0.5494
 2092ETH     HC18825   6.194   3.274   3.872  1.8668 -0.6580 -0.1313
 2092ETH     HC18826   6.109   3.492   3.975 -0.4436 -1.0527  0.9020
 2092ETH     HC18827   6.252   3.484   4.091  2.9006 -0.4453 -0.6793
 2092ETH     HC18828   6.281   3.500   3.930  1.2310  0.8710  2.3690
 2093ETH     OH18829   2.367   5.111   3.462 -0.4459  0.1974 -0.3016
 2093ETH     CH18830   2.337   5.007   3.552 -0.1356  0.4249  0.0629
 2093ETH     CH18831   2.251   5.069   3.662  0.1231  0.2211  0.3825
 2093ETH     HO18832   2.410   5.066   3.391 -1.7663 -0.3875 -0.7541
 2093ETH     HC18833   2.279   4.925   3.509  2.4552 -1.4316 -0.0067
 2093ETH     HC18834   2.433   4.971   3.589 -0.2931 -0.0329  0.0320
 2093ETH     HC18835   2.153   5.099   3.626  0.6996 -0.0893 -1.4880
 2093ETH     HC18836   2.242   5.021   3.759  0.3787 -0.6204 -0.0036
 2093ETH     HC18837   2.302   5.155   3.708  0.6015 -0.7156  1.6257
 2094ETH     OH18838   3.272   4.075   6.248 -0.2384 -0.2048  0.0105
 2094ETH     CH18839   3.174   4.096   6.347 -0.2229 -0.8041  0.1498
 2094ETH     CH18840   3.041   4.152   6.298  0.2658  0.3236  0.1042
 2094ETH     HO18841   3.354   4.060   6.292 -0.9456 -1.4425  0.9051
 2094ETH     HC18842   3.169   3.997   6.393 -0.2099 -1.7127 -1.7684
 2094ETH     HC18843   3.202   4.159   6.431 -0.6987  0.2697 -0.4947
 2094ETH     HC18844   3.026   4.141   6.191  1.3084 -0.1490 -0.0009
 2094ETH     HC18845   2.957   4.102   6.348  1.0900 -1.4429 -0.2481
 2094ETH     HC18846   3.036   4.260   6.309  1.1723  0.1040  3.4633
 2095ETH     OH18847   0.072   0.098   0.931  0.0364  0.2736 -0.3259
 2095ETH     CH18848   0.133  -0.010   0.864  0.4573  0.6788 -0.5995
 2095ETH     CH18849   0.066  -0.062   0.736  0.4344 -0.0260 -0.3038
 2095ETH     HO18850   0.138   0.153   0.969  1.3252 -0.6004 -1.2610
 2095ETH     HC18851   0.233   0.024   0.837  0.6219  1.2563  0.7086
 2095ETH     HC18852   0.143  -0.091   0.937 -2.7000  1.0728  0.3546
 2095ETH     HC18853  -0.041  -0.082   0.742  0.0353  1.9006 -0.7751
 2095ETH     HC18854   0.062   0.017   0.662  0.6626 -0.5250 -0.8504
 2095ETH     HC18855   0.116  -0.144   0.685  0.8393  1.5659 -2.5386
 2096ETH     OH18856   4.803   5.351   3.979 -0.2821  0.8045 -0.6238
 2096ETH     CH18857   4.706   5.285   4.059  0.6305 -0.2371 -0.3620
 2096ETH     CH18858   4.778   5.204   4.167 -0.3473  0.3495  0.7309
 2096ETH     HO18859   4.761   5.415   3.924  0.5248  0.7115 -1.3610
 2096ETH     HC18860   4.639   5.352   4.112 -0.0781 -1.1839 -0.0464
 2096ETH     HC18861   4.648   5.237   3.980  3.0137 -1.7009 -1.2982
 2096ETH     HC18862   4.709   5.162   4.240  1.3406 -2.7030  0.6334
 2096ETH     HC18863   4.840   5.126   4.123 -1.6443  0.2280 -0.9709
 2096ETH     HC18864   4.847   5.266   4.224  2.9182 -1.3460 -1.2209
 2097ETH     OH18865   0.946   5.549   4.649  0.0256 -0.2490 -0.8841
 2097ETH     CH18866   1.052   5.464   4.610  1.1658  0.6722  0.1645
 2097ETH     CH18867   1.114   5.427   4.745  0.0729 -0.2996  0.4127
 2097ETH     HO18868   0.993   5.623   4.685  0.6285  0.3362 -2.8072
 2097ETH     HC18869   1.013   5.371   4.567  3.0000  0.5820 -1.3821
 2097ETH     HC18870   1.115   5.512   4.535 -1.0308  1.6787 -1.0963
 2097ETH     HC18871   1.045   5.410   4.827  1.5130 -0.3825  1.6205
 2097ETH     HC18872   1.177   5.338   4.738  1.2358  0.6632 -2.1054
 2097ETH     HC18873   1.172   5.515   4.772 -1.9910  1.0172  0.6606
 2098ETH     OH18874   3.394   0.910   2.527 -0.4267 -0.0288  0.3185
 2098ETH     CH18875   3.375   0.864   2.395  0.0985  0.1254  0.1896
 2098ETH     CH18876   3.227   0.891   2.366  0.2356  0.3069 -0.3488
 2098ETH     HO18877   3.426   0.999   2.523  0.7097 -0.4162  0.7624
 2098ETH     HC18878   3.384   0.756   2.404  2.5553  0.3004  0.1624
 2098ETH     HC18879   3.440   0.903   2.317 -0.8039  0.2522 -0.5031
 2098ETH     HC18880   3.202   0.858   2.265  1.1457  2.2014 -1.2303
 2098ETH     HC18881   3.164   0.840   2.438  0.8176 -0.6660 -0.5169
 2098ETH     HC18882   3.196   0.995   2.374 -1.3637 -0.1466 -0.5529
 2099ETH     OH18883   4.293   4.297   2.529  0.3700  0.2106 -0.0234
 2099ETH     CH18884   4.390   4.195   2.538  0.0095 -0.0982  0.4043
 2099ETH     CH18885   4.332   4.083   2.624 -0.0416 -0.2373  0.1892
 2099ETH     HO18886   4.291   4.338   2.613 -0.8652 -2.6754  1.4315
 2099ETH     HC18887   4.415   4.164   2.436  3.3047  2.6158  0.2743
 2099ETH     HC18888   4.483   4.239   2.575 -0.1665  0.1532  0.5546
 2099ETH     HC18889   4.223   4.088   2.612  0.0101  0.3324 -0.0509
 2099ETH     HC18890   4.377   3.987   2.604 -0.4557 -0.6008  0.9727
 2099ETH     HC18891   4.356   4.102   2.729 -1.4194  1.9553  0.1476
 2100ETH     OH18892   0.914   1.298   3.529 -0.1054  0.4900  0.1246
 2100ETH     CH18893   0.942   1.394   3.429  0.6623  0.0370 -0.0941
 2100ETH     CH18894   0.884   1.360   3.292  0.1558 -0.6129  0.2775
 2100ETH     HO18895   0.826   1.314   3.559 -0.8591 -3.4606  0.2635
 2100ETH     HC18896   0.918   1.494   3.463  0.2492  0.2505 -1.0122
 2100ETH     HC18897   1.050   1.400   3.415  0.9762 -1.2171  1.5486
 2100ETH     HC18898   0.910   1.258   3.263 -1.2362 -1.0375  0.4818
 2100ETH     HC18899   0.775   1.364   3.291  0.1146 -1.4673  0.8252
 2100ETH     HC18900   0.918   1.419   3.206  0.1521  1.4876  1.6741
 2101ETH     OH18901   1.373   1.577   2.342 -0.2100 -0.2908 -0.0565
 2101ETH     CH18902   1.355   1.553   2.480  0.0864  0.0663  0.0461
 2101ETH     CH18903   1.230   1.467   2.500  0.0783 -0.0787 -0.6034
 2101ETH     HO18904   1.424   1.504   2.310  0.2507  0.1017 -0.2213
 2101ETH     HC18905   1.443   1.500   2.515  0.6310  0.6950 -0.3486
 2101ETH     HC18906   1.355   1.652   2.526  4.3484  0.6457 -1.0321
 2101ETH     HC18907   1.206   1.469   2.607 -1.1263  0.8118 -0.8761
 2101ETH     HC18908   1.143   1.508   2.449  0.0107  0.0249 -0.4048
 2101ETH     HC18909   1.238   1.363   2.470  0.3374 -0.5034  0.8844
 2102ETH     OH18910   0.649   5.872   2.432 -0.0502  0.5560 -0.1489
 2102ETH     CH18911   0.601   5.821   2.310  0.0014  0.0880  0.0220
 2102ETH     CH18912   0.576   5.944   2.223 -0.1359  0.1848  0.1964
 2102ETH     HO18913   0.742   5.880   2.417  0.1947  0.4194  1.1962
 2102ETH     HC18914   0.659   5.743   2.261 -1.1821 -0.1840 -0.9940
 2102ETH     HC18915   0.507   5.778   2.346 -1.1490  1.1749 -1.6147
 2102ETH     HC18916   0.481   5.985   2.258  0.2073 -0.5329  2.0057
 2102ETH     HC18917   0.653   6.020   2.232  0.2908 -0.4734  2.4203
 2102ETH     HC18918   0.563   5.902   2.123 -0.5516 -3.3733  1.6997
 2103ETH     OH18919   1.165   5.030   4.161 -0.1520 -0.0863  0.6906
 2103ETH     CH18920   1.076   4.920   4.168  0.0397 -0.2462  0.6450
 2103ETH     CH18921   0.937   4.984   4.166  0.4751  0.6808 -0.2687
 2103ETH     HO18922   1.253   4.996   4.156 -0.5633 -1.0548 -0.4724
 2103ETH     HC18923   1.093   4.854   4.083 -1.0287  1.3274 -0.8218
 2103ETH     HC18924   1.101   4.861   4.257 -0.1160  0.9318  1.4868
 2103ETH     HC18925   0.862   4.908   4.186  0.1555  1.5077  1.8177
 2103ETH     HC18926   0.935   5.043   4.258 -1.1254 -1.0901  0.8736
 2103ETH     HC18927   0.918   5.050   4.081 -1.4547 -1.6894 -1.7108
 2104ETH     OH18928   3.552   3.703   1.813 -0.3424 -0.4162  0.1579
 2104ETH     CH18929   3.434   3.751   1.872  0.1196  0.7567  0.1510
 2104ETH     CH18930   3.382   3.887   1.824 -0.1197  0.3717 -0.6868
 2104ETH     HO18931   3.583   3.626   1.857  0.9108 -1.1771 -1.9771
 2104ETH     HC18932   3.362   3.670   1.863  0.3530  0.3364  1.7632
 2104ETH     HC18933   3.453   3.771   1.978  0.6587  3.3659 -0.4127
 2104ETH     HC18934   3.368   3.880   1.716  0.6212 -2.8104 -0.6323
 2104ETH     HC18935   3.300   3.917   1.889  1.3501  5.2907 -0.8837
 2104ETH     HC18936   3.460   3.963   1.831 -0.8126  1.1542 -1.4268
 2105ETH     OH18937   1.179   3.748   0.029 -0.0301  0.3262 -0.2447
 2105ETH     CH18938   1.219   3.737  -0.106  0.2053 -0.0579 -0.1460
 2105ETH     CH18939   1.139   3.824  -0.203  0.0683 -0.3916 -0.3317
 2105ETH     HO18940   1.114   3.681   0.047  2.6484 -1.9912  1.1725
 2105ETH     HC18941   1.324   3.768  -0.104  0.8738 -2.2858  1.2038
 2105ETH     HC18942   1.217   3.630  -0.125  0.0291 -0.4404  1.9125
 2105ETH     HC18943   1.165   3.929  -0.190  2.6933 -0.8372 -1.4813
 2105ETH     HC18944   1.168   3.791  -0.303 -0.1444  1.6796 -1.1090
 2105ETH     HC18945   1.031   3.811  -0.198 -0.0431  1.2071  2.0897
 2106ETH     OH18946   4.068   1.278   3.605  0.1047 -0.0993 -0.5269
 2106ETH     CH18947   4.042   1.140   3.614  0.0584 -0.0849 -0.4385
 2106ETH     CH18948   3.979   1.105   3.748  0.8350 -0.7004 -0.2290
 2106ETH     HO18949   4.103   1.291   3.518 -0.2311  2.4155 -0.3355
 2106ETH     HC18950   3.965   1.141   3.537  0.6223 -1.3194 -1.0310
 2106ETH     HC18951   4.136   1.086   3.600  0.6877  1.0800 -0.7522
 2106ETH     HC18952   4.053   1.122   3.826  2.0427 -1.9269 -1.1040
 2106ETH     HC18953   3.895   1.173   3.768  0.5879 -1.2212  0.5387
 2106ETH     HC18954   3.950   1.000   3.752  0.8302 -0.7352 -1.0947
 2107ETH     OH18955   4.811   4.845   4.944  0.1314 -0.3902  0.0558
 2107ETH     CH18956   4.902   4.818   4.839  0.7586 -0.0722  0.5131
 2107ETH     CH18957   4.910   4.946   4.755  0.0153 -0.5562 -0.3009
 2107ETH     HO18958   4.864   4.876   5.016 -0.6285  0.9989  0.0189
 2107ETH     HC18959   4.999   4.788   4.879 -0.0883 -2.9109  0.5162
 2107ETH     HC18960   4.865   4.738   4.775  0.3918 -0.5564  1.3193
 2107ETH     HC18961   4.820   4.988   4.712  1.6634  2.5383 -0.8337
 2107ETH     HC18962   4.957   5.018   4.822  0.1578 -1.2020  0.3029
 2107ETH     HC18963   4.975   4.940   4.668  0.5454  1.1490 -0.0321
 2108ETH     OH18964   1.858   5.484   0.049  0.5852 -0.0288  0.3477
 2108ETH     CH18965   1.837   5.413  -0.071 -0.5142 -0.3479  0.7318
 2108ETH     CH18966   1.703   5.339  -0.069 -0.5512 -0.3092 -0.1815
 2108ETH     HO18967   1.902   5.427   0.110 -1.7869  0.5966  2.7533
 2108ETH     HC18968   1.829   5.487  -0.150 -4.7764 -1.7669 -0.3175
 2108ETH     HC18969   1.922   5.351  -0.098 -2.5657 -1.6039 -3.2267
 2108ETH     HC18970   1.612   5.397  -0.049  0.7010  0.9302  2.0433
 2108ETH     HC18971   1.684   5.295  -0.167 -1.2519  1.8846 -1.0718
 2108ETH     HC18972   1.688   5.255  -0.001 -1.6528 -1.1425 -1.4274
 2109ETH     OH18973   0.300   2.602   0.473 -1.0585  0.2941 -0.4166
 2109ETH     CH18974   0.292   2.564   0.338  0.6116 -0.3562 -0.3464
 2109ETH     CH18975   0.419   2.612   0.268  0.5679  0.2499 -0.0089
 2109ETH     HO18976   0.227   2.552   0.506 -3.1649  0.9639 -3.8617
 2109ETH     HC18977   0.277   2.457   0.319  2.0109 -0.6820  0.3227
 2109ETH     HC18978   0.202   2.618   0.309  1.3822  0.4315 -1.3065
 2109ETH     HC18979   0.443   2.714   0.297 -0.0154  0.8853 -1.7295
 2109ETH     HC18980   0.502   2.544   0.291 -0.5993 -1.3458 -0.4100
 2109ETH     HC18981   0.428   2.616   0.160  1.7740  0.8171  0.1058
 2110ETH     OH18982   5.007   1.284   5.264 -0.2546 -0.0579  0.5887
 2110ETH     CH18983   4.904   1.255   5.356 -0.6583  0.2297  0.2217
 2110ETH     CH18984   4.844   1.122   5.309 -0.0286  0.1408 -0.3429
 2110ETH     HO18985   5.028   1.374   5.280  1.2515  0.0934 -1.9957
 2110ETH     HC18986   4.947   1.249   5.455  0.4339  0.3845 -0.2356
 2110ETH     HC18987   4.833   1.336   5.371  1.2992  1.7476  1.3781
 2110ETH     HC18988   4.794   1.133   5.213 -0.2224 -0.2220 -0.2846
 2110ETH     HC18989   4.912   1.038   5.300  0.6969  0.9618 -2.8772
 2110ETH     HC18990   4.765   1.083   5.373  0.6487 -2.0543 -0.7907
 2111ETH     OH18991   3.862   0.174   3.113  0.3675  0.1656  0.2712
 2111ETH     CH18992   3.945   0.162   3.000  0.4157 -0.1491  0.3395
 2111ETH     CH18993   3.860   0.186   2.875 -0.0181 -0.4325  0.5766
 2111ETH     HO18994   3.806   0.098   3.099  0.8838 -0.4829  1.6032
 2111ETH     HC18995   4.037   0.220   2.996  0.4047 -0.0889  0.8759
 2111ETH     HC18996   3.984   0.060   3.003 -0.5333 -0.5322 -0.1310
 2111ETH     HC18997   3.816   0.286   2.881  3.5484  1.4424 -2.2095
 2111ETH     HC18998   3.904   0.179   2.776 -0.0354  2.3279  0.3367
 2111ETH     HC18999   3.780   0.113   2.874  0.2380 -0.7287 -2.0037
 2112ETH     OH19000   5.922   2.285   1.916 -0.0385 -0.0334 -0.5704
 2112ETH     CH19001   5.813   2.229   1.847  0.0436 -0.2467 -0.5273
 2112ETH     CH19002   5.828   2.211   1.696  0.0146 -0.5362 -0.4965
 2112ETH     HO19003   6.003   2.238   1.899  0.4873  0.7353 -0.2320
 2112ETH     HC19004   5.808   2.128   1.888  1.3174 -0.1216 -0.0499
 2112ETH     HC19005   5.722   2.281   1.876  2.0865  3.0823  0.1199
 2112ETH     HC19006   5.856   2.301   1.642  2.1984  0.4891  2.2479
 2112ETH     HC19007   5.895   2.129   1.670  0.4231 -0.6110  0.7555
 2112ETH     HC19008   5.728   2.188   1.660  0.3491 -1.8731 -0.6181
 2113ETH     OH19009   3.476   2.460   3.199 -0.0117 -0.7060 -0.1346
 2113ETH     CH19010   3.392   2.500   3.093 -0.4010 -0.2558  0.3449
 2113ETH     CH19011   3.243   2.521   3.116 -0.5527 -1.1022  0.1174
 2113ETH     HO19012   3.453   2.371   3.222  1.5128 -0.8854  0.7752
 2113ETH     HC19013   3.425   2.594   3.047 -0.4249 -0.7976 -0.7952
 2113ETH     HC19014   3.402   2.427   3.013 -1.4138 -0.0595  0.0329
 2113ETH     HC19015   3.194   2.424   3.106 -0.7378 -1.1483  1.3922
 2113ETH     HC19016   3.210   2.545   3.217 -0.8334 -0.4514 -0.1321
 2113ETH     HC19017   3.204   2.592   3.043 -1.6533 -1.1536  0.6328
 2114ETH     OH19018   2.622   3.243   0.418 -0.1562  0.2286 -0.0346
 2114ETH     CH19019   2.683   3.354   0.480 -0.1405  0.3116 -0.1966
 2114ETH     CH19020   2.833   3.348   0.452 -0.1343 -0.2783 -0.0401
 2114ETH     HO19021   2.596   3.284   0.337 -0.1048  0.8447  0.2544
 2114ETH     HC19022   2.638   3.448   0.447  0.6960  0.2849 -1.4446
 2114ETH     HC19023   2.662   3.334   0.585  2.2336  1.7730  0.5998
 2114ETH     HC19024   2.877   3.263   0.503 -0.8406 -0.1004  0.8805
 2114ETH     HC19025   2.851   3.338   0.345  0.6697 -1.7773  0.2284
 2114ETH     HC19026   2.888   3.435   0.489 -1.8105  0.4582  0.7775
 2115ETH     OH19027   3.945   3.646   6.185  0.0406 -0.4699 -0.1682
 2115ETH     CH19028   4.034   3.569   6.263  0.2512 -0.5204 -0.4562
 2115ETH     CH19029   3.970   3.433   6.289  0.3657 -0.6821 -1.0080
 2115ETH     HO19030   3.990   3.721   6.149  0.6647 -0.3868  0.7777
 2115ETH     HC19031   4.124   3.555   6.202  1.4611  1.8735  0.6839
 2115ETH     HC19032   4.062   3.620   6.355 -3.1020  3.6340 -1.5821
 2115ETH     HC19033   3.865   3.458   6.306  0.5618  0.4340 -1.3764
 2115ETH     HC19034   3.965   3.367   6.202  2.0440 -0.0984 -1.5587
 2115ETH     HC19035   4.024   3.391   6.373  0.3478  2.0302  0.4136
 2116ETH     OH19036   5.388   2.001   1.106  0.6254  0.3488 -0.3311
 2116ETH     CH19037   5.361   2.055   1.234  0.7121 -0.0098 -0.1633
 2116ETH     CH19038   5.308   1.934   1.312  0.2362  0.0669 -0.3636
 2116ETH     HO19039   5.306   1.976   1.067 -0.1988  1.2643  0.7454
 2116ETH     HC19040   5.450   2.099   1.279 -0.0332  1.5084 -0.1638
 2116ETH     HC19041   5.279   2.126   1.237  0.7790  0.0822 -0.6063
 2116ETH     HC19042   5.221   1.893   1.260  0.8344 -2.1623  0.3097
 2116ETH     HC19043   5.380   1.852   1.317  0.6366  0.3941 -0.6823
 2116ETH     HC19044   5.275   1.959   1.413  1.7679  0.7732 -0.0163
 2117ETH     OH19045   2.037   0.484   5.764 -0.2018 -0.0741  0.0799
 2117ETH     CH19046   2.091   0.527   5.887  0.0206  0.4452 -0.1940
 2117ETH     CH19047   2.095   0.417   5.994  0.0719  0.6535  0.0191
 2117ETH     HO19048   2.093   0.428   5.713  0.9883 -1.1912  2.5352
 2117ETH     HC19049   2.192   0.567   5.879  0.0806  0.6813  1.4180
 2117ETH     HC19050   2.034   0.614   5.918 -1.5406 -1.4631  2.5177
 2117ETH     HC19051   1.995   0.376   6.005  0.3045 -0.6058 -2.3253
 2117ETH     HC19052   2.155   0.330   5.968  0.3835  1.4413 -2.0199
 2117ETH     HC19053   2.121   0.451   6.094  0.1847  1.1183 -0.1650
 2118ETH     OH19054   0.974   1.751   1.035  0.2908  0.3684  0.4629
 2118ETH     CH19055   0.915   1.663   0.943  0.8368  0.2728  0.1993
 2118ETH     CH19056   0.945   1.514   0.962 -0.0297  0.0177 -0.4092
 2118ETH     HO19057   0.941   1.742   1.123 -1.7022  0.5212 -0.2506
 2118ETH     HC19058   0.806   1.673   0.943  0.8608  0.5511  0.7777
 2118ETH     HC19059   0.938   1.703   0.844  0.5733  0.9147  0.3956
 2118ETH     HC19060   0.910   1.464   0.871  2.4467 -1.3114 -0.6718
 2118ETH     HC19061   1.053   1.507   0.961  0.1657  2.4541 -2.2071
 2118ETH     HC19062   0.914   1.475   1.058  1.6371 -0.7374 -0.1680
 2119ETH     OH19063   2.005   5.292   0.173  0.2471  0.2268 -0.0941
 2119ETH     CH19064   2.035   5.250   0.304 -0.2513 -0.0033 -0.0518
 2119ETH     CH19065   2.119   5.121   0.305  0.0753  0.1858 -1.2875
 2119ETH     HO19066   2.087   5.315   0.133  0.2484 -0.0793 -0.2672
 2119ETH     HC19067   2.085   5.326   0.364 -0.1087 -1.9875  2.4247
 2119ETH     HC19068   1.945   5.237   0.363 -0.5249  1.1925 -0.1994
 2119ETH     HC19069   2.221   5.119   0.267  0.6445  1.6132  0.0993
 2119ETH     HC19070   2.128   5.103   0.413  0.4772  0.2888 -1.3069
 2119ETH     HC19071   2.066   5.034   0.266  0.1946 -1.1131  1.3078
 2120ETH     OH19072   3.534   4.428   3.958  0.0197 -0.2391  0.0419
 2120ETH     CH19073   3.649   4.499   3.997 -0.6340  0.5068  0.6237
 2120ETH     CH19074   3.739   4.532   3.878 -0.7305  0.6234  0.5832
 2120ETH     HO19075   3.506   4.386   4.038  0.7980 -1.7896 -0.4617
 2120ETH     HC19076   3.622   4.599   4.030 -0.4769  0.4819  0.8319
 2120ETH     HC19077   3.708   4.445   4.070  0.0771 -1.4573 -1.3505
 2120ETH     HC19078   3.686   4.600   3.810  1.0926 -0.6069 -2.1773
 2120ETH     HC19079   3.833   4.573   3.916 -1.2086  0.9827  1.3910
 2120ETH     HC19080   3.757   4.442   3.820 -5.1638 -1.8737  2.8615
 2121ETH     OH19081   2.997   1.867   5.221 -0.2463 -0.8520  0.2796
 2121ETH     CH19082   2.865   1.912   5.239 -0.0351  0.0073 -0.3227
 2121ETH     CH19083   2.779   1.891   5.115  0.4484 -0.7168 -0.5393
 2121ETH     HO19084   3.048   1.926   5.168 -0.8558  0.4671  1.1415
 2121ETH     HC19085   2.818   1.872   5.328 -0.6337  1.8945  0.2425
 2121ETH     HC19086   2.873   2.020   5.251  0.6865 -0.2032  1.3132
 2121ETH     HC19087   2.673   1.915   5.120  0.2499 -1.7054  0.2098
 2121ETH     HC19088   2.799   1.949   5.025  0.4901 -0.5950 -0.4512
 2121ETH     HC19089   2.775   1.786   5.086  2.1458 -0.8221 -0.4000
 2122ETH     OH19090   2.294   4.444   6.180 -0.2090 -0.2249 -0.3974
 2122ETH     CH19091   2.221   4.461   6.060  0.0619  0.8117 -0.4224
 2122ETH     CH19092   2.079   4.513   6.083 -0.1871  0.0477 -0.2084
 2122ETH     HO19093   2.241   4.383   6.229 -0.6162  0.2070 -0.2928
 2122ETH     HC19094   2.271   4.521   5.984 -0.0720  1.2653 -0.1522
 2122ETH     HC19095   2.195   4.365   6.015  0.0442  0.2130  0.8230
 2122ETH     HC19096   2.020   4.489   5.994  0.3989  0.0741 -0.6067
 2122ETH     HC19097   2.022   4.459   6.158 -0.2630 -0.6946 -0.7951
 2122ETH     HC19098   2.074   4.618   6.109  0.4232  0.3842 -1.3922
 2123ETH     OH19099   3.347   1.998   0.176 -0.7491  0.1794  0.4107
 2123ETH     CH19100   3.406   1.871   0.156 -0.1222  0.5913 -0.3572
 2123ETH     CH19101   3.554   1.880   0.193 -0.2557 -0.5357  0.4719
 2123ETH     HO19102   3.363   2.012   0.268 -1.9496  0.3148  0.5989
 2123ETH     HC19103   3.347   1.807   0.221  0.3221 -1.6021 -2.0640
 2123ETH     HC19104   3.388   1.839   0.054  0.3040  1.2810 -0.6589
 2123ETH     HC19105   3.585   1.928   0.286  1.1461 -1.2069  0.3740
 2123ETH     HC19106   3.592   1.778   0.197 -0.0949 -0.4855  0.2015
 2123ETH     HC19107   3.603   1.935   0.112 -2.1459  0.9141  0.2737
 2124ETH     OH19108   4.128   1.974   0.614  0.0529  0.2849 -0.7514
 2124ETH     CH19109   4.084   2.089   0.683  0.4541  0.0261 -0.0616
 2124ETH     CH19110   3.942   2.117   0.636  0.2933 -0.4583  0.1333
 2124ETH     HO19111   4.079   1.899   0.644  0.9800 -0.7996 -1.9310
 2124ETH     HC19112   4.094   2.076   0.791  0.6700 -0.6576 -0.1584
 2124ETH     HC19113   4.140   2.182   0.668 -0.4614  0.6579  0.3739
 2124ETH     HC19114   3.872   2.054   0.691 -0.8908 -0.1061 -0.9252
 2124ETH     HC19115   3.912   2.218   0.662  0.2263 -0.6994  0.9920
 2124ETH     HC19116   3.938   2.123   0.527 -2.7405 -0.4071  0.2119
 2125ETH     OH19117   0.073   0.635   2.802 -0.2125  0.2824  0.4269
 2125ETH     CH19118   0.210   0.655   2.778 -0.2199 -0.2387 -0.0719
 2125ETH     CH19119   0.243   0.804   2.773 -0.4692 -0.1966 -0.4787
 2125ETH     HO19120   0.062   0.557   2.855  1.0713 -0.5664 -0.5285
 2125ETH     HC19121   0.266   0.617   2.864  1.5375  1.2607 -0.5109
 2125ETH     HC19122   0.243   0.604   2.688 -0.0394 -1.1366  0.4965
 2125ETH     HC19123   0.192   0.856   2.692 -1.1954 -0.0541  0.0629
 2125ETH     HC19124   0.205   0.869   2.853 -1.7779 -1.0632 -0.3824
 2125ETH     HC19125   0.349   0.821   2.752 -0.3953  0.8754  0.6727
 2126ETH     OH19126   3.725   2.556   5.905  0.4547 -0.0533  0.0299
 2126ETH     CH19127   3.841   2.631   5.932  0.4691  0.0511 -0.3234
 2126ETH     CH19128   3.945   2.636   5.819  1.0422  0.1577  0.2068
 2126ETH     HO19129   3.673   2.606   5.843  1.8936 -0.9972 -1.9715
 2126ETH     HC19130   3.815   2.733   5.962  0.1738 -0.5207  1.4242
 2126ETH     HC19131   3.899   2.594   6.017 -0.1829  0.2595  0.2116
 2126ETH     HC19132   3.890   2.669   5.731  1.2382  1.8806  0.7062
 2126ETH     HC19133   4.026   2.699   5.856  0.8484 -0.1821  1.2386
 2126ETH     HC19134   3.980   2.535   5.799 -2.7690 -1.4193  0.9779
 2127ETH     OH19135   0.860   2.806   0.666 -0.2431  0.0117  0.1679
 2127ETH     CH19136   0.828   2.855   0.538 -0.0298 -0.3594 -0.0289
 2127ETH     CH19137   0.951   2.851   0.447 -0.0823 -0.4444 -0.0961
 2127ETH     HO19138   0.928   2.856   0.709  0.1764 -1.1562  0.8877
 2127ETH     HC19139   0.749   2.784   0.514 -0.3080 -0.3682  0.9198
 2127ETH     HC19140   0.785   2.953   0.557 -1.7224 -1.2190  0.6552
 2127ETH     HC19141   1.042   2.870   0.505  0.0818  2.1508 -1.1064
 2127ETH     HC19142   0.963   2.750   0.407  1.3499 -0.7224  0.9967
 2127ETH     HC19143   0.932   2.917   0.362 -2.3753  2.0849  2.2861
 2128ETH     OH19144   3.593   5.854   0.597  0.1709  0.1252 -0.3937
 2128ETH     CH19145   3.512   5.953   0.536 -0.0901  0.1238 -0.0495
 2128ETH     CH19146   3.427   5.892   0.425 -0.1588 -0.2699  0.2181
 2128ETH     HO19147   3.678   5.880   0.629  0.1412 -0.5061  0.2083
 2128ETH     HC19148   3.439   5.990   0.608 -0.2518 -1.2101  0.4884
 2128ETH     HC19149   3.568   6.032   0.488  0.0622 -0.1361 -0.2999
 2128ETH     HC19150   3.367   5.975   0.388 -0.9241 -0.9943 -0.1974
 2128ETH     HC19151   3.493   5.848   0.351  1.2766  0.8291  0.8199
 2128ETH     HC19152   3.372   5.812   0.475 -0.4694 -0.6754 -0.7573
 2129ETH     OH19153   3.646   5.922   2.604  0.0894 -0.8043  0.0158
 2129ETH     CH19154   3.665   5.872   2.734 -0.3281 -1.0743 -0.0229
 2129ETH     CH19155   3.637   5.990   2.828 -0.1894 -0.7492 -0.3881
 2129ETH     HO19156   3.726   5.963   2.576 -0.2315  0.1721  0.5078
 2129ETH     HC19157   3.601   5.787   2.758  1.3093 -1.8634  1.7817
 2129ETH     HC19158   3.770   5.844   2.745  0.2088  0.4116 -1.1890
 2129ETH     HC19159   3.638   5.949   2.929 -0.0109  0.9990  0.3202
 2129ETH     HC19160   3.710   6.068   2.811 -1.6644  0.8972  0.7225
 2129ETH     HC19161   3.539   6.031   2.803 -0.3462 -1.5066 -1.0663
 2130ETH     OH19162   3.816   5.671   4.604 -0.0493 -0.2232 -0.3818
 2130ETH     CH19163   3.809   5.756   4.717  0.4298  0.1081 -0.5989
 2130ETH     CH19164   3.941   5.751   4.793  0.0249  0.5545  0.1438
 2130ETH     HO19165   3.728   5.642   4.587 -0.0478 -0.8878  0.6651
 2130ETH     HC19166   3.772   5.857   4.698  0.8213  0.1844 -0.9605
 2130ETH     HC19167   3.736   5.712   4.785  2.1549 -1.5686  0.1797
 2130ETH     HC19168   3.963   5.657   4.843  1.0061  0.9539  0.4749
 2130ETH     HC19169   4.025   5.772   4.726 -1.2144 -1.0194 -1.9669
 2130ETH     HC19170   3.958   5.826   4.870 -3.1020 -0.2993  1.7273
 2131ETH     OH19171   4.555   1.573   5.807  0.0440 -0.2701 -0.2447
 2131ETH     CH19172   4.436   1.553   5.733 -0.3431  0.6709  0.1191
 2131ETH     CH19173   4.459   1.455   5.618 -0.3263 -0.2699  0.9179
 2131ETH     HO19174   4.516   1.588   5.892  0.3037 -0.2635 -0.1273
 2131ETH     HC19175   4.379   1.508   5.814  1.0356  1.3164  1.4764
 2131ETH     HC19176   4.401   1.654   5.710  0.8942  1.0864  0.0028
 2131ETH     HC19177   4.472   1.354   5.656 -0.1814 -0.8832 -0.7532
 2131ETH     HC19178   4.375   1.459   5.549  0.0379  0.0280  0.4896
 2131ETH     HC19179   4.548   1.480   5.561 -1.8103  2.5010 -0.3122
 2132ETH     OH19180   2.069   1.545   5.129 -0.7777 -0.4256  0.2825
 2132ETH     CH19181   2.076   1.685   5.119  0.0345 -0.5119 -0.3995
 2132ETH     CH19182   2.002   1.734   4.995  0.1873 -0.2067 -0.3712
 2132ETH     HO19183   2.129   1.521   5.198  0.3454 -0.6514 -0.7491
 2132ETH     HC19184   2.054   1.736   5.212 -0.3506 -0.1120 -0.7086
 2132ETH     HC19185   2.184   1.692   5.103  0.3119 -1.2794  1.0204
 2132ETH     HC19186   2.064   1.711   4.908 -0.1648  0.8650 -0.9131
 2132ETH     HC19187   1.905   1.686   4.984 -0.1383 -0.3239  2.6758
 2132ETH     HC19188   1.980   1.841   5.005  2.2724  0.4809 -2.4655
 2133ETH     OH19189   2.850   1.954   1.851 -0.0081  0.7774 -0.4400
 2133ETH     CH19190   2.801   1.940   1.982  0.8283  0.0117 -0.2056
 2133ETH     CH19191   2.880   1.861   2.087  0.1066  0.0044  0.3365
 2133ETH     HO19192   2.794   2.014   1.803 -0.6541 -1.0550 -2.0295
 2133ETH     HC19193   2.790   2.034   2.036  2.2938 -0.0083  0.1380
 2133ETH     HC19194   2.699   1.903   1.978  1.3883 -1.5061 -0.6952
 2133ETH     HC19195   2.879   1.758   2.052 -2.1719  0.5259 -1.2829
 2133ETH     HC19196   2.982   1.887   2.115  0.2444 -0.1274 -0.0396
 2133ETH     HC19197   2.836   1.860   2.186  0.8278 -0.9395  0.6515
 2134ETH     OH19198   0.518   3.112   2.089 -0.0219 -0.2558 -0.2884
 2134ETH     CH19199   0.394   3.050   2.120 -0.2425  0.4299  0.2152
 2134ETH     CH19200   0.408   2.974   2.252 -0.0247  0.5161  0.2428
 2134ETH     HO19201   0.575   3.108   2.164  1.7358  0.0502 -1.5935
 2134ETH     HC19202   0.378   2.988   2.032  2.0633 -0.0365  0.0710
 2134ETH     HC19203   0.314   3.124   2.118  0.2806  1.0195  0.6134
 2134ETH     HC19204   0.337   2.892   2.264 -0.8501  1.0807 -0.6153
 2134ETH     HC19205   0.511   2.941   2.258  0.9415  3.6297  2.0511
 2134ETH     HC19206   0.390   3.045   2.333 -1.9596  0.2553  0.0613
 2135ETH     OH19207   5.992   2.204   3.049  0.4372  0.1257  0.0983
 2135ETH     CH19208   6.065   2.120   3.136 -0.2655 -0.4723  0.1155
 2135ETH     CH19209   6.183   2.202   3.189 -0.3296 -0.3542  0.0740
 2135ETH     HO19210   5.944   2.260   3.109 -2.2517 -1.0500 -0.8606
 2135ETH     HC19211   6.011   2.095   3.228 -0.2699 -0.0041  0.2461
 2135ETH     HC19212   6.095   2.030   3.083  1.0497 -0.1178  0.2533
 2135ETH     HC19213   6.267   2.208   3.120  1.0243  0.1500  1.7192
 2135ETH     HC19214   6.161   2.304   3.221  2.1715  0.1726  0.1876
 2135ETH     HC19215   6.231   2.161   3.278 -1.5630 -2.1783 -0.0532
 2136ETH     OH19216   1.590   4.446   4.063  0.4183  0.4188 -0.0478
 2136ETH     CH19217   1.587   4.522   3.944 -0.5272  0.3244 -0.0890
 2136ETH     CH19218   1.628   4.658   4.002  0.1978  0.2156 -0.3432
 2136ETH     HO19219   1.543   4.366   4.045 -0.1688  0.9656 -1.0110
 2136ETH     HC19220   1.652   4.477   3.869  1.1155 -0.2897  1.6572
 2136ETH     HC19221   1.486   4.548   3.911 -1.5213 -0.6957  2.0377
 2136ETH     HC19222   1.556   4.696   4.074 -1.6491  0.5516 -2.3035
 2136ETH     HC19223   1.722   4.659   4.057  0.2252  0.9458 -0.4046
 2136ETH     HC19224   1.639   4.731   3.922 -1.9400 -1.1401 -1.9326
 2137ETH     OH19225   1.076   1.488   2.870  0.0421  0.1539 -0.1887
 2137ETH     CH19226   1.068   1.353   2.830  0.0784  0.2916 -0.6588
 2137ETH     CH19227   0.955   1.287   2.909  0.2886  0.1373 -0.4898
 2137ETH     HO19228   1.166   1.516   2.881 -0.2817  1.3658 -0.6568
 2137ETH     HC19229   1.049   1.333   2.724  3.4251 -0.1004 -1.2329
 2137ETH     HC19230   1.162   1.305   2.855  0.4515  0.3002 -2.0138
 2137ETH     HC19231   0.939   1.181   2.886 -0.1339  0.1255 -0.1527
 2137ETH     HC19232   0.974   1.284   3.016 -1.2411 -0.1754 -0.2135
 2137ETH     HC19233   0.864   1.346   2.898  0.0562 -0.0934  0.1650
 2138ETH     OH19234   6.239   2.771   3.359 -0.7666 -0.2439 -0.0536
 2138ETH     CH19235   6.361   2.778   3.430 -0.4666 -0.5716 -0.5347
 2138ETH     CH19236   6.380   2.658   3.522  0.0726  0.1803  0.3486
 2138ETH     HO19237   6.251   2.809   3.273 -1.0100 -0.5806 -0.2356
 2138ETH     HC19238   6.441   2.793   3.357  0.3057 -1.6989  0.0621
 2138ETH     HC19239   6.364   2.859   3.503 -0.9625 -2.5024  1.6490
 2138ETH     HC19240   6.386   2.567   3.461  0.0562  0.5727 -0.2442
 2138ETH     HC19241   6.476   2.657   3.574  0.0442 -0.5812  0.4022
 2138ETH     HC19242   6.303   2.636   3.596 -1.2805  2.8653 -0.2080
 2139ETH     OH19243   2.648   5.338   6.048  0.1066  0.2547  0.2341
 2139ETH     CH19244   2.691   5.434   5.954 -0.2163  0.3172  0.1454
 2139ETH     CH19245   2.829   5.490   5.988  0.0926 -0.2975 -0.0782
 2139ETH     HO19246   2.586   5.283   6.002 -1.5930  2.1002  0.2316
 2139ETH     HC19247   2.681   5.406   5.849 -1.4971 -0.3889  0.4465
 2139ETH     HC19248   2.622   5.518   5.962  0.0994  0.2869  4.2473
 2139ETH     HC19249   2.846   5.520   6.092 -1.1485 -0.1769  0.0979
 2139ETH     HC19250   2.913   5.424   5.966  0.2521 -0.5410  1.2316
 2139ETH     HC19251   2.842   5.572   5.917 -1.6456 -1.5565 -1.8827
 2140ETH     OH19252   0.367   6.170   1.456 -0.4452 -0.1378  0.4139
 2140ETH     CH19253   0.308   6.053   1.403 -0.0638  0.0906 -0.5180
 2140ETH     CH19254   0.189   5.991   1.477  0.2971  0.1766  0.1443
 2140ETH     HO19255   0.305   6.239   1.440 -1.1511 -1.0068 -0.6312
 2140ETH     HC19256   0.277   6.092   1.307  1.9306  4.0613  0.3264
 2140ETH     HC19257   0.398   5.992   1.395  0.1180  0.0019  1.7295
 2140ETH     HC19258   0.205   5.962   1.581  0.0067  0.1618  0.1847
 2140ETH     HC19259   0.122   6.076   1.491  0.1186 -0.0510  0.6514
 2140ETH     HC19260   0.133   5.916   1.422  0.0748 -0.7931  1.6641
 2141ETH     OH19261   3.152   6.001   5.595 -0.5208  0.0097 -0.0957
 2141ETH     CH19262   3.107   6.090   5.495  0.5939 -0.0235 -0.6314
 2141ETH     CH19263   3.215   6.197   5.479 -0.5788  1.2462 -0.0573
 2141ETH     HO19264   3.165   6.056   5.671 -2.5431  0.5110 -0.0727
 2141ETH     HC19265   3.077   6.052   5.397 -0.1916 -1.2973  0.0900
 2141ETH     HC19266   3.009   6.126   5.524 -0.3778 -2.0995 -1.2114
 2141ETH     HC19267   3.251   6.237   5.574  0.4754 -0.5746  0.3222
 2141ETH     HC19268   3.297   6.173   5.412  0.4382  2.0908  0.8698
 2141ETH     HC19269   3.167   6.278   5.423  3.8727  3.0675 -1.4644
 2142ETH     OH19270   0.513   2.752   4.335  0.1103  0.1803 -0.4919
 2142ETH     CH19271   0.420   2.793   4.433  0.2160 -0.2726 -0.1962
 2142ETH     CH19272   0.341   2.915   4.385  0.1409 -0.4308 -0.4710
 2142ETH     HO19273   0.543   2.672   4.376  1.2063 -0.0001 -1.6404
 2142ETH     HC19274   0.350   2.711   4.446  1.7823 -1.9161 -1.7750
 2142ETH     HC19275   0.476   2.796   4.527  1.3519 -0.5975 -0.8528
 2142ETH     HC19276   0.243   2.923   4.433 -0.3401 -0.4855 -1.4340
 2142ETH     HC19277   0.395   3.006   4.410 -0.0169 -0.0416 -1.5290
 2142ETH     HC19278   0.328   2.894   4.279  2.0489 -0.4186 -0.7302
 2143ETH     OH19279   6.010   2.491   4.370  0.8516 -0.3757  0.3626
 2143ETH     CH19280   5.869   2.493   4.355  0.8784  0.0657  0.1738
 2143ETH     CH19281   5.808   2.431   4.480  0.4349  0.2144  0.0301
 2143ETH     HO19282   6.036   2.566   4.421  1.6432 -1.0626  0.9694
 2143ETH     HC19283   5.845   2.599   4.346  0.0576 -0.0023  1.4810
 2143ETH     HC19284   5.853   2.442   4.260 -1.1307 -1.2814  1.2150
 2143ETH     HC19285   5.825   2.475   4.578  1.0715  0.0962 -0.0249
 2143ETH     HC19286   5.701   2.419   4.463  0.4106 -2.7239  1.8566
 2143ETH     HC19287   5.849   2.330   4.484  0.1115  0.0170 -1.4154
 2144ETH     OH19288   3.019   5.439   1.178  0.0040 -0.0547 -0.1627
 2144ETH     CH19289   3.028   5.576   1.147  0.3793 -0.0894 -0.2083
 2144ETH     CH19290   3.122   5.592   1.027  0.2571 -0.3557 -0.3401
 2144ETH     HO19291   2.965   5.431   1.255 -0.2686  0.4161 -0.3049
 2144ETH     HC19292   2.929   5.614   1.123 -0.2191 -1.9174 -0.7446
 2144ETH     HC19293   3.069   5.629   1.233 -0.1122 -2.1679  1.3515
 2144ETH     HC19294   3.159   5.694   1.013 -0.3156 -0.2652 -1.2325
 2144ETH     HC19295   3.215   5.538   1.045 -1.1402 -2.4354  0.8302
 2144ETH     HC19296   3.085   5.560   0.930  0.4564  2.3681 -1.3400
 2145ETH     OH19297   6.248   2.267   1.260  0.0318 -0.1258 -0.0109
 2145ETH     CH19298   6.270   2.394   1.202 -0.1321  0.0942  0.4041
 2145ETH     CH19299   6.181   2.491   1.279 -0.1107  0.3108  0.1556
 2145ETH     HO19300   6.271   2.267   1.351  2.6861 -1.2229 -0.6496
 2145ETH     HC19301   6.369   2.430   1.230  0.7239 -1.3837 -0.6415
 2145ETH     HC19302   6.255   2.408   1.095  3.0607  0.3646 -0.0614
 2145ETH     HC19303   6.211   2.490   1.384 -0.0183 -1.9271  0.1340
 2145ETH     HC19304   6.181   2.591   1.234  1.7384 -0.1184 -0.8519
 2145ETH     HC19305   6.079   2.453   1.284 -0.9459  2.2129 -1.7635
 2146ETH     OH19306   1.522   2.584   0.050  0.3049 -0.0188 -0.1497
 2146ETH     CH19307   1.395   2.612   0.104  0.3923 -0.4300  0.2769
 2146ETH     CH19308   1.407   2.699   0.230 -1.1845 -0.3700  0.3915
 2146ETH     HO19309   1.507   2.543  -0.034 -1.7062  2.7682 -1.2113
 2146ETH     HC19310   1.324   2.663   0.039  1.5778  1.1850  0.2047
 2146ETH     HC19311   1.343   2.520   0.130 -0.6414  0.0711 -0.0155
 2146ETH     HC19312   1.311   2.715   0.278 -1.8008 -1.5830 -0.4183
 2146ETH     HC19313   1.481   2.657   0.297  0.4638  0.0378 -1.1189
 2146ETH     HC19314   1.462   2.790   0.206 -0.6813 -0.3619  1.5639
 2147ETH     OH19315   1.528   3.126   2.889 -0.0105  0.0226 -0.1231
 2147ETH     CH19316   1.483   3.157   3.018  0.0606  0.3298 -0.1698
 2147ETH     CH19317   1.402   3.287   3.009 -0.5712 -0.1112 -0.9570
 2147ETH     HO19318   1.614   3.086   2.885  0.7019  1.3815  1.0820
 2147ETH     HC19319   1.422   3.078   3.063 -0.0571  1.3572  1.5526
 2147ETH     HC19320   1.570   3.163   3.083 -0.2241  0.7344  0.1834
 2147ETH     HC19321   1.456   3.359   2.947  0.8518 -2.1905 -2.2207
 2147ETH     HC19322   1.302   3.265   2.973 -1.3755 -0.5506  1.4047
 2147ETH     HC19323   1.384   3.333   3.106  1.3534  0.5080 -0.8700
 2148ETH     OH19324   4.547   0.952   5.178 -0.6877 -0.2689 -0.3332
 2148ETH     CH19325   4.546   0.980   5.039  0.2133 -0.4708 -0.3870
 2148ETH     CH19326   4.409   0.934   4.989 -0.2526 -0.3303  0.7292
 2148ETH     HO19327   4.470   0.995   5.211  0.5442  1.1857  0.7413
 2148ETH     HC19328   4.567   1.084   5.016 -2.6365  0.0149 -0.9792
 2148ETH     HC19329   4.624   0.917   4.997 -0.0963 -0.2040 -1.3533
 2148ETH     HC19330   4.384   0.843   5.043 -0.9171 -0.2043  0.6470
 2148ETH     HC19331   4.330   1.006   5.011  0.5933  0.8177  0.0983
 2148ETH     HC19332   4.409   0.910   4.883  3.2472 -0.6322  0.7492
 2149ETH     OH19333   4.986   4.100   4.606 -0.2837  0.6223  0.3282
 2149ETH     CH19334   4.948   4.139   4.735 -0.1603 -0.2931  0.6460
 2149ETH     CH19335   4.812   4.207   4.719  0.2334  0.3215 -0.1020
 2149ETH     HO19336   5.052   4.032   4.608  0.8718  1.7401  0.3971
 2149ETH     HC19337   4.948   4.065   4.815 -0.0439  1.0257  1.9044
 2149ETH     HC19338   5.018   4.216   4.767  1.2188 -0.3456 -2.1618
 2149ETH     HC19339   4.814   4.292   4.650 -1.1898  1.1479  0.8377
 2149ETH     HC19340   4.731   4.143   4.685  1.8777 -0.7281 -2.1025
 2149ETH     HC19341   4.780   4.256   4.811 -3.8911 -2.1570 -0.1022
 2150ETH     OH19342   0.181   2.693   2.363  0.5323  0.0522 -0.1421
 2150ETH     CH19343   0.207   2.627   2.242 -0.0247  0.0008 -0.2366
 2150ETH     CH19344   0.146   2.487   2.251 -0.2729  0.1173 -0.1138
 2150ETH     HO19345   0.230   2.641   2.425 -0.9502 -0.0270  1.0102
 2150ETH     HC19346   0.167   2.685   2.159  0.6614 -0.4658 -0.9111
 2150ETH     HC19347   0.315   2.615   2.230  0.1630  1.1383  0.2646
 2150ETH     HC19348   0.042   2.489   2.281 -0.1777 -1.6379  0.4097
 2150ETH     HC19349   0.158   2.436   2.156 -0.4298  1.1318 -0.6776
 2150ETH     HC19350   0.193   2.423   2.326  1.3380  1.2422 -0.1394
 2151ETH     OH19351   4.960   3.537   3.843 -1.1352 -0.1510  0.0953
 2151ETH     CH19352   4.938   3.522   3.705 -0.3767 -0.0439 -0.0386
 2151ETH     CH19353   5.073   3.512   3.635 -0.3970  0.2008 -0.1119
 2151ETH     HO19354   4.893   3.493   3.894  0.0673 -0.5599  1.3604
 2151ETH     HC19355   4.880   3.430   3.696 -0.3362 -0.2551  1.6668
 2151ETH     HC19356   4.873   3.594   3.655 -0.7562 -0.0537  0.4354
 2151ETH     HC19357   5.047   3.479   3.535 -0.3310 -0.6588  0.1553
 2151ETH     HC19358   5.134   3.602   3.621 -1.4925  1.1011  0.8717
 2151ETH     HC19359   5.128   3.431   3.681 -0.5158  0.1954  0.0193
 2152ETH     OH19360   4.903   4.096   4.120 -0.1177 -0.0062  0.7022
 2152ETH     CH19361   4.965   4.214   4.167 -0.2251  0.2114  0.2998
 2152ETH     CH19362   5.106   4.226   4.109 -0.3105 -0.4244 -0.0410
 2152ETH     HO19363   4.835   4.121   4.060 -2.7604 -3.6600  1.9923
 2152ETH     HC19364   4.904   4.300   4.142 -1.0822  0.4081  2.9417
 2152ETH     HC19365   4.969   4.194   4.274  1.5118  1.4849  0.5039
 2152ETH     HC19366   5.095   4.266   4.008 -0.2922  0.3192  0.2497
 2152ETH     HC19367   5.164   4.301   4.163 -0.7506 -1.8372  2.4681
 2152ETH     HC19368   5.152   4.127   4.108  1.3012  0.3023  0.4046
 2153ETH     OH19369   3.059   5.115   5.036 -0.2413  0.2933 -0.0451
 2153ETH     CH19370   3.131   5.143   4.918  0.0603 -0.1805  0.0247
 2153ETH     CH19371   3.268   5.199   4.957 -0.0937  0.1615  0.0780
 2153ETH     HO19372   3.025   5.200   5.060 -1.2398  0.2285 -1.1703
 2153ETH     HC19373   3.161   5.050   4.871  0.0552 -0.7289  1.0806
 2153ETH     HC19374   3.075   5.207   4.850 -0.9045 -1.2984 -0.2456
 2153ETH     HC19375   3.341   5.133   5.003  3.2896  3.2479 -0.5920
 2153ETH     HC19376   3.326   5.229   4.870  0.6952 -2.5308 -0.3799
 2153ETH     HC19377   3.250   5.284   5.023 -0.0664  0.4523 -0.2826
 2154ETH     OH19378   3.804   0.235   3.843 -0.3097  0.0076  0.0822
 2154ETH     CH19379   3.717   0.261   3.951 -0.3718 -0.1710  0.0754
 2154ETH     CH19380   3.617   0.372   3.919 -0.4477  0.0385  1.0169
 2154ETH     HO19381   3.866   0.171   3.876 -0.9215  0.2234  1.6846
 2154ETH     HC19382   3.668   0.164   3.953  2.3723 -1.6241  3.1744
 2154ETH     HC19383   3.768   0.282   4.046  0.8329  0.6516 -0.7318
 2154ETH     HC19384   3.671   0.458   3.881  0.2388 -0.9309 -0.2621
 2154ETH     HC19385   3.548   0.336   3.843 -0.1558 -1.9751  1.6634
 2154ETH     HC19386   3.554   0.402   4.003  0.1700  2.0579  0.7852
 2155ETH     OH19387   3.107   1.933   0.590 -0.0693 -0.0608 -0.0892
 2155ETH     CH19388   3.035   1.847   0.504  0.1307 -0.1384 -0.1809
 2155ETH     CH19389   3.107   1.712   0.501  0.3644 -0.0464  1.1562
 2155ETH     HO19390   3.098   1.895   0.676  0.2519 -2.3457 -1.0142
 2155ETH     HC19391   2.930   1.847   0.535  0.7786 -0.9461  2.0830
 2155ETH     HC19392   3.050   1.893   0.406  1.4284  1.7074  0.8717
 2155ETH     HC19393   3.056   1.656   0.423  1.0320  2.6107 -1.2964
 2155ETH     HC19394   3.210   1.730   0.473  0.0104 -1.7807 -1.3630
 2155ETH     HC19395   3.090   1.654   0.592  0.6919 -2.4977 -0.3221
 2156ETH     OH19396   6.068   2.061   2.249 -0.1331 -0.0906  0.3069
 2156ETH     CH19397   6.046   2.041   2.387 -0.1750  0.0386  0.3187
 2156ETH     CH19398   6.034   1.889   2.404  0.3204  0.0594  0.8858
 2156ETH     HO19399   6.040   2.147   2.224 -0.5162 -0.4601 -0.5743
 2156ETH     HC19400   6.110   2.094   2.457 -0.9160  0.1132  0.9555
 2156ETH     HC19401   5.945   2.081   2.398 -0.9594 -1.0930 -2.2884
 2156ETH     HC19402   5.957   1.854   2.334  0.7469 -2.8365  1.8340
 2156ETH     HC19403   6.121   1.832   2.372 -0.7713 -1.2793  0.2732
 2156ETH     HC19404   6.008   1.853   2.503 -0.0924  1.0429  1.1434
 2157ETH     OH19405   4.336   5.627   2.363  0.1644 -0.2443  0.2584
 2157ETH     CH19406   4.370   5.755   2.315 -0.2764  0.0569  0.7553
 2157ETH     CH19407   4.495   5.806   2.386 -0.0299  0.2898  0.1570
 2157ETH     HO19408   4.252   5.612   2.322  0.5962 -0.8144 -0.4536
 2157ETH     HC19409   4.394   5.757   2.209  0.9314 -1.8790  0.9802
 2157ETH     HC19410   4.292   5.827   2.339 -0.7600  0.8018 -2.8647
 2157ETH     HC19411   4.543   5.893   2.342 -0.6089  1.3315  1.5587
 2157ETH     HC19412   4.472   5.830   2.490 -0.8939 -1.2301  0.3295
 2157ETH     HC19413   4.572   5.728   2.385 -0.1668  0.1720 -1.4851
 2158ETH     OH19414   1.532   4.032   0.597 -0.1223  0.2542 -0.1757
 2158ETH     CH19415   1.456   3.919   0.559  0.1085  0.0146  0.0639
 2158ETH     CH19416   1.339   3.980   0.480 -0.0692 -0.4485 -0.0313
 2158ETH     HO19417   1.602   3.993   0.648 -0.7544 -0.1976  0.3530
 2158ETH     HC19418   1.521   3.851   0.504 -0.5693 -0.5413 -0.0522
 2158ETH     HC19419   1.415   3.864   0.643  0.2148  0.4433  0.3974
 2158ETH     HC19420   1.371   4.052   0.405 -0.9827  1.1323  1.0522
 2158ETH     HC19421   1.281   3.894   0.448 -0.1119  0.2785 -1.9536
 2158ETH     HC19422   1.271   4.039   0.541 -1.3202 -0.8933 -0.9992
 2159ETH     OH19423   4.361   3.201   5.949  0.0675 -0.5803 -0.1813
 2159ETH     CH19424   4.475   3.275   5.986 -0.4016 -0.0709  0.2547
 2159ETH     CH19425   4.453   3.352   6.116 -0.5391 -0.0051  0.1932
 2159ETH     HO19426   4.395   3.140   5.885  0.1950 -1.2298  0.5026
 2159ETH     HC19427   4.559   3.205   5.982 -0.9151 -0.6564 -0.5644
 2159ETH     HC19428   4.505   3.349   5.912 -0.9188 -1.3001 -1.2196
 2159ETH     HC19429   4.431   3.281   6.196 -0.3265 -2.0886 -1.5627
 2159ETH     HC19430   4.544   3.400   6.152  0.7681 -1.5760 -0.9257
 2159ETH     HC19431   4.375   3.427   6.106 -0.3541  0.2217  0.4717
 2160ETH     OH19432   4.641   5.809   1.480 -0.0588 -0.6847  0.0951
 2160ETH     CH19433   4.730   5.845   1.377  0.1149 -0.1176  0.4441
 2160ETH     CH19434   4.878   5.837   1.417  0.3520  0.3708 -0.3165
 2160ETH     HO19435   4.616   5.885   1.530  0.8357  0.3406 -0.9999
 2160ETH     HC19436   4.704   5.943   1.336 -1.8243 -0.1850  1.4755
 2160ETH     HC19437   4.704   5.777   1.297  2.3372  0.2537 -0.6270
 2160ETH     HC19438   4.942   5.830   1.330  0.6146 -0.9389 -0.0200
 2160ETH     HC19439   4.903   5.924   1.478  1.2631  0.5464 -0.9373
 2160ETH     HC19440   4.889   5.748   1.479  1.4396  1.5369  1.2090
 2161ETH     OH19441   3.132   4.580   2.756  0.5127 -0.4283 -0.1746
 2161ETH     CH19442   3.022   4.494   2.740  0.0096  0.4323 -1.4590
 2161ETH     CH19443   2.894   4.549   2.803  0.6427  0.5937 -0.3139
 2161ETH     HO19444   3.209   4.528   2.774  0.5483 -0.7082 -1.0981
 2161ETH     HC19445   2.999   4.476   2.635 -1.2208 -1.1781 -0.9301
 2161ETH     HC19446   3.047   4.396   2.780  0.2728  0.7799 -0.7801
 2161ETH     HC19447   2.852   4.631   2.747  1.4117  0.4964 -1.0388
 2161ETH     HC19448   2.835   4.458   2.788  1.2679  0.4895 -2.2038
 2161ETH     HC19449   2.921   4.582   2.904  0.5671 -0.6688  0.1298
 2162ETH     OH19450   3.558   1.936   3.252  0.5541  0.4012 -0.3874
 2162ETH     CH19451   3.687   1.938   3.195  0.7927  0.0680  0.1444
 2162ETH     CH19452   3.725   1.796   3.153 -0.0678  0.0510 -0.5805
 2162ETH     HO19453   3.525   2.025   3.253  0.3020  0.2939  1.5871
 2162ETH     HC19454   3.689   2.011   3.114  1.6904 -0.6155 -0.4604
 2162ETH     HC19455   3.736   1.971   3.287  3.4656 -0.4312 -1.0449
 2162ETH     HC19456   3.834   1.788   3.148  0.0010  0.0887  0.7954
 2162ETH     HC19457   3.691   1.724   3.226  1.0349 -1.0976 -1.1761
 2162ETH     HC19458   3.668   1.762   3.066 -0.1041 -1.7451  0.1208
 2163ETH     OH19459   5.597   2.961   5.870 -0.0053 -0.2972 -0.0656
 2163ETH     CH19460   5.556   2.836   5.920  0.0731 -0.3094 -0.0302
 2163ETH     CH19461   5.435   2.855   6.011  0.4928  0.4656  0.3707
 2163ETH     HO19462   5.664   2.957   5.803  1.3086  0.9741  1.1254
 2163ETH     HC19463   5.530   2.772   5.835 -0.4313  0.2896 -0.3330
 2163ETH     HC19464   5.635   2.786   5.976  1.4493 -0.7072 -2.2413
 2163ETH     HC19465   5.356   2.912   5.963 -0.5797  0.0761  1.6351
 2163ETH     HC19466   5.392   2.763   6.052  3.1489 -0.7634  0.5148
 2163ETH     HC19467   5.456   2.916   6.098  1.7662  0.4516  0.0729
 2164ETH     OH19468   4.620   0.978   5.677  1.0418 -0.1044 -0.0820
 2164ETH     CH19469   4.687   0.859   5.714  0.2920 -0.4352  0.2170
 2164ETH     CH19470   4.826   0.877   5.653  0.0615  0.1858 -0.1425
 2164ETH     HO19471   4.640   1.043   5.742 -0.4623  0.5423 -0.2485
 2164ETH     HC19472   4.701   0.856   5.822 -0.1487 -0.2602  0.2810
 2164ETH     HC19473   4.634   0.771   5.677 -0.6746  0.6578 -1.0640
 2164ETH     HC19474   4.833   0.835   5.553  1.5081  3.3037 -1.4222
 2164ETH     HC19475   4.860   0.980   5.646 -0.5792  0.2206 -3.2791
 2164ETH     HC19476   4.921   0.831   5.684 -0.7716 -1.1153  0.5564
 2165ETH     OH19477   5.413   4.838   1.604 -0.0675 -0.0051  0.1126
 2165ETH     CH19478   5.385   4.923   1.495 -0.1502  0.2427  0.3267
 2165ETH     CH19479   5.434   4.861   1.363  0.1514  0.0327  0.5368
 2165ETH     HO19480   5.353   4.861   1.673  0.9000 -0.0030  0.9593
 2165ETH     HC19481   5.277   4.930   1.486 -0.0679  0.8339 -0.2717
 2165ETH     HC19482   5.425   5.021   1.520 -1.1004  0.7310 -0.0459
 2165ETH     HC19483   5.541   4.851   1.352  0.0885  0.7726 -0.7539
 2165ETH     HC19484   5.384   4.770   1.330  1.1991 -0.3886  0.1233
 2165ETH     HC19485   5.398   4.924   1.282 -1.9369 -2.2786 -0.4213
 2166ETH     OH19486   2.874   5.959   5.028  0.0358  0.2383  0.6426
 2166ETH     CH19487   3.013   5.957   5.008 -0.0414 -0.6046  0.1429
 2166ETH     CH19488   3.064   5.837   4.927 -0.6952 -0.3781 -0.5974
 2166ETH     HO19489   2.849   6.021   5.094  0.7336 -1.4701  2.5834
 2166ETH     HC19490   3.034   6.050   4.955 -1.4323  0.8577  2.0937
 2166ETH     HC19491   3.064   5.952   5.104  0.7774 -0.9608 -0.3026
 2166ETH     HC19492   3.047   5.756   4.997 -1.4805  0.8098  0.6189
 2166ETH     HC19493   3.002   5.827   4.837 -0.4348 -1.3311 -0.6733
 2166ETH     HC19494   3.167   5.850   4.896 -1.2863  0.5227 -2.3282
 2167ETH     OH19495   2.149   5.879   1.186  1.1082 -0.0385 -0.0766
 2167ETH     CH19496   2.161   5.941   1.060  0.3349 -0.1375 -0.1989
 2167ETH     CH19497   2.030   5.954   0.980  0.5601 -0.2070 -0.5807
 2167ETH     HO19498   2.236   5.868   1.220  0.7275  0.1804  1.0002
 2167ETH     HC19499   2.204   6.040   1.074  0.3907 -0.4240  1.7500
 2167ETH     HC19500   2.229   5.890   0.992  3.0085  1.5208  1.1908
 2167ETH     HC19501   2.031   6.014   0.889 -0.6288 -0.4993 -0.7827
 2167ETH     HC19502   1.994   5.854   0.957 -0.2881  0.3272 -1.6124
 2167ETH     HC19503   1.950   6.006   1.032  1.5715  0.6510  0.1628
 2168ETH     OH19504   4.060   1.417   2.931  0.2758 -0.1815 -0.0230
 2168ETH     CH19505   3.959   1.413   2.833  0.3634  0.0302 -0.1231
 2168ETH     CH19506   3.827   1.486   2.858  0.4075  0.0477  0.0594
 2168ETH     HO19507   4.133   1.365   2.902  0.1398  0.4400 -1.5532
 2168ETH     HC19508   4.005   1.453   2.743  1.5817 -1.0266  0.0191
 2168ETH     HC19509   3.937   1.310   2.806  0.0665 -0.3495  1.5059
 2168ETH     HC19510   3.839   1.591   2.830 -0.3637  0.3287  0.7526
 2168ETH     HC19511   3.753   1.442   2.791  1.8819 -2.3917 -0.0026
 2168ETH     HC19512   3.789   1.483   2.960 -0.9578  0.8200 -0.4140
 2169ETH     OH19513   2.244   0.898   1.303  0.4457  0.3048  0.2514
 2169ETH     CH19514   2.225   1.028   1.254 -0.1514 -0.0051 -0.3491
 2169ETH     CH19515   2.111   1.049   1.155 -0.2463 -0.0633 -0.2517
 2169ETH     HO19516   2.264   0.844   1.228 -0.1434  0.4955 -0.0403
 2169ETH     HC19517   2.213   1.086   1.346 -1.7632  0.0531 -0.5959
 2169ETH     HC19518   2.312   1.071   1.203  0.4985 -0.6314  0.2154
 2169ETH     HC19519   2.111   0.987   1.065 -3.3212 -0.0049 -0.3552
 2169ETH     HC19520   2.021   1.023   1.211 -0.9683  2.1621 -0.3344
 2169ETH     HC19521   2.085   1.153   1.134  0.8258  0.8809  2.9118
 2170ETH     OH19522   5.255   1.192   3.215 -0.9150 -0.3615  0.4280
 2170ETH     CH19523   5.161   1.295   3.237 -0.1644  0.4186 -0.0003
 2170ETH     CH19524   5.144   1.392   3.120 -0.6039  0.0015 -0.2836
 2170ETH     HO19525   5.223   1.126   3.156  1.4342  0.0174 -1.3367
 2170ETH     HC19526   5.070   1.244   3.267  0.6026 -0.1550  1.3875
 2170ETH     HC19527   5.197   1.358   3.318 -0.6940  0.3258  0.3067
 2170ETH     HC19528   5.057   1.452   3.146 -1.0152 -0.3345 -0.8586
 2170ETH     HC19529   5.223   1.455   3.079 -2.1665  2.7787  0.8192
 2170ETH     HC19530   5.111   1.322   3.043  0.1005 -1.5714  0.8347
 2171ETH     OH19531   6.093   3.827   1.591  0.1784 -0.1915 -0.5375
 2171ETH     CH19532   6.061   3.728   1.496  0.4857 -0.5950 -0.2218
 2171ETH     CH19533   6.055   3.779   1.352 -0.1000 -0.2569 -0.0779
 2171ETH     HO19534   6.102   3.787   1.676 -2.6838 -1.5724 -0.8514
 2171ETH     HC19535   6.132   3.647   1.513  1.0104 -0.7298 -2.8644
 2171ETH     HC19536   5.965   3.685   1.524  0.5697 -0.2964  0.5445
 2171ETH     HC19537   5.970   3.846   1.335 -2.4391 -2.4291  2.4161
 2171ETH     HC19538   6.143   3.838   1.327  0.9278 -1.1366  1.4196
 2171ETH     HC19539   6.054   3.697   1.280  1.7186  1.2756 -1.8910
 2172ETH     OH19540   2.695   2.546   0.630 -0.5051  0.0475  0.0484
 2172ETH     CH19541   2.557   2.562   0.608 -0.5176  0.3550  0.3409
 2172ETH     CH19542   2.503   2.419   0.610 -0.5510  0.3566 -0.2796
 2172ETH     HO19543   2.701   2.507   0.716  1.1245  2.3469  1.0226
 2172ETH     HC19544   2.504   2.618   0.685  0.9201  1.2863  0.6534
 2172ETH     HC19545   2.542   2.613   0.512  0.3075 -0.0908 -0.0265
 2172ETH     HC19546   2.536   2.378   0.515 -3.7671  1.9645 -2.2004
 2172ETH     HC19547   2.553   2.359   0.685  3.4509  0.2634 -2.8845
 2172ETH     HC19548   2.394   2.419   0.604 -0.6461  0.3586  1.2916
 2173ETH     OH19549   1.948   5.081   2.501  0.1891 -0.2914 -0.3769
 2173ETH     CH19550   1.977   5.213   2.459 -0.1140 -0.2604 -0.4906
 2173ETH     CH19551   2.071   5.216   2.338 -0.1757  0.7207 -0.5185
 2173ETH     HO19552   1.909   5.041   2.424  2.3471 -1.7480 -0.7491
 2173ETH     HC19553   1.885   5.269   2.443  0.4489  0.0854 -2.6859
 2173ETH     HC19554   2.031   5.274   2.530 -1.0555 -2.0859  1.8861
 2173ETH     HC19555   2.025   5.152   2.262  0.7380 -0.1414 -0.3523
 2173ETH     HC19556   2.085   5.319   2.308 -0.7565  0.8621 -0.3108
 2173ETH     HC19557   2.173   5.180   2.354 -0.5035 -0.5903 -1.2737
 2174ETH     OH19558   5.002   3.694   2.375  0.3899 -0.1918  0.2324
 2174ETH     CH19559   5.063   3.746   2.491  0.1579 -0.3339  0.4181
 2174ETH     CH19560   5.088   3.897   2.488  0.0623 -0.3310 -0.3051
 2174ETH     HO19561   5.065   3.629   2.346  0.7963 -0.0943  0.8937
 2174ETH     HC19562   4.991   3.731   2.572  0.8426 -2.6255  0.6120
 2174ETH     HC19563   5.157   3.693   2.500  0.9301  0.8828 -0.3124
 2174ETH     HC19564   5.009   3.961   2.447 -0.4341 -0.0314  1.0793
 2174ETH     HC19565   5.100   3.927   2.592 -0.9100  1.8378 -0.7714
 2174ETH     HC19566   5.186   3.908   2.441  0.2153 -1.8594 -0.3588
 2175ETH     OH19567   2.463   5.130   2.062 -0.1046  0.0866  0.4232
 2175ETH     CH19568   2.329   5.172   2.073 -0.0979  0.1707  0.1997
 2175ETH     CH19569   2.236   5.053   2.097  0.3748 -0.1617  0.3943
 2175ETH     HO19570   2.500   5.125   2.148 -0.5720 -0.2125  0.6071
 2175ETH     HC19571   2.306   5.235   2.159 -1.3687 -1.7580  1.3106
 2175ETH     HC19572   2.308   5.218   1.976 -3.6030 -0.4241  0.6192
 2175ETH     HC19573   2.268   4.963   2.044  3.0175  2.1018 -2.0656
 2175ETH     HC19574   2.241   5.021   2.201  0.6477  0.3225  0.5311
 2175ETH     HC19575   2.133   5.081   2.075  0.0404 -2.2021 -0.7949
 2176ETH     OH19576   4.803   2.135   2.908 -0.3187 -0.0493 -0.1568
 2176ETH     CH19577   4.927   2.099   2.852 -0.2312  0.0078  0.0023
 2176ETH     CH19578   4.907   1.957   2.798 -0.7018  0.1582 -0.2141
 2176ETH     HO19579   4.793   2.080   2.984  2.0328  0.7799  0.7798
 2176ETH     HC19580   4.962   2.162   2.770  0.8774 -0.4079  0.1459
 2176ETH     HC19581   5.010   2.107   2.923  0.1258  2.2507 -0.6300
 2176ETH     HC19582   4.888   1.893   2.884 -2.1386  1.7955  0.7380
 2176ETH     HC19583   4.814   1.949   2.742 -1.0120 -2.0261  0.5758
 2176ETH     HC19584   4.989   1.923   2.736  1.2203 -1.2022  2.9549
 2177ETH     OH19585   1.013   4.616   3.923  0.2872  0.2360  0.1562
 2177ETH     CH19586   1.059   4.538   4.031  0.2226 -0.0987 -0.0562
 2177ETH     CH19587   1.200   4.572   4.081  0.1806  0.8136 -0.5486
 2177ETH     HO19588   1.010   4.708   3.943  2.0012 -0.3765  3.6852
 2177ETH     HC19589   0.987   4.546   4.112  0.5475 -0.0012  0.2257
 2177ETH     HC19590   1.046   4.434   4.001 -1.4950 -0.1940  0.9830
 2177ETH     HC19591   1.236   4.506   4.160  1.8001  2.2045 -0.0862
 2177ETH     HC19592   1.276   4.588   4.004 -0.8863  1.2817 -1.5171
 2177ETH     HC19593   1.186   4.669   4.128  0.1223 -0.0329  1.2075
 2178ETH     OH19594   6.254   1.972   2.088  1.0285 -0.5212 -0.4114
 2178ETH     CH19595   6.374   1.958   2.161  0.3916 -0.7783  0.5927
 2178ETH     CH19596   6.484   1.928   2.059  0.2540  0.5262  0.0472
 2178ETH     HO19597   6.188   1.996   2.152  0.7353 -0.7854 -0.6109
 2178ETH     HC19598   6.394   2.053   2.210  1.5064 -0.6704 -0.0554
 2178ETH     HC19599   6.364   1.876   2.232  0.4891 -0.4244  1.0176
 2178ETH     HC19600   6.460   1.842   1.997 -0.8787 -0.4439  1.7722
 2178ETH     HC19601   6.504   2.007   1.988  0.5416 -0.0540 -0.5176
 2178ETH     HC19602   6.575   1.920   2.118  0.6559  0.6588 -0.5585
 2179ETH     OH19603   5.372   1.423   5.775  0.1931  0.6181  0.1174
 2179ETH     CH19604   5.411   1.385   5.645  0.0441  0.0632  0.2376
 2179ETH     CH19605   5.551   1.322   5.647 -0.2156 -0.5000  0.8187
 2179ETH     HO19606   5.374   1.347   5.830  3.4534  0.2765 -0.3474
 2179ETH     HC19607   5.333   1.323   5.599 -0.8363 -0.5686  2.5360
 2179ETH     HC19608   5.411   1.483   5.597  0.9663  0.8077  1.7191
 2179ETH     HC19609   5.550   1.229   5.704  0.0717 -1.5060 -0.8121
 2179ETH     HC19610   5.571   1.298   5.543 -1.1042  2.9020 -0.2217
 2179ETH     HC19611   5.633   1.388   5.676  0.1247 -0.0664 -1.1104
 2180ETH     OH19612   4.666   4.121   1.467  0.0483 -0.4182  0.7099
 2180ETH     CH19613   4.642   4.251   1.515  0.1047  0.0011 -0.3764
 2180ETH     CH19614   4.769   4.332   1.541  0.3189 -0.4403 -0.0427
 2180ETH     HO19615   4.590   4.065   1.454 -0.4748  0.5442 -0.4712
 2180ETH     HC19616   4.586   4.298   1.434  2.6466  0.7253 -1.7695
 2180ETH     HC19617   4.570   4.255   1.597  0.1877 -1.5783 -0.2142
 2180ETH     HC19618   4.742   4.420   1.600  0.6346 -0.3445 -0.0416
 2180ETH     HC19619   4.835   4.268   1.599  2.0217  0.1059 -1.3270
 2180ETH     HC19620   4.809   4.366   1.446 -2.3854 -0.7771 -1.3486
 2181ETH     OH19621   0.299   5.302   2.816  0.3762 -0.4370  0.2044
 2181ETH     CH19622   0.285   5.354   2.946 -0.2613 -0.3785  0.1163
 2181ETH     CH19623   0.341   5.257   3.050 -0.2595 -0.1379  0.3396
 2181ETH     HO19624   0.236   5.233   2.801  0.3973 -0.5854  0.8081
 2181ETH     HC19625   0.347   5.444   2.947  0.0440 -0.5555 -1.2950
 2181ETH     HC19626   0.180   5.372   2.967 -0.1447  0.5409 -0.0449
 2181ETH     HC19627   0.273   5.173   3.061 -3.0853  2.0345  0.0103
 2181ETH     HC19628   0.440   5.214   3.040 -0.1712  0.4656 -1.4869
 2181ETH     HC19629   0.347   5.305   3.148 -1.8652  0.6576  0.0622
 2182ETH     OH19630   2.246   4.661   1.419  0.3545 -0.0790 -0.0280
 2182ETH     CH19631   2.145   4.740   1.477  0.4145  0.1833 -0.2820
 2182ETH     CH19632   2.175   4.757   1.626 -0.0642  0.7456 -0.2486
 2182ETH     HO19633   2.317   4.723   1.416 -0.2302  0.6969  1.6643
 2182ETH     HC19634   2.145   4.828   1.414  0.1267  0.2905 -0.1331
 2182ETH     HC19635   2.047   4.693   1.467  1.1022 -1.1991 -0.6335
 2182ETH     HC19636   2.200   4.659   1.667  1.9057  1.3425  0.0020
 2182ETH     HC19637   2.243   4.840   1.639 -1.6000  2.4272 -2.6563
 2182ETH     HC19638   2.090   4.786   1.688  1.9724  1.2692  2.3594
 2183ETH     OH19639   2.823   3.930   5.279  0.1584 -0.6360  0.1565
 2183ETH     CH19640   2.914   3.962   5.176  0.1470 -0.3803  0.2274
 2183ETH     CH19641   2.999   4.075   5.233 -0.4214  0.2635 -0.1886
 2183ETH     HO19642   2.866   3.875   5.343  0.9324 -0.3304 -0.0928
 2183ETH     HC19643   2.970   3.871   5.160 -1.0870 -1.1433  0.1391
 2183ETH     HC19644   2.856   3.992   5.088 -0.1542  0.9428  0.8621
 2183ETH     HC19645   3.053   4.130   5.155  2.5318  1.3362  2.4791
 2183ETH     HC19646   2.934   4.146   5.284  1.3868  0.2339  2.2638
 2183ETH     HC19647   3.072   4.042   5.307  1.6509 -0.7805 -2.6482
 2184ETH     OH19648   3.604   1.245   3.722  0.0827 -0.0761  0.3168
 2184ETH     CH19649   3.508   1.164   3.658  0.0099 -0.1460  0.5135
 2184ETH     CH19650   3.406   1.113   3.760  0.0703 -0.2045  0.5444
 2184ETH     HO19651   3.672   1.247   3.657 -0.9975  1.3678 -0.8106
 2184ETH     HC19652   3.461   1.219   3.576  1.4361 -1.2474 -1.0677
 2184ETH     HC19653   3.557   1.081   3.608 -1.2156 -0.0653 -0.8551
 2184ETH     HC19654   3.447   1.056   3.844  0.6575  1.9069  1.7215
 2184ETH     HC19655   3.367   1.200   3.813  4.2686  1.5948  0.8968
 2184ETH     HC19656   3.324   1.076   3.699 -0.2200  1.2740  0.0037
 2185ETH     OH19657   3.822   0.424   0.305  0.3440  0.1016 -0.1807
 2185ETH     CH19658   3.819   0.547   0.237  0.2388 -0.0006 -0.3599
 2185ETH     CH19659   3.730   0.653   0.301  0.5317  0.0696 -0.0719
 2185ETH     HO19660   3.784   0.351   0.257  1.3095 -1.3661  1.2148
 2185ETH     HC19661   3.917   0.586   0.211 -0.3253  0.9742 -1.0266
 2185ETH     HC19662   3.778   0.527   0.137 -0.0795  1.8221 -0.5986
 2185ETH     HC19663   3.770   0.703   0.390  1.4456  0.8798 -0.9336
 2185ETH     HC19664   3.722   0.743   0.241  1.1945 -1.3966 -2.4217
 2185ETH     HC19665   3.629   0.620   0.327  0.6319  0.8011  1.3249
 2186ETH     OH19666   2.724   0.747   0.960 -0.7135  0.2735 -1.0092
 2186ETH     CH19667   2.838   0.827   0.980 -0.2865 -0.4522 -0.5490
 2186ETH     CH19668   2.960   0.738   0.954  0.2005 -0.0458  0.3280
 2186ETH     HO19669   2.717   0.677   1.023 -1.4615  1.2658  0.0221
 2186ETH     HC19670   2.835   0.917   0.920 -0.7226  0.4674  0.8342
 2186ETH     HC19671   2.848   0.863   1.083 -2.2186  1.3926 -0.9894
 2186ETH     HC19672   3.049   0.794   0.924  0.8449 -0.8667  0.6980
 2186ETH     HC19673   2.990   0.674   1.037  1.4973 -0.9560 -0.8080
 2186ETH     HC19674   2.930   0.664   0.880  1.3607  0.3531 -0.5551
 2187ETH     OH19675   5.072   6.233   0.800 -0.1265 -0.0151 -0.6197
 2187ETH     CH19676   5.027   6.132   0.713 -0.2507 -0.0469 -0.5200
 2187ETH     CH19677   4.875   6.113   0.701 -0.2342 -0.4605 -0.0534
 2187ETH     HO19678   5.024   6.209   0.878  0.0877  1.3746 -0.0379
 2187ETH     HC19679   5.063   6.149   0.611  1.8341 -0.8915  0.0502
 2187ETH     HC19680   5.077   6.040   0.740  2.3675  1.6477  0.6037
 2187ETH     HC19681   4.850   6.046   0.618  0.2763 -1.0292  0.2439
 2187ETH     HC19682   4.837   6.073   0.794 -0.3882  0.4737  0.2923
 2187ETH     HC19683   4.840   6.211   0.670  2.2988  0.6971  0.5841
 2188ETH     OH19684   4.279   4.709   0.199  0.6673  0.2886 -0.2704
 2188ETH     CH19685   4.272   4.739   0.336 -0.2880 -0.1339 -0.2218
 2188ETH     CH19686   4.339   4.876   0.354 -0.0170 -0.3514  0.4381
 2188ETH     HO19687   4.370   4.690   0.181  0.6176 -0.7209  0.5225
 2188ETH     HC19688   4.169   4.747   0.371  0.2929  1.3467  1.2189
 2188ETH     HC19689   4.316   4.659   0.395 -0.3528 -0.4103 -0.5504
 2188ETH     HC19690   4.296   4.941   0.278 -0.0432  0.4035  1.1011
 2188ETH     HC19691   4.332   4.919   0.454  2.0493 -1.1582  0.9493
 2188ETH     HC19692   4.445   4.869   0.327  0.0261  0.0535  0.5082
 2189ETH     OH19693   4.120   1.791   0.250 -0.5903  0.1226 -0.3162
 2189ETH     CH19694   4.001   1.769   0.321 -0.0873 -0.4918  0.3494
 2189ETH     CH19695   3.878   1.738   0.235 -0.1862 -0.2436  0.3987
 2189ETH     HO19696   4.185   1.829   0.308 -0.4863  1.1740 -1.1011
 2189ETH     HC19697   4.010   1.686   0.392 -1.5869 -0.8080  0.1917
 2189ETH     HC19698   3.985   1.858   0.383 -0.5884 -1.1689  1.2153
 2189ETH     HC19699   3.796   1.721   0.304  0.0622 -1.0616  0.5044
 2189ETH     HC19700   3.852   1.820   0.168 -1.8828 -0.9699  0.1531
 2189ETH     HC19701   3.887   1.644   0.181 -0.5095 -0.9172  1.4980
 2190ETH     OH19702   3.875   3.849   4.550  0.4932  0.0658 -0.9960
 2190ETH     CH19703   4.013   3.879   4.555  0.5400 -0.2748 -0.1393
 2190ETH     CH19704   4.035   4.028   4.532 -0.1548 -0.3277 -1.2270
 2190ETH     HO19705   3.828   3.883   4.625 -0.1990  0.4864 -1.6110
 2190ETH     HC19706   4.055   3.860   4.653  1.9517  2.0370 -0.2649
 2190ETH     HC19707   4.057   3.809   4.483  0.3408 -0.4378 -0.1058
 2190ETH     HC19708   4.009   4.065   4.433  2.9923  1.6934 -1.3854
 2190ETH     HC19709   3.978   4.087   4.604 -1.5859 -3.1606  0.0471
 2190ETH     HC19710   4.137   4.062   4.550 -0.4780  0.1131 -0.1367
 2191ETH     OH19711   6.160   5.891   5.214 -0.0048 -0.2773 -0.1562
 2191ETH     CH19712   6.118   5.788   5.127 -0.3718  0.0317 -0.3490
 2191ETH     CH19713   6.116   5.655   5.202 -0.7292 -0.0320 -0.4718
 2191ETH     HO19714   6.155   5.971   5.165 -2.4320 -0.2602  0.0369
 2191ETH     HC19715   6.018   5.809   5.091 -1.3795 -1.8059  1.2633
 2191ETH     HC19716   6.192   5.782   5.047  2.1580  1.6601  1.7427
 2191ETH     HC19717   6.093   5.571   5.136 -0.7842 -0.1998 -0.2437
 2191ETH     HC19718   6.214   5.626   5.240 -1.4824 -0.8687  0.8894
 2191ETH     HC19719   6.046   5.652   5.285  1.0497  0.2184  1.0730
 2192ETH     OH19720   2.183   5.817   2.956  0.5628 -0.4980 -0.1148
 2192ETH     CH19721   2.196   5.802   3.096 -0.1196  0.1539  0.0229
 2192ETH     CH19722   2.055   5.806   3.155 -0.1433 -0.4229  0.0080
 2192ETH     HO19723   2.226   5.746   2.910  0.5876 -0.7249  0.2579
 2192ETH     HC19724   2.241   5.708   3.126  1.8722  1.0661 -0.0772
 2192ETH     HC19725   2.266   5.879   3.127 -0.1155 -0.1147  0.6896
 2192ETH     HC19726   2.057   5.790   3.263  0.4618  0.1569  0.0865
 2192ETH     HC19727   2.007   5.901   3.134  0.1281 -0.5344 -1.1434
 2192ETH     HC19728   1.999   5.720   3.119  0.9274 -2.0048  1.9794
 2193ETH     OH19729   0.821   6.082   3.459  0.3700 -0.3052 -0.1656
 2193ETH     CH19730   0.840   5.965   3.535  0.4542 -0.0926  0.1422
 2193ETH     CH19731   0.875   5.992   3.681  0.4368  0.5514  0.0268
 2193ETH     HO19732   0.753   6.132   3.501 -1.8278 -2.2814 -1.2399
 2193ETH     HC19733   0.756   5.897   3.522  0.7531 -0.7639  1.5911
 2193ETH     HC19734   0.924   5.921   3.481 -0.4207 -1.3348 -0.2356
 2193ETH     HC19735   0.969   6.045   3.698  0.9295 -1.0155  2.4733
 2193ETH     HC19736   0.795   6.050   3.728 -0.3095  0.6636 -1.3658
 2193ETH     HC19737   0.886   5.898   3.734 -1.9141 -0.2501 -0.8799
 2194ETH     OH19738   2.314   1.763   3.978 -0.0682 -0.2605  0.2174
 2194ETH     CH19739   2.238   1.664   3.912 -0.3113 -0.0741  0.2132
 2194ETH     CH19740   2.326   1.540   3.895 -0.9542 -0.4481 -0.3806
 2194ETH     HO19741   2.290   1.847   3.940 -0.6727 -0.3029  0.4970
 2194ETH     HC19742   2.146   1.640   3.966 -1.2691  0.8075 -1.0130
 2194ETH     HC19743   2.210   1.702   3.814  1.3681 -0.1577 -0.3225
 2194ETH     HC19744   2.414   1.550   3.831 -0.1573 -2.4825  0.3525
 2194ETH     HC19745   2.366   1.504   3.990 -3.0117 -1.8121  0.0102
 2194ETH     HC19746   2.257   1.469   3.849  0.0661 -2.1334  0.6246
 2195ETH     OH19747   0.995   4.064   2.231 -0.2965 -0.1362  0.1790
 2195ETH     CH19748   0.893   3.967   2.246 -0.0279 -0.4308  0.0975
 2195ETH     CH19749   0.761   4.043   2.259 -0.2815 -0.8934  0.2210
 2195ETH     HO19750   0.962   4.142   2.189  0.9936  0.8563  0.9706
 2195ETH     HC19751   0.884   3.886   2.174  0.4604 -1.0413  0.7057
 2195ETH     HC19752   0.921   3.916   2.338  1.7996  1.7635  0.8161
 2195ETH     HC19753   0.770   4.125   2.331  2.8695 -2.5404  1.7934
 2195ETH     HC19754   0.731   4.079   2.161 -2.5548 -0.6793  0.9689
 2195ETH     HC19755   0.688   3.973   2.301 -0.6921 -0.4274  0.2891
 2196ETH     OH19756   4.703   5.172   2.429  0.0178  0.0139  0.5915
 2196ETH     CH19757   4.635   5.085   2.517 -0.4918 -0.3410 -0.1587
 2196ETH     CH19758   4.726   5.018   2.619  0.1010  0.0220 -0.4508
 2196ETH     HO19759   4.636   5.221   2.385  1.1560 -0.2127 -1.4207
 2196ETH     HC19760   4.566   5.139   2.582 -1.0185 -1.1274 -0.0514
 2196ETH     HC19761   4.580   5.011   2.459  0.8255 -0.5512 -1.1628
 2196ETH     HC19762   4.676   4.953   2.691  0.6588  0.3962  0.2838
 2196ETH     HC19763   4.817   4.977   2.574  0.1928  2.2518 -2.4076
 2196ETH     HC19764   4.770   5.092   2.686  0.1193 -1.6153  1.3883
 2197ETH     OH19765   1.414   3.548   4.425 -0.1847  0.0016  0.4085
 2197ETH     CH19766   1.438   3.556   4.286  1.2511 -0.6375  0.6184
 2197ETH     CH19767   1.427   3.703   4.245 -0.2028 -0.9167 -0.0189
 2197ETH     HO19768   1.322   3.565   4.438  0.2540  1.8078  1.2962
 2197ETH     HC19769   1.542   3.530   4.265  1.2148 -0.1682 -0.1749
 2197ETH     HC19770   1.379   3.485   4.229  1.0935  1.1444 -1.5049
 2197ETH     HC19771   1.415   3.713   4.137 -0.6832 -0.8054  0.0439
 2197ETH     HC19772   1.339   3.758   4.275  0.2371  0.0246 -0.4142
 2197ETH     HC19773   1.516   3.756   4.279  0.3710 -1.4282 -0.7051
 2198ETH     OH19774   1.357   0.851   0.761  0.4910  0.1130 -0.6141
 2198ETH     CH19775   1.308   0.963   0.689 -0.9778 -0.2678 -0.2360
 2198ETH     CH19776   1.157   0.963   0.711 -0.8635  0.3910  0.5776
 2198ETH     HO19777   1.287   0.797   0.795  1.6502  0.9218  3.3190
 2198ETH     HC19778   1.356   1.055   0.721 -0.5332 -0.1199 -1.3060
 2198ETH     HC19779   1.348   0.952   0.588 -1.7215  2.1213 -0.8160
 2198ETH     HC19780   1.117   0.962   0.812  0.0343  0.0488  0.9329
 2198ETH     HC19781   1.113   1.054   0.671 -1.4908 -0.9309 -1.8529
 2198ETH     HC19782   1.110   0.875   0.666 -0.2131  1.1702 -1.7176
 2199ETH     OH19783   5.356   6.099   5.548  0.2298 -0.1497  0.1057
 2199ETH     CH19784   5.385   5.963   5.570  0.7225 -0.0635 -0.0093
 2199ETH     CH19785   5.372   5.884   5.439  0.2647  0.4658 -0.2853
 2199ETH     HO19786   5.271   6.118   5.511 -0.1960 -1.5695  0.3444
 2199ETH     HC19787   5.488   5.960   5.606  0.4183 -0.9259  0.8165
 2199ETH     HC19788   5.322   5.927   5.651  0.4277 -0.1535 -0.2772
 2199ETH     HC19789   5.437   5.916   5.357  0.1800 -0.0101 -0.5438
 2199ETH     HC19790   5.417   5.788   5.466 -0.8235 -0.2279 -0.9183
 2199ETH     HC19791   5.272   5.850   5.413  2.0564 -3.3122 -2.5692
 2200ETH     OH19792   0.860   3.088   2.510  0.3120 -0.0745  0.7879
 2200ETH     CH19793   0.827   2.959   2.557 -0.9749 -0.0144  0.0581
 2200ETH     CH19794   0.822   2.859   2.441  0.2654 -0.2625  0.2221
 2200ETH     HO19795   0.853   3.148   2.582 -2.0976  0.5676  0.0618
 2200ETH     HC19796   0.911   2.935   2.622  0.8061  1.2620 -1.7206
 2200ETH     HC19797   0.737   2.958   2.619 -1.2629 -1.0315 -0.3679
 2200ETH     HC19798   0.730   2.874   2.386 -0.6378 -1.1652  1.4453
 2200ETH     HC19799   0.902   2.855   2.367  1.2554 -2.8592  1.3362
 2200ETH     HC19800   0.805   2.754   2.468  0.7927 -0.3574  0.1942
 2201ETH     OH19801   5.595   4.455   5.033 -0.1699  0.2880 -0.0872
 2201ETH     CH19802   5.653   4.328   5.049  0.2444  0.4226 -0.5030
 2201ETH     CH19803   5.571   4.223   4.974  0.0600  0.3113 -0.1493
 2201ETH     HO19804   5.666   4.517   5.037 -0.0212  0.2252 -1.4997
 2201ETH     HC19805   5.751   4.320   5.001  0.2306 -1.7550 -0.2318
 2201ETH     HC19806   5.667   4.312   5.156  0.9812  2.2647 -0.3026
 2201ETH     HC19807   5.599   4.124   5.010 -0.9998  0.4098  0.9624
 2201ETH     HC19808   5.464   4.237   4.988  0.0796  1.0904 -0.7260
 2201ETH     HC19809   5.580   4.233   4.865  0.8846  2.9134  0.1413
 2202ETH     OH19810   1.789   2.811   3.572  0.0727 -0.1580  0.4940
 2202ETH     CH19811   1.810   2.751   3.698  0.5891 -1.1332 -0.0540
 2202ETH     CH19812   1.919   2.829   3.772  0.0820 -0.1860 -0.2992
 2202ETH     HO19813   1.766   2.739   3.516 -1.0495  0.4142  0.1902
 2202ETH     HC19814   1.720   2.746   3.760  0.3312 -2.8742 -0.5417
 2202ETH     HC19815   1.844   2.650   3.676 -1.6321 -1.6210 -1.3849
 2202ETH     HC19816   1.887   2.927   3.808 -0.4218 -0.3159 -0.3870
 2202ETH     HC19817   1.971   2.762   3.840 -1.1538 -2.4644 -1.5604
 2202ETH     HC19818   2.005   2.852   3.709  2.4429 -1.8742  2.1775
 2203ETH     OH19819   0.562   3.504   1.792  0.4666  0.0025  0.2297
 2203ETH     CH19820   0.577   3.376   1.849 -0.1796 -0.1239  0.1221
 2203ETH     CH19821   0.716   3.320   1.818  0.0559  0.3487  0.3151
 2203ETH     HO19822   0.610   3.560   1.852  0.0563 -1.0743  1.5845
 2203ETH     HC19823   0.563   3.386   1.957  0.2967 -1.6013  0.3232
 2203ETH     HC19824   0.497   3.309   1.820 -0.8694  1.0627 -0.7871
 2203ETH     HC19825   0.741   3.333   1.713 -0.0011  3.0267  0.5977
 2203ETH     HC19826   0.797   3.366   1.875  0.2930 -1.1134  1.1762
 2203ETH     HC19827   0.707   3.216   1.847  0.2023  0.3797  0.4698
 2204ETH     OH19828   3.926   1.329   4.903  0.3456 -0.1990  0.1524
 2204ETH     CH19829   3.812   1.345   4.984  0.3172  0.0374  0.0640
 2204ETH     CH19830   3.762   1.205   5.020  0.6759 -0.0052  0.3911
 2204ETH     HO19831   3.997   1.323   4.966 -1.2546 -0.2092  2.0206
 2204ETH     HC19832   3.841   1.393   5.078 -0.2034  1.2508 -0.3744
 2204ETH     HC19833   3.735   1.399   4.927 -1.2675 -0.9229  1.2384
 2204ETH     HC19834   3.684   1.197   5.095 -0.0660  1.4292 -0.2020
 2204ETH     HC19835   3.734   1.159   4.925  3.0768  0.4867 -0.6055
 2204ETH     HC19836   3.843   1.148   5.066  0.5714  1.4393  2.4480
 2205ETH     OH19837   2.324   6.279   2.205 -0.4357 -0.5147 -0.1400
 2205ETH     CH19838   2.416   6.222   2.114  0.1054  0.0545  0.0435
 2205ETH     CH19839   2.501   6.117   2.185 -0.6858 -0.4185  0.2958
 2205ETH     HO19840   2.254   6.219   2.224  1.1507 -2.3478  0.0530
 2205ETH     HC19841   2.366   6.174   2.030  1.7162  0.2369 -1.0287
 2205ETH     HC19842   2.471   6.301   2.064  1.2779  0.5332  2.0368
 2205ETH     HC19843   2.550   6.170   2.266 -0.9769 -0.2636  0.3714
 2205ETH     HC19844   2.433   6.047   2.235 -1.2977 -0.8641 -1.1258
 2205ETH     HC19845   2.570   6.063   2.121 -0.3809  0.8163 -0.4244
 2206ETH     OH19846   0.601   2.374   2.487  0.3116  0.0750 -0.7093
 2206ETH     CH19847   0.650   2.503   2.457  0.0165  0.3242 -0.1221
 2206ETH     CH19848   0.596   2.541   2.319  0.2298  0.2980 -0.2123
 2206ETH     HO19849   0.645   2.351   2.568  0.6879 -0.2155 -0.9978
 2206ETH     HC19850   0.608   2.570   2.532  1.1094  1.6038 -0.6499
 2206ETH     HC19851   0.759   2.501   2.464  0.0552  1.0082 -0.5164
 2206ETH     HC19852   0.489   2.552   2.337 -0.2647 -4.5728  0.5605
 2206ETH     HC19853   0.646   2.631   2.284  0.4991 -0.9335 -3.1408
 2206ETH     HC19854   0.613   2.464   2.244 -0.1925 -2.1915  2.1635
 2207ETH     OH19855   1.358   6.226   2.306 -0.3933 -0.7248 -0.7571
 2207ETH     CH19856   1.352   6.307   2.420 -0.0781 -0.4928 -0.9037
 2207ETH     CH19857   1.470   6.285   2.515 -0.1096  0.0121 -0.7452
 2207ETH     HO19858   1.424   6.265   2.251 -0.7960  1.8248  0.5121
 2207ETH     HC19859   1.348   6.412   2.389 -1.5122 -0.8707 -1.9999
 2207ETH     HC19860   1.260   6.298   2.478  0.0660 -1.6519 -0.8514
 2207ETH     HC19861   1.474   6.184   2.555 -2.2324  0.5539  0.9294
 2207ETH     HC19862   1.565   6.313   2.469 -1.4462  2.4297 -2.1579
 2207ETH     HC19863   1.449   6.330   2.612  0.3298  0.2411 -0.7524
 2208ETH     OH19864   0.924   1.966   4.979  0.1696 -0.0284 -0.3409
 2208ETH     CH19865   1.010   2.061   5.038 -0.0074 -0.2217  0.2309
 2208ETH     CH19866   0.985   2.198   4.974  0.5093 -0.2145  0.0373
 2208ETH     HO19867   0.977   1.888   4.980  1.2575  0.6012 -3.2564
 2208ETH     HC19868   0.999   2.062   5.146  0.6001 -0.5660  0.3021
 2208ETH     HC19869   1.112   2.030   5.014  0.1900 -1.0309  2.0302
 2208ETH     HC19870   1.063   2.262   5.016 -0.4872  1.0972 -0.1078
 2208ETH     HC19871   0.995   2.192   4.866  1.1727 -0.8488  0.1272
 2208ETH     HC19872   0.888   2.242   4.996 -0.0086 -1.8564  1.1038
 2209ETH     OH19873   4.056   1.271   0.246  0.6293  0.3662  0.0044
 2209ETH     CH19874   3.974   1.380   0.283 -0.2427 -0.0617 -0.6510
 2209ETH     CH19875   3.826   1.363   0.251 -0.0125 -0.8055 -1.3349
 2209ETH     HO19876   4.146   1.298   0.234  0.6186  2.0462  3.0809
 2209ETH     HC19877   3.999   1.403   0.387 -1.3592  0.2149 -0.4457
 2209ETH     HC19878   4.016   1.474   0.247 -0.3749 -0.1355 -0.9982
 2209ETH     HC19879   3.810   1.316   0.154  1.8981  1.4604 -2.7951
 2209ETH     HC19880   3.786   1.290   0.322 -1.3313 -0.0215 -1.2632
 2209ETH     HC19881   3.772   1.457   0.261  0.2143 -0.8862  1.0144
 2210ETH     OH19882   4.022   2.893   1.276 -0.1235  0.0773 -0.2581
 2210ETH     CH19883   4.019   2.963   1.154  0.1937 -0.0723 -0.3525
 2210ETH     CH19884   4.079   2.876   1.043  0.4024 -0.0875 -0.2273
 2210ETH     HO19885   3.977   2.811   1.264  0.5946 -0.1119 -1.8249
 2210ETH     HC19886   3.915   2.986   1.132 -0.1056  1.2755  2.3494
 2210ETH     HC19887   4.079   3.054   1.160 -1.8859  1.2454  1.0459
 2210ETH     HC19888   4.186   2.865   1.062  1.0076 -0.2364 -3.5068
 2210ETH     HC19889   4.031   2.779   1.033  0.8585 -0.4587  1.0546
 2210ETH     HC19890   4.062   2.928   0.949  0.2834 -1.6113 -1.0521
 2211ETH     OH19891   1.963   0.688   4.043 -0.3589 -0.0349  0.0599
 2211ETH     CH19892   2.045   0.646   4.150  0.0455 -0.1511 -0.2972
 2211ETH     CH19893   1.968   0.602   4.274 -0.0211 -0.2175 -0.3607
 2211ETH     HO19894   2.018   0.743   3.990 -0.4828 -0.0003 -0.0320
 2211ETH     HC19895   2.115   0.572   4.111 -0.7558 -1.3453  0.4880
 2211ETH     HC19896   2.100   0.736   4.178  0.2092 -1.0227  2.3155
 2211ETH     HC19897   2.030   0.603   4.364  0.3719 -0.1736 -0.6317
 2211ETH     HC19898   1.878   0.655   4.307  0.4544 -0.6771  1.7935
 2211ETH     HC19899   1.934   0.499   4.271 -0.3219 -0.2873  2.9905
 2212ETH     OH19900   4.003   1.539   4.685  0.2082  0.2279 -0.3382
 2212ETH     CH19901   4.018   1.612   4.805 -0.0692 -0.1186 -0.0942
 2212ETH     CH19902   4.053   1.756   4.768  0.1035  0.0356  0.6558
 2212ETH     HO19903   3.971   1.455   4.712  1.1675  0.1682  0.6712
 2212ETH     HC19904   3.934   1.614   4.874  1.0546 -0.1267  1.2943
 2212ETH     HC19905   4.106   1.572   4.857 -0.9831 -0.5372  1.1624
 2212ETH     HC19906   3.967   1.816   4.737 -0.7267 -2.0093 -1.1973
 2212ETH     HC19907   4.102   1.792   4.858 -0.6833  1.2045  0.6320
 2212ETH     HC19908   4.123   1.761   4.685 -0.3521 -0.4920  0.2317
 2213ETH     OH19909   2.909   2.748   0.646  0.2077 -0.4856  0.0500
 2213ETH     CH19910   2.990   2.741   0.762  0.5894  0.0813 -0.1789
 2213ETH     CH19911   3.104   2.641   0.745  0.4586 -0.0369 -0.3594
 2213ETH     HO19912   2.840   2.684   0.649  0.5184 -1.0201 -2.9084
 2213ETH     HC19913   3.029   2.843   0.771 -0.9396  0.6821 -0.1356
 2213ETH     HC19914   2.927   2.715   0.847  0.0844  0.3998 -0.4495
 2213ETH     HC19915   3.149   2.603   0.837 -1.1126 -0.5509  0.2067
 2213ETH     HC19916   3.067   2.547   0.704 -0.2613  0.1271 -0.0893
 2213ETH     HC19917   3.176   2.676   0.671 -0.4173  0.1634 -1.1220
 2214ETH     OH19918   4.591   1.049   2.336  0.5993  0.2311  0.3842
 2214ETH     CH19919   4.498   1.140   2.391 -0.2662 -0.1275 -0.4608
 2214ETH     CH19920   4.354   1.092   2.380 -0.1797 -0.4124 -0.3601
 2214ETH     HO19921   4.681   1.077   2.335  1.1988 -1.6401 -1.2331
 2214ETH     HC19922   4.530   1.151   2.495  1.3035 -0.4426 -0.8879
 2214ETH     HC19923   4.510   1.236   2.340  1.9915  0.8706  1.8318
 2214ETH     HC19924   4.323   1.015   2.450  0.8002 -0.8682 -0.4241
 2214ETH     HC19925   4.289   1.178   2.398 -0.0842 -0.7647  1.7854
 2214ETH     HC19926   4.333   1.053   2.280 -0.4114  0.7766 -0.7805
 2215ETH     OH19927   4.049   2.510   3.793  0.5161  0.4650  1.1341
 2215ETH     CH19928   4.161   2.558   3.721 -0.2450  0.1981 -0.2426
 2215ETH     CH19929   4.111   2.675   3.636  0.1597  0.5278 -0.0275
 2215ETH     HO19930   3.983   2.466   3.742  0.2645  1.5702  0.4971
 2215ETH     HC19931   4.233   2.591   3.795  1.8112  0.0334 -2.1230
 2215ETH     HC19932   4.207   2.478   3.663  2.8437  1.3827  0.4795
 2215ETH     HC19933   4.188   2.716   3.572  0.7833 -2.5791 -1.3562
 2215ETH     HC19934   4.027   2.646   3.573  1.0741  0.1917 -1.0957
 2215ETH     HC19935   4.068   2.753   3.699 -1.3876 -1.1160  1.0111
 2216ETH     OH19936   2.864   2.352   4.803  0.2631 -0.3333  0.4459
 2216ETH     CH19937   2.742   2.321   4.865  0.0591  0.4024  0.4247
 2216ETH     CH19938   2.757   2.188   4.940  1.4766  0.4499  0.2328
 2216ETH     HO19939   2.852   2.392   4.718  0.2211 -0.1125  0.5558
 2216ETH     HC19940   2.706   2.394   4.936 -2.3379 -0.5803  0.2842
 2216ETH     HC19941   2.668   2.313   4.785 -0.1961  0.2292  0.6777
 2216ETH     HC19942   2.811   2.208   5.032  2.9158  2.0428 -0.9077
 2216ETH     HC19943   2.662   2.140   4.962  1.8662 -0.4549 -0.0533
 2216ETH     HC19944   2.807   2.122   4.869 -0.6474 -0.8073 -0.1308
 2217ETH     OH19945   3.171   6.015   2.001 -0.4410  0.2843 -0.3626
 2217ETH     CH19946   3.273   6.085   2.068 -0.0689  0.0339 -0.6641
 2217ETH     CH19947   3.414   6.031   2.046  0.0774  0.0854  0.1428
 2217ETH     HO19948   3.086   6.044   2.029  0.2596  1.0196  1.0668
 2217ETH     HC19949   3.274   6.191   2.039  0.8550  0.5840  1.2855
 2217ETH     HC19950   3.247   6.088   2.174 -0.6036  2.1572 -0.8197
 2217ETH     HC19951   3.412   5.922   2.048  1.5771  0.0202 -0.7858
 2217ETH     HC19952   3.429   6.054   1.941  0.4650 -0.1833  0.1394
 2217ETH     HC19953   3.497   6.069   2.106  1.2213 -1.0666 -0.6861
 2218ETH     OH19954   4.060   5.849   5.657  0.3383 -0.4265  0.4155
 2218ETH     CH19955   4.144   5.911   5.562  0.1222 -0.3692  0.2636
 2218ETH     CH19956   4.181   6.041   5.633  0.4324 -0.3050 -0.0164
 2218ETH     HO19957   3.981   5.831   5.610 -0.4529  1.3980  1.0177
 2218ETH     HC19958   4.231   5.847   5.544 -0.4229 -1.2907  0.8366
 2218ETH     HC19959   4.078   5.919   5.475 -0.4413  0.3135  0.7493
 2218ETH     HC19960   4.248   6.100   5.570  1.3382 -2.3262 -1.0129
 2218ETH     HC19961   4.092   6.103   5.645  0.5927 -0.1839  0.5235
 2218ETH     HC19962   4.225   6.013   5.729  2.3436 -0.6609 -0.9707
 2219ETH     OH19963   1.258   2.079   0.177 -0.1323  0.0299  0.5063
 2219ETH     CH19964   1.290   2.123   0.047 -0.3778  0.1301  0.4786
 2219ETH     CH19965   1.178   2.086  -0.051  0.0322  0.2086 -0.0247
 2219ETH     HO19966   1.335   2.105   0.226 -0.4228  0.6162  0.6593
 2219ETH     HC19967   1.310   2.230   0.039 -0.1122  0.1759  1.6967
 2219ETH     HC19968   1.382   2.073   0.017  0.2299  0.5327  1.6564
 2219ETH     HC19969   1.090   2.140  -0.017  0.2490  0.7811 -0.3646
 2219ETH     HC19970   1.198   2.119  -0.153 -0.0265 -2.0137 -0.7863
 2219ETH     HC19971   1.151   1.980  -0.047  0.1999  0.1511 -0.3991
 2220ETH     OH19972   3.122   1.268   0.789  0.4218  0.5758  0.5295
 2220ETH     CH19973   3.104   1.173   0.687  0.2687  0.0321  1.0624
 2220ETH     CH19974   3.103   1.032   0.747 -0.6558 -0.2697  0.3627
 2220ETH     HO19975   3.210   1.272   0.821  1.1084 -0.0388 -1.2317
 2220ETH     HC19976   3.023   1.202   0.619  1.5537  0.5057 -0.2917
 2220ETH     HC19977   3.193   1.181   0.625  0.6583  0.0916  1.6291
 2220ETH     HC19978   3.005   1.006   0.786  0.2417 -0.1469  2.7559
 2220ETH     HC19979   3.120   0.969   0.660 -1.2254  1.7961 -1.2973
 2220ETH     HC19980   3.186   1.015   0.816 -1.8929  0.3152  2.0193
 2221ETH     OH19981   0.228   4.988   5.063 -0.3465  0.1247  0.4087
 2221ETH     CH19982   0.252   4.998   5.202  0.1730 -0.7401  0.3914
 2221ETH     CH19983   0.119   4.984   5.276 -0.1969  0.7846  0.0304
 2221ETH     HO19984   0.310   4.955   5.029 -0.6185 -0.1519  0.0263
 2221ETH     HC19985   0.322   4.916   5.217 -0.1956 -0.9833  0.8264
 2221ETH     HC19986   0.308   5.091   5.214 -0.8860  0.2465 -1.9816
 2221ETH     HC19987   0.082   4.882   5.277  0.2038  0.5882 -2.9989
 2221ETH     HC19988   0.153   4.995   5.379  0.0906  0.8669 -0.0750
 2221ETH     HC19989   0.039   5.053   5.246  1.3433  2.9500  0.7527
 2222ETH     OH19990   6.070   2.156   5.582 -0.0433  0.1066  0.4715
 2222ETH     CH19991   6.168   2.230   5.512 -0.2119 -0.1211 -0.0087
 2222ETH     CH19992   6.115   2.326   5.406  0.0948  0.0913  0.0331
 2222ETH     HO19993   6.045   2.087   5.522  0.2207  0.4211 -0.0009
 2222ETH     HC19994   6.228   2.287   5.583  0.3738  1.1387 -1.4811
 2222ETH     HC19995   6.212   2.149   5.455 -1.0689  0.5475 -1.6454
 2222ETH     HC19996   6.190   2.396   5.367  4.0937 -2.3388  3.0388
 2222ETH     HC19997   6.059   2.274   5.328 -1.1934  0.4155  0.7266
 2222ETH     HC19998   6.039   2.391   5.450  0.5846  0.4595  0.3373
 2223ETH     OH19999   3.667   0.153   5.166  0.3559  0.4024 -0.0759
 2223ETH     CH20000   3.662   0.254   5.264  0.1748  0.5209 -0.2081
 2223ETH     CH20001   3.572   0.219   5.382  0.1303 -0.1634 -0.4389
 2223ETH     HO20002   3.724   0.180   5.096 -0.7785 -1.2112 -1.7024
 2223ETH     HC20003   3.765   0.277   5.288  1.0582 -1.0880 -2.3294
 2223ETH     HC20004   3.631   0.341   5.206 -1.3529  1.2981  1.7291
 2223ETH     HC20005   3.475   0.182   5.349  1.4715 -0.9344 -3.7124
 2223ETH     HC20006   3.629   0.152   5.446 -0.0194 -0.4924 -0.6517
 2223ETH     HC20007   3.568   0.301   5.454 -0.4458 -0.4000 -0.1956
 2224ETH     OH20008   0.368   4.722   0.841  0.0196 -0.1840  0.2648
 2224ETH     CH20009   0.385   4.680   0.707  0.1390  0.6076  0.0324
 2224ETH     CH20010   0.295   4.764   0.616 -0.1638  0.4424  0.1786
 2224ETH     HO20011   0.315   4.656   0.884 -1.0473 -0.7984 -1.9296
 2224ETH     HC20012   0.488   4.680   0.670  0.5369  2.7970  1.0324
 2224ETH     HC20013   0.367   4.573   0.705  0.7448  0.5212 -1.3507
 2224ETH     HC20014   0.203   4.808   0.653 -1.4401 -1.7696 -0.2384
 2224ETH     HC20015   0.361   4.841   0.577 -0.1379 -0.7142 -2.1891
 2224ETH     HC20016   0.271   4.702   0.529  1.5383  2.3960 -1.7515
 2225ETH     OH20017   5.959   1.119   2.822 -0.1295  0.2211  0.6530
 2225ETH     CH20018   6.001   1.126   2.956  0.0492  0.0233  0.6092
 2225ETH     CH20019   6.133   1.203   2.959 -0.1217  0.3457 -0.0854
 2225ETH     HO20020   6.009   1.052   2.777 -1.3614 -1.1033  1.2393
 2225ETH     HC20021   5.933   1.182   3.021  1.1879  0.9471  1.0136
 2225ETH     HC20022   6.015   1.025   2.996  0.3426 -0.1367  0.1001
 2225ETH     HC20023   6.162   1.204   3.064 -0.3525  0.2320 -0.0203
 2225ETH     HC20024   6.215   1.156   2.904 -1.5669 -3.8824  1.1449
 2225ETH     HC20025   6.119   1.309   2.936 -0.3917  0.6243  1.3445
 2226ETH     OH20026   4.867   3.631   5.607 -0.0537 -0.4267 -0.2570
 2226ETH     CH20027   5.000   3.614   5.650 -0.0214  0.4261  0.0056
 2226ETH     CH20028   5.054   3.503   5.559  0.1556  0.2520  0.3188
 2226ETH     HO20029   4.876   3.705   5.549 -4.1794 -0.1581 -0.7169
 2226ETH     HC20030   5.057   3.707   5.651  0.8447 -0.0985  0.0140
 2226ETH     HC20031   5.002   3.581   5.754  2.7799 -0.0511 -0.1584
 2226ETH     HC20032   5.155   3.473   5.588  0.6269 -1.2012 -2.6136
 2226ETH     HC20033   4.994   3.412   5.567  0.6364 -0.0164  0.8914
 2226ETH     HC20034   5.059   3.538   5.456 -0.8849  0.7284  0.4213
 2227ETH     OH20035   4.302   1.226   4.007 -0.2705 -0.2094 -0.1748
 2227ETH     CH20036   4.215   1.144   4.081  0.3168 -0.3726  0.3360
 2227ETH     CH20037   4.130   1.227   4.177  0.6692  0.0255  0.3047
 2227ETH     HO20038   4.267   1.288   3.945  3.7653  1.0152 -1.4028
 2227ETH     HC20039   4.148   1.083   4.020 -0.7101 -0.0344  1.1156
 2227ETH     HC20040   4.272   1.067   4.134  1.0076  0.9962  1.6099
 2227ETH     HC20041   4.074   1.151   4.232 -0.5065  1.5408  1.2339
 2227ETH     HC20042   4.176   1.290   4.253  2.0319  0.7132 -1.0569
 2227ETH     HC20043   4.070   1.300   4.124  2.2038  0.8827 -0.2715
 2228ETH     OH20044   4.797   3.201   5.733  0.4475 -0.0853 -0.4304
 2228ETH     CH20045   4.685   3.116   5.729  0.3459  0.0265 -0.0489
 2228ETH     CH20046   4.680   3.016   5.845 -0.2076 -0.0020 -0.0927
 2228ETH     HO20047   4.766   3.280   5.692  0.7114  1.3909  2.0927
 2228ETH     HC20048   4.604   3.189   5.733  1.1604  0.9930 -0.9961
 2228ETH     HC20049   4.683   3.071   5.630  4.6477 -0.3331 -0.0710
 2228ETH     HC20050   4.729   3.067   5.929 -0.3492  0.0088 -0.0172
 2228ETH     HC20051   4.582   2.984   5.879  0.3324  0.2485  1.7613
 2228ETH     HC20052   4.740   2.926   5.837  1.7953  1.2900 -0.0167
 2229ETH     OH20053   3.049   0.438   6.096  0.4259  0.7698 -0.3096
 2229ETH     CH20054   3.114   0.387   5.982 -0.1722  0.5754 -0.5612
 2229ETH     CH20055   3.242   0.470   5.969  0.3045 -0.1084 -0.2268
 2229ETH     HO20056   2.982   0.378   6.122 -0.4169  1.6205 -0.4974
 2229ETH     HC20057   3.134   0.282   6.002  0.1586  1.2199  2.7474
 2229ETH     HC20058   3.053   0.406   5.893 -1.7987 -1.6237  0.0363
 2229ETH     HC20059   3.315   0.445   6.046  0.8387 -3.4066 -1.6978
 2229ETH     HC20060   3.285   0.445   5.872  1.2002 -3.6875  1.0081
 2229ETH     HC20061   3.216   0.575   5.974  0.0567 -0.2493  1.8538
 2230ETH     OH20062   3.477   1.957   4.521 -0.7290  0.7742 -0.0441
 2230ETH     CH20063   3.488   2.055   4.621 -0.5203  0.3805  0.3196
 2230ETH     CH20064   3.632   2.043   4.669 -0.2944  0.1829 -0.4023
 2230ETH     HO20065   3.546   1.978   4.459 -1.1948  0.5012 -0.6684
 2230ETH     HC20066   3.465   2.156   4.587 -1.0453 -0.0613 -0.6698
 2230ETH     HC20067   3.411   2.027   4.693  1.5115 -0.7626  2.1091
 2230ETH     HC20068   3.660   1.940   4.695 -0.8738  0.2224  0.4023
 2230ETH     HC20069   3.704   2.088   4.601  1.0582  1.0728  1.5762
 2230ETH     HC20070   3.646   2.096   4.763 -1.3456 -0.9992  0.4416
 2231ETH     OH20071   1.792   5.062   3.265 -0.0329  0.0497 -0.2530
 2231ETH     CH20072   1.890   5.014   3.354  0.0899  0.4754 -0.1603
 2231ETH     CH20073   2.024   5.012   3.281 -0.0650 -0.2301 -0.4314
 2231ETH     HO20074   1.805   5.013   3.185  0.9754 -1.8508  1.0327
 2231ETH     HC20075   1.905   5.088   3.433  3.5783  2.1254 -2.2667
 2231ETH     HC20076   1.869   4.914   3.393  0.8053  0.5567  0.4456
 2231ETH     HC20077   2.040   5.085   3.202 -0.4483 -0.1454 -0.4287
 2231ETH     HC20078   2.102   5.015   3.358  0.7551  0.8359 -1.2915
 2231ETH     HC20079   2.045   4.916   3.235  2.4449  0.2797 -0.4319
 2232ETH     OH20080   1.929   3.202   2.201  0.2450 -0.5488 -0.1219
 2232ETH     CH20081   1.792   3.216   2.229  0.4222 -0.0559  0.4913
 2232ETH     CH20082   1.752   3.095   2.313  0.2547 -0.3344  0.0118
 2232ETH     HO20083   1.980   3.227   2.276  1.6669  1.8423 -1.8089
 2232ETH     HC20084   1.786   3.303   2.294  0.8324  1.7925 -1.8824
 2232ETH     HC20085   1.727   3.214   2.142 -0.5377  0.6668  1.1723
 2232ETH     HC20086   1.822   3.072   2.394 -0.7798  1.2672  1.4066
 2232ETH     HC20087   1.648   3.088   2.346 -0.1982 -0.2218 -1.3596
 2232ETH     HC20088   1.751   3.005   2.252  1.0453  0.8746 -1.7939
 2233ETH     OH20089   2.355   2.701   5.564 -0.1866 -0.2973 -0.7563
 2233ETH     CH20090   2.483   2.694   5.507  0.1766 -0.3930  0.0643
 2233ETH     CH20091   2.511   2.559   5.440  0.3612 -0.2353 -0.1766
 2233ETH     HO20092   2.329   2.792   5.565 -1.6434 -0.6948 -0.4762
 2233ETH     HC20093   2.495   2.777   5.437  3.0945  1.5544  2.7321
 2233ETH     HC20094   2.558   2.717   5.583  2.7649  0.7119 -2.7355
 2233ETH     HC20095   2.439   2.538   5.361  0.5340 -0.9714 -0.1412
 2233ETH     HC20096   2.609   2.578   5.397  1.1792 -0.7858  1.4234
 2233ETH     HC20097   2.516   2.473   5.506  0.1742  1.1207  1.6309
 2234ETH     OH20098   3.911   4.885   1.128  0.0403  0.4580  0.3926
 2234ETH     CH20099   3.829   4.847   1.020  0.4669  0.3958  0.0932
 2234ETH     CH20100   3.906   4.744   0.936  0.1840  0.1585  0.1264
 2234ETH     HO20101   3.917   4.810   1.185  0.1684 -1.6906 -2.3435
 2234ETH     HC20102   3.735   4.810   1.061  1.5198 -1.6543  0.7253
 2234ETH     HC20103   3.807   4.928   0.951  1.2323 -0.6383 -1.4211
 2234ETH     HC20104   3.915   4.642   0.973  0.0937 -0.8178 -2.4259
 2234ETH     HC20105   3.862   4.726   0.838  4.2233  0.1127 -1.7852
 2234ETH     HC20106   4.011   4.770   0.924  0.3136 -0.1106  0.7069
 2235ETH     OH20107   3.143   2.697   4.873  0.1229  0.6837 -0.0724
 2235ETH     CH20108   3.121   2.662   4.738  0.3112  0.3560 -0.0211
 2235ETH     CH20109   3.257   2.673   4.669  0.6761 -0.4967  0.5688
 2235ETH     HO20110   3.166   2.617   4.918 -2.7177  0.3127  0.7904
 2235ETH     HC20111   3.079   2.564   4.717  0.1387  0.5005 -0.3513
 2235ETH     HC20112   3.052   2.728   4.684 -1.1232  0.9762  2.4876
 2235ETH     HC20113   3.254   2.656   4.562  1.3890  0.3899  0.4056
 2235ETH     HC20114   3.305   2.770   4.678 -0.4346  0.1978 -0.8299
 2235ETH     HC20115   3.319   2.599   4.721  1.3412 -0.0680  0.3948
 2236ETH     OH20116   3.266   6.083   3.905 -0.1897  0.1743 -0.5004
 2236ETH     CH20117   3.209   6.184   3.825 -0.1112 -0.0366 -0.8209
 2236ETH     CH20118   3.111   6.133   3.719 -0.8307 -0.5015  0.0635
 2236ETH     HO20119   3.307   6.126   3.979  2.2052  2.2230 -2.8653
 2236ETH     HC20120   3.150   6.239   3.898  0.7194  0.0949 -0.2512
 2236ETH     HC20121   3.289   6.249   3.791 -0.2352  1.2091  1.1868
 2236ETH     HC20122   3.155   6.089   3.629 -1.7661  3.2748 -2.3528
 2236ETH     HC20123   3.056   6.046   3.755 -1.2742 -0.4348 -0.4451
 2236ETH     HC20124   3.035   6.205   3.690 -1.7283 -2.0812 -1.6246
 2237ETH     OH20125   5.224   4.302   3.307 -0.2467 -0.0926  0.0817
 2237ETH     CH20126   5.148   4.321   3.424 -0.1531  0.2465  0.0860
 2237ETH     CH20127   5.025   4.399   3.377 -0.5380 -0.3810  0.0487
 2237ETH     HO20128   5.303   4.257   3.332 -0.4242 -0.7684 -0.5350
 2237ETH     HC20129   5.123   4.218   3.452 -0.1296 -0.3961 -2.1876
 2237ETH     HC20130   5.186   4.371   3.513  0.7067  0.0311 -0.1550
 2237ETH     HC20131   5.046   4.492   3.324  0.7119 -0.5777  0.1877
 2237ETH     HC20132   4.944   4.344   3.329 -1.2163 -0.6958  1.5305
 2237ETH     HC20133   4.986   4.432   3.473  0.7073  3.1386 -0.5686
 2238ETH     OH20134   3.962   0.358   0.527 -0.2429 -0.5274  0.6454
 2238ETH     CH20135   4.097   0.327   0.499 -0.1995 -0.0848  0.3571
 2238ETH     CH20136   4.149   0.266   0.629  0.2002 -0.2617  0.1160
 2238ETH     HO20137   3.923   0.379   0.444  0.0472 -0.1606  0.5956
 2238ETH     HC20138   4.103   0.252   0.420  1.4502 -0.8967  1.2405
 2238ETH     HC20139   4.160   0.416   0.487 -0.7203  0.3784  1.0653
 2238ETH     HC20140   4.256   0.257   0.611  0.5893  1.6840  1.2947
 2238ETH     HC20141   4.133   0.330   0.715  0.8261  1.2838 -0.8974
 2238ETH     HC20142   4.105   0.168   0.649 -0.2501  0.3084  1.9853
 2239ETH     OH20143   5.632   1.664   2.253  0.5152  0.0004  0.0580
 2239ETH     CH20144   5.572   1.663   2.381  0.1736 -0.1606 -0.1024
 2239ETH     CH20145   5.589   1.797   2.452 -0.3653 -0.0642 -0.1579
 2239ETH     HO20146   5.580   1.724   2.202  0.9154 -0.5086 -0.9472
 2239ETH     HC20147   5.465   1.645   2.376  0.0318 -0.1820  2.5889
 2239ETH     HC20148   5.619   1.584   2.439 -0.8798 -1.0709 -0.4755
 2239ETH     HC20149   5.579   1.881   2.383  0.7853 -0.3204 -0.6382
 2239ETH     HC20150   5.526   1.825   2.536 -1.5699  0.3706 -1.1844
 2239ETH     HC20151   5.690   1.791   2.491 -0.4593 -2.2208 -0.1678
 2240ETH     OH20152   0.255   1.951   1.050 -0.1192  0.4564  0.1239
 2240ETH     CH20153   0.249   1.865   1.161  0.5033 -0.0214 -0.2069
 2240ETH     CH20154   0.132   1.895   1.256 -0.0730 -0.4042 -0.7885
 2240ETH     HO20155   0.183   2.013   1.050 -0.1150  0.4720 -0.9561
 2240ETH     HC20156   0.224   1.762   1.133  1.0289  0.2537 -1.7003
 2240ETH     HC20157   0.345   1.855   1.211  0.1481 -0.4183  0.4214
 2240ETH     HC20158   0.155   1.844   1.350 -0.7883 -2.0707 -1.4881
 2240ETH     HC20159   0.125   1.998   1.291 -1.0154 -0.8211  0.2964
 2240ETH     HC20160   0.036   1.863   1.217  0.1462 -1.4366 -0.5258
 2241ETH     OH20161   3.039   2.933   0.328 -0.4404 -0.5774 -0.2805
 2241ETH     CH20162   2.905   2.976   0.336 -0.3215 -0.2516 -0.0559
 2241ETH     CH20163   2.826   2.937   0.211 -0.4369  0.2401 -0.1391
 2241ETH     HO20164   3.025   2.840   0.332 -1.4986 -0.6890 -3.9940
 2241ETH     HC20165   2.862   2.930   0.425 -1.7600  0.5767 -0.3068
 2241ETH     HC20166   2.904   3.085   0.345 -0.1472 -0.3241  0.9298
 2241ETH     HC20167   2.886   2.856   0.170 -0.8437  0.3005 -0.8470
 2241ETH     HC20168   2.721   2.917   0.234 -0.2446 -1.5544 -0.8027
 2241ETH     HC20169   2.820   3.013   0.133  0.3411  0.4387 -0.0089
 2242ETH     OH20170   4.580   5.342   2.882 -0.0240  0.7690 -0.3998
 2242ETH     CH20171   4.720   5.341   2.899 -0.0274  0.1269 -0.4206
 2242ETH     CH20172   4.782   5.382   2.766  0.4571 -0.3912 -0.3547
 2242ETH     HO20173   4.551   5.252   2.881 -1.7381  1.2920 -0.8908
 2242ETH     HC20174   4.743   5.405   2.984 -1.6296  1.3601 -0.8789
 2242ETH     HC20175   4.745   5.237   2.920  0.6003 -0.1253 -2.2826
 2242ETH     HC20176   4.739   5.334   2.678 -0.0710  1.5587 -1.1893
 2242ETH     HC20177   4.776   5.490   2.754 -0.9305 -0.3727  0.4240
 2242ETH     HC20178   4.888   5.356   2.763  1.3604  2.6334  2.0682
 2243ETH     OH20179   4.421   1.031   1.242 -0.1527 -0.0862 -0.0265
 2243ETH     CH20180   4.443   0.956   1.359 -0.3569  0.3441  0.2872
 2243ETH     CH20181   4.368   1.027   1.472 -0.2347  0.2323  0.4387
 2243ETH     HO20182   4.420   1.125   1.255 -0.0551  0.0501 -0.9127
 2243ETH     HC20183   4.408   0.856   1.334  1.8336 -0.5509  0.6812
 2243ETH     HC20184   4.551   0.949   1.368 -0.1081 -0.2666 -2.6010
 2243ETH     HC20185   4.408   1.128   1.483  1.2234 -0.4167  1.2001
 2243ETH     HC20186   4.261   1.033   1.453 -0.0762  0.3412 -0.4565
 2243ETH     HC20187   4.370   0.969   1.564 -0.6162 -0.8108 -0.1978
 2244ETH     OH20188   4.000   0.625   2.881 -0.2970 -0.1377 -0.2889
 2244ETH     CH20189   4.033   0.582   3.011  0.2385  0.7522 -0.1220
 2244ETH     CH20190   3.913   0.581   3.107  0.2370 -0.6475 -0.1296
 2244ETH     HO20191   4.080   0.629   2.830 -0.8800  1.3698 -1.1126
 2244ETH     HC20192   4.069   0.479   3.013  1.8173  1.3072  0.4699
 2244ETH     HC20193   4.122   0.637   3.041  1.0515 -0.8725  0.5415
 2244ETH     HC20194   3.884   0.684   3.125 -0.7810 -0.8273 -0.7400
 2244ETH     HC20195   3.833   0.534   3.049 -0.2080  0.5050 -0.4592
 2244ETH     HC20196   3.938   0.530   3.200 -0.1808  1.6608  1.2725
 2245ETH     OH20197   2.169   1.387   4.796  0.9643 -0.1148  0.2522
 2245ETH     CH20198   2.133   1.453   4.677  0.1660  0.1606  0.6439
 2245ETH     CH20199   1.995   1.406   4.631  0.4615  0.0779 -0.1671
 2245ETH     HO20200   2.091   1.380   4.850  0.0731 -0.8015 -1.0975
 2245ETH     HC20201   2.136   1.560   4.698 -2.3214  0.1382  1.2805
 2245ETH     HC20202   2.203   1.433   4.596  0.4160  2.0748  0.3623
 2245ETH     HC20203   1.976   1.299   4.634  1.3246 -0.0602  0.7995
 2245ETH     HC20204   1.911   1.463   4.671  0.0007 -0.7795  0.1092
 2245ETH     HC20205   1.980   1.432   4.526  2.0675  0.0271 -0.4170
 2246ETH     OH20206   0.008   0.865   5.283  0.2158 -0.1656 -0.0194
 2246ETH     CH20207  -0.116   0.825   5.228  0.0596  0.2801  0.0073
 2246ETH     CH20208  -0.110   0.835   5.075  0.2359 -0.0080 -0.0048
 2246ETH     HO20209   0.017   0.959   5.275 -0.6115 -0.1848 -1.2934
 2246ETH     HC20210  -0.143   0.721   5.242 -0.8774  0.5031 -0.1270
 2246ETH     HC20211  -0.192   0.892   5.268 -0.1437  0.0417  0.0162
 2246ETH     HC20212  -0.099   0.940   5.048 -0.0322  0.1606  0.5355
 2246ETH     HC20213  -0.023   0.788   5.028  1.4060  1.3708  0.7247
 2246ETH     HC20214  -0.202   0.807   5.026 -0.3876  0.7202  0.7342
 2247ETH     OH20215   5.714   3.925   3.661  0.1911 -0.1218  0.2456
 2247ETH     CH20216   5.631   4.002   3.746  0.2632  0.4370 -0.1933
 2247ETH     CH20217   5.683   3.989   3.889 -0.1564  0.0478 -0.0765
 2247ETH     HO20218   5.777   3.989   3.632 -1.4642  0.3919 -2.4133
 2247ETH     HC20219   5.641   4.107   3.718 -0.0520  1.0444  1.8770
 2247ETH     HC20220   5.530   3.972   3.719  0.9693 -0.5115 -1.8499
 2247ETH     HC20221   5.653   4.072   3.954  0.4006  0.3174 -0.1621
 2247ETH     HC20222   5.627   3.900   3.918 -0.5773  0.6115  0.8800
 2247ETH     HC20223   5.787   3.958   3.892 -0.2170 -0.2839 -1.4473
 2248ETH     OH20224   1.820   5.431   3.467 -0.1148 -0.1860 -0.0727
 2248ETH     CH20225   1.746   5.410   3.349 -0.2892 -0.1905  0.0373
 2248ETH     CH20226   1.755   5.527   3.251  0.0538 -0.0013  0.2936
 2248ETH     HO20227   1.903   5.467   3.441  1.5716 -2.3801  2.0458
 2248ETH     HC20228   1.760   5.315   3.297  0.6731 -0.3518  0.5912
 2248ETH     HC20229   1.643   5.405   3.385  1.0424 -0.9983  4.0105
 2248ETH     HC20230   1.859   5.549   3.224 -0.3144  0.5800 -0.6754
 2248ETH     HC20231   1.702   5.502   3.159 -0.8031 -2.2176  1.3621
 2248ETH     HC20232   1.705   5.618   3.282 -0.7625 -0.0770 -0.7577
 2249ETH     OH20233   5.608   1.665   0.383  0.5574 -0.0707 -0.2918
 2249ETH     CH20234   5.732   1.731   0.394  0.3504  0.3564 -0.5167
 2249ETH     CH20235   5.711   1.877   0.355  0.3350  0.4202 -0.2750
 2249ETH     HO20236   5.629   1.573   0.383 -1.0466 -0.4778 -1.6460
 2249ETH     HC20237   5.765   1.719   0.498 -1.6585 -1.0779 -0.0140
 2249ETH     HC20238   5.792   1.674   0.324 -2.1249  0.3868 -2.7547
 2249ETH     HC20239   5.636   1.931   0.412 -1.5681 -1.6255 -0.7705
 2249ETH     HC20240   5.807   1.927   0.370  0.7038 -0.3171 -0.1970
 2249ETH     HC20241   5.689   1.895   0.249  1.7599 -0.7172 -0.7668
 2250ETH     OH20242   3.859   6.072   5.360 -0.0196 -0.4317  0.4864
 2250ETH     CH20243   3.753   6.163   5.373 -0.0777 -0.3635 -0.4046
 2250ETH     CH20244   3.647   6.103   5.466  0.4841  0.2336  0.6341
 2250ETH     HO20245   3.911   6.101   5.286 -1.7079  0.4667 -0.3788
 2250ETH     HC20246   3.796   6.255   5.411 -1.4961 -0.1005  0.6000
 2250ETH     HC20247   3.717   6.180   5.271  1.1103  1.1786 -0.5824
 2250ETH     HC20248   3.601   6.007   5.443 -1.4797  1.0449  0.9901
 2250ETH     HC20249   3.703   6.084   5.557  0.8643 -0.4051  0.2690
 2250ETH     HC20250   3.562   6.167   5.492 -1.3399 -1.2400 -1.4308
 2251ETH     OH20251   4.815   4.109   2.863 -0.2753 -0.6826 -0.1431
 2251ETH     CH20252   4.839   4.093   2.724  0.6539 -0.4753 -0.0073
 2251ETH     CH20253   4.950   4.185   2.672  0.4796 -0.3873 -0.2222
 2251ETH     HO20254   4.892   4.079   2.909  0.5518  1.5059 -0.0771
 2251ETH     HC20255   4.885   3.995   2.715  0.7643 -0.3834 -0.4321
 2251ETH     HC20256   4.751   4.096   2.660  2.6411  0.7784 -2.7515
 2251ETH     HC20257   4.935   4.289   2.701  0.6452 -0.8916  1.7747
 2251ETH     HC20258   5.043   4.158   2.722  0.3748 -0.6570 -0.1729
 2251ETH     HC20259   4.961   4.164   2.566  1.0671 -0.7799 -0.0827
 2252ETH     OH20260   2.200   6.096   2.657 -0.1574 -0.0714 -0.1402
 2252ETH     CH20261   2.306   6.132   2.571 -0.3815  0.7023 -0.0995
 2252ETH     CH20262   2.430   6.045   2.590 -0.9189 -0.1066 -0.2714
 2252ETH     HO20263   2.230   6.094   2.747 -0.2125  0.6250 -0.1023
 2252ETH     HC20264   2.268   6.128   2.469 -1.7042 -1.5752  0.4208
 2252ETH     HC20265   2.347   6.231   2.590 -0.1523  1.1924 -2.9621
 2252ETH     HC20266   2.503   6.070   2.513 -0.4430  1.3335  0.6326
 2252ETH     HC20267   2.478   6.055   2.688  2.8452  0.3979 -2.0721
 2252ETH     HC20268   2.419   5.937   2.577 -1.9264  0.1251 -1.4072
 2253ETH     OH20269   2.437   0.799   0.126 -0.0841 -0.0080  0.3493
 2253ETH     CH20270   2.499   0.920   0.163  0.0035 -0.0155  0.2303
 2253ETH     CH20271   2.487   1.034   0.062  0.1536 -0.2686 -0.0717
 2253ETH     HO20272   2.500   0.760   0.066 -0.9783 -0.4944 -0.2812
 2253ETH     HC20273   2.455   0.957   0.256 -0.9626  0.5495 -0.4342
 2253ETH     HC20274   2.605   0.896   0.162  0.0188  0.0741 -0.3357
 2253ETH     HC20275   2.547   1.118   0.097  1.2411 -1.3605  0.7191
 2253ETH     HC20276   2.529   1.003  -0.034  1.7478  0.2317  0.4476
 2253ETH     HC20277   2.383   1.058   0.036 -0.3195 -4.2543 -2.2393
 2254ETH     OH20278   3.066   0.168   2.852  0.1286  0.0191 -0.2501
 2254ETH     CH20279   3.013   0.262   2.942 -0.4071 -0.3240 -0.2090
 2254ETH     CH20280   3.007   0.405   2.889 -0.9139  0.0379  0.7984
 2254ETH     HO20281   3.156   0.180   2.824  0.0993 -0.3549 -0.5031
 2254ETH     HC20282   2.910   0.228   2.956 -1.7237  3.4338 -0.0324
 2254ETH     HC20283   3.068   0.261   3.036 -0.8091  1.1985  0.0634
 2254ETH     HC20284   3.106   0.451   2.883 -0.9446 -0.0879 -0.8279
 2254ETH     HC20285   2.969   0.407   2.787 -0.0551  1.3720  0.4927
 2254ETH     HC20286   2.942   0.464   2.953 -1.6916 -0.3219  0.3416
 2255ETH     OH20287   0.491   2.179   5.748  0.0755  0.1174  0.4892
 2255ETH     CH20288   0.485   2.310   5.696  0.3439 -0.0176  0.1160
 2255ETH     CH20289   0.374   2.320   5.591 -0.1338 -0.5264  0.5700
 2255ETH     HO20290   0.582   2.165   5.768  0.5728 -0.0966 -1.8032
 2255ETH     HC20291   0.459   2.382   5.773 -0.0505  0.9686 -0.9309
 2255ETH     HC20292   0.577   2.342   5.648  0.4575  1.6137  1.3802
 2255ETH     HC20293   0.392   2.261   5.501  0.3856 -0.8400  0.8778
 2255ETH     HC20294   0.277   2.287   5.630  0.0797 -2.1230 -0.1853
 2255ETH     HC20295   0.379   2.425   5.565  1.9095 -0.4723  1.0710
 2256ETH     OH20296   5.741   2.751   0.474 -0.3086 -0.5265  0.0641
 2256ETH     CH20297   5.824   2.774   0.586  0.2246 -1.0355 -0.2244
 2256ETH     CH20298   5.952   2.840   0.536 -0.2977  0.4010  0.3084
 2256ETH     HO20299   5.653   2.748   0.508 -0.2530 -0.3837  0.2226
 2256ETH     HC20300   5.761   2.837   0.649 -1.2659 -1.8349 -0.8908
 2256ETH     HC20301   5.838   2.674   0.627 -0.5091  0.0183  2.7617
 2256ETH     HC20302   6.014   2.763   0.490  1.3556  2.2506 -0.6535
 2256ETH     HC20303   5.939   2.920   0.464 -0.7759  0.8136  0.8531
 2256ETH     HC20304   6.017   2.874   0.618  1.7884 -2.0501 -0.2543
 2257ETH     OH20305   1.902   4.498   0.128 -0.2599 -0.1669 -0.4863
 2257ETH     CH20306   1.849   4.618   0.077  0.1978  0.3146  0.1535
 2257ETH     CH20307   1.803   4.701   0.196 -0.2758  0.2516  0.0185
 2257ETH     HO20308   1.898   4.433   0.059  0.3088  0.1629 -0.8359
 2257ETH     HC20309   1.911   4.668   0.003 -1.7279  2.3561 -0.1489
 2257ETH     HC20310   1.754   4.590   0.030  0.8458 -1.0282 -0.3990
 2257ETH     HC20311   1.788   4.802   0.157  1.0428  0.4491  0.0110
 2257ETH     HC20312   1.711   4.666   0.243 -0.4809  1.8183  0.8562
 2257ETH     HC20313   1.881   4.712   0.272  0.1915  0.9126 -0.5470
 2258ETH     OH20314   4.129   4.781   1.668  0.4431 -0.1328 -0.3147
 2258ETH     CH20315   4.056   4.874   1.591 -0.1087 -0.6701 -0.4404
 2258ETH     CH20316   4.132   4.895   1.460  0.0791  0.1688 -0.1978
 2258ETH     HO20317   4.222   4.789   1.653  0.2080  0.1419 -1.7339
 2258ETH     HC20318   3.957   4.832   1.570 -0.8368 -0.1283  1.7159
 2258ETH     HC20319   4.033   4.960   1.653 -0.0054 -0.3072 -0.9045
 2258ETH     HC20320   4.156   4.798   1.418  0.2650  0.8947 -1.8139
 2258ETH     HC20321   4.059   4.922   1.384 -1.4772 -0.5329  1.0079
 2258ETH     HC20322   4.213   4.967   1.469  0.0180 -0.0923  3.0191
 2259ETH     OH20323   4.544   1.804   3.724  0.0164  0.2832 -0.1521
 2259ETH     CH20324   4.439   1.749   3.648  0.3526 -0.3210 -0.1754
 2259ETH     CH20325   4.492   1.735   3.505 -0.0472 -0.2064 -0.3350
 2259ETH     HO20326   4.497   1.855   3.788  0.2350  0.8323 -0.4244
 2259ETH     HC20327   4.405   1.652   3.684 -1.3915  1.0020  1.8360
 2259ETH     HC20328   4.345   1.803   3.642  0.5012 -0.0495 -0.0514
 2259ETH     HC20329   4.597   1.707   3.511  0.3724  1.4813  0.6277
 2259ETH     HC20330   4.442   1.656   3.450  1.1796 -1.6000  0.5351
 2259ETH     HC20331   4.491   1.828   3.447  0.7127  0.8609  1.3009
 2260ETH     OH20332   4.225   4.394   5.757  0.4854 -0.3061  0.1031
 2260ETH     CH20333   4.099   4.334   5.772  0.6888 -0.7009  0.2340
 2260ETH     CH20334   4.098   4.194   5.709 -0.2815 -0.5635 -0.0696
 2260ETH     HO20335   4.226   4.483   5.726  0.2247  0.1860  1.4786
 2260ETH     HC20336   4.075   4.315   5.877  0.5685  0.7844  0.4894
 2260ETH     HC20337   4.023   4.395   5.723  0.8178  0.7456  1.8015
 2260ETH     HC20338   4.003   4.144   5.726  0.2150 -1.7817 -0.8365
 2260ETH     HC20339   4.123   4.193   5.603  0.1576 -1.7284  0.0342
 2260ETH     HC20340   4.183   4.137   5.747  1.0572  0.3646 -1.5799
 2261ETH     OH20341   0.351   2.258   2.531 -0.2575 -0.1143  0.3876
 2261ETH     CH20342   0.398   2.126   2.519  0.0976  0.0735 -0.2846
 2261ETH     CH20343   0.396   2.085   2.372  0.6866 -0.3031 -0.1890
 2261ETH     HO20344   0.429   2.310   2.516  0.2331  0.4604  4.4040
 2261ETH     HC20345   0.500   2.117   2.558 -1.1095 -1.7087  2.6583
 2261ETH     HC20346   0.342   2.060   2.584 -0.4448 -0.5716 -1.3906
 2261ETH     HC20347   0.435   2.167   2.311 -0.9256  0.7490  0.1785
 2261ETH     HC20348   0.459   1.998   2.350 -1.0788 -1.5426 -0.3916
 2261ETH     HC20349   0.293   2.063   2.343  0.1527  1.4555  0.3678
 2262ETH     OH20350   5.194   0.995   3.023 -0.1630 -0.3612 -0.2713
 2262ETH     CH20351   5.227   1.016   2.887 -0.0874 -0.8278 -0.3240
 2262ETH     CH20352   5.297   1.150   2.865  0.0967 -0.8358  0.2034
 2262ETH     HO20353   5.155   0.910   3.038  0.2159 -0.5112 -0.1231
 2262ETH     HC20354   5.297   0.938   2.857 -0.8589 -2.0326  0.9016
 2262ETH     HC20355   5.131   1.010   2.836 -0.3611  1.6981 -0.1496
 2262ETH     HC20356   5.335   1.157   2.763 -0.7097 -0.7652 -0.0964
 2262ETH     HC20357   5.220   1.224   2.888  2.5201  1.2581  1.7745
 2262ETH     HC20358   5.385   1.164   2.927  1.5909 -0.3694 -1.9757
 2263ETH     OH20359   2.401   2.396   2.291 -0.2622 -0.1447  0.0154
 2263ETH     CH20360   2.340   2.297   2.371  0.6946 -0.3614  0.4798
 2263ETH     CH20361   2.189   2.320   2.384  0.7333  0.2203 -0.0313
 2263ETH     HO20362   2.389   2.482   2.327 -2.0340 -0.0366 -0.7787
 2263ETH     HC20363   2.378   2.200   2.340  0.6241  0.1954 -1.4188
 2263ETH     HC20364   2.385   2.302   2.470 -0.6660  2.7768  1.0242
 2263ETH     HC20365   2.128   2.233   2.407  0.9866 -0.0965 -0.5546
 2263ETH     HC20366   2.169   2.395   2.460 -0.6146  0.0689 -0.2402
 2263ETH     HC20367   2.149   2.357   2.290  0.0282  0.1583  0.2479
 2264ETH     OH20368   3.160   4.613   1.132 -0.1706 -0.2765 -0.5366
 2264ETH     CH20369   3.261   4.611   1.229 -0.4425  0.2410 -0.2428
 2264ETH     CH20370   3.297   4.465   1.257 -0.2498  0.2792 -0.2902
 2264ETH     HO20371   3.128   4.701   1.144 -0.3288 -0.6741  2.1440
 2264ETH     HC20372   3.342   4.665   1.179  0.7753 -1.5093 -0.2229
 2264ETH     HC20373   3.224   4.657   1.321  1.4338  1.2953  0.0189
 2264ETH     HC20374   3.342   4.411   1.173 -0.2973 -1.2484  0.6597
 2264ETH     HC20375   3.381   4.450   1.325  1.1696 -2.3280 -2.4909
 2264ETH     HC20376   3.209   4.409   1.287 -0.6269  1.6371  1.1603
 2265ETH     OH20377   0.244   3.669   6.120 -0.1394  0.3860 -0.0194
 2265ETH     CH20378   0.103   3.665   6.117 -0.1264  0.1251 -0.3634
 2265ETH     CH20379   0.045   3.710   5.983 -1.1217 -0.4306 -0.1300
 2265ETH     HO20380   0.280   3.589   6.083 -0.4493  0.8433 -1.3560
 2265ETH     HC20381   0.075   3.560   6.128 -1.0536  0.4728  0.7654
 2265ETH     HC20382   0.057   3.715   6.202  0.5438 -1.2258  0.8118
 2265ETH     HC20383  -0.047   3.655   5.964 -1.4934  0.3208 -0.5254
 2265ETH     HC20384   0.010   3.813   5.973  2.0985  0.6445 -1.1456
 2265ETH     HC20385   0.104   3.697   5.892 -1.9121 -0.4972 -0.6354
 2266ETH     OH20386   1.932   3.863   3.765 -0.9143 -0.0703 -0.4342
 2266ETH     CH20387   1.925   3.739   3.831  0.2397 -0.2728 -0.6708
 2266ETH     CH20388   1.782   3.686   3.817  0.1175 -0.1081 -0.1008
 2266ETH     HO20389   2.020   3.897   3.761 -0.3344 -1.3170  1.0938
 2266ETH     HC20390   1.991   3.662   3.793  0.5618 -2.1097  3.2673
 2266ETH     HC20391   1.942   3.739   3.939 -0.2766  2.2490 -0.5618
 2266ETH     HC20392   1.768   3.598   3.879 -1.3120  0.0108 -0.2437
 2266ETH     HC20393   1.712   3.754   3.864 -0.3280 -0.4918 -0.1964
 2266ETH     HC20394   1.742   3.660   3.718  1.2302 -1.0834 -0.3097
 2267ETH     OH20395   4.682   4.453   0.716  0.0625 -0.2896 -0.1304
 2267ETH     CH20396   4.574   4.480   0.629  0.0132 -0.2001 -0.0425
 2267ETH     CH20397   4.568   4.631   0.605 -0.1967 -0.1751  0.1600
 2267ETH     HO20398   4.769   4.459   0.680  0.1103  0.1392  0.0426
 2267ETH     HC20399   4.571   4.425   0.535  1.2184  0.1411 -0.2869
 2267ETH     HC20400   4.478   4.453   0.672 -1.2313  1.7089 -1.5551
 2267ETH     HC20401   4.585   4.699   0.689 -0.1623 -0.3840  0.3215
 2267ETH     HC20402   4.647   4.658   0.536  0.6413  1.5569  1.7476
 2267ETH     HC20403   4.472   4.645   0.556 -0.1361  2.1794  0.6753
 2268ETH     OH20404   3.553   1.560   1.927 -0.4314  0.3107  0.0826
 2268ETH     CH20405   3.615   1.648   2.018  0.2355  0.4889 -0.5408
 2268ETH     CH20406   3.523   1.755   2.077  0.4895  0.4384 -0.0584
 2268ETH     HO20407   3.622   1.513   1.883 -0.7144 -0.6806  0.6787
 2268ETH     HC20408   3.665   1.604   2.104  0.1282  1.4820  0.0483
 2268ETH     HC20409   3.699   1.697   1.968  2.2478  1.1991  3.3563
 2268ETH     HC20410   3.488   1.835   2.012 -0.6769  0.6689  0.8260
 2268ETH     HC20411   3.428   1.709   2.106 -0.2072  0.8571 -1.6374
 2268ETH     HC20412   3.564   1.809   2.163  0.1122 -1.6156  1.4679
 2269ETH     OH20413   0.701   3.732   1.896 -0.4334 -0.0177 -0.0248
 2269ETH     CH20414   0.830   3.784   1.872 -0.2955 -0.3184  0.0699
 2269ETH     CH20415   0.920   3.663   1.844 -0.0736 -0.2163  0.3331
 2269ETH     HO20416   0.649   3.811   1.892 -0.6564 -0.0262  2.1544
 2269ETH     HC20417   0.821   3.841   1.780 -0.3369 -2.5255 -1.3456
 2269ETH     HC20418   0.860   3.858   1.947  1.7267 -0.5210 -0.4998
 2269ETH     HC20419   1.020   3.684   1.806 -0.3008  0.1286 -0.0872
 2269ETH     HC20420   0.931   3.609   1.937  2.0334  0.9687  0.8042
 2269ETH     HC20421   0.867   3.604   1.769 -1.4133  0.0018  1.1101
 2270ETH     OH20422   0.687   0.769   2.301 -0.1992  0.1496 -0.1050
 2270ETH     CH20423   0.772   0.872   2.257 -0.7905  0.6329 -0.1235
 2270ETH     CH20424   0.697   1.005   2.265 -0.1891  1.0028 -0.5226
 2270ETH     HO20425   0.702   0.757   2.393  0.1767  0.6136 -0.1067
 2270ETH     HC20426   0.843   0.894   2.337 -0.3446  0.4920 -0.4733
 2270ETH     HC20427   0.834   0.847   2.171 -0.0888  0.5715  0.3956
 2270ETH     HC20428   0.621   1.001   2.187 -1.9747 -1.0958  1.2124
 2270ETH     HC20429   0.637   1.011   2.356 -0.1912 -0.3238 -0.4156
 2270ETH     HC20430   0.766   1.089   2.256 -0.6059  1.0742 -3.5681
 2271ETH     OH20431   2.696   4.053   1.008  0.2499 -0.6548  0.3022
 2271ETH     CH20432   2.817   4.125   1.001 -0.5421  0.6865  0.3679
 2271ETH     CH20433   2.909   4.081   1.115  0.0267  0.0497 -0.3378
 2271ETH     HO20434   2.630   4.112   0.974  1.6828  1.0768  0.4446
 2271ETH     HC20435   2.872   4.098   0.911 -0.1493  0.3644  0.7052
 2271ETH     HC20436   2.803   4.234   1.004  0.8798  0.8719  0.4201
 2271ETH     HC20437   2.928   3.974   1.103 -1.2899 -0.0462 -1.7602
 2271ETH     HC20438   3.002   4.137   1.117  0.5006 -0.7072 -0.7141
 2271ETH     HC20439   2.860   4.098   1.211 -0.9697  1.2434 -1.0396
 2272ETH     OH20440   0.789   3.931   0.475 -0.1811  0.5247  0.6027
 2272ETH     CH20441   0.920   3.878   0.476 -0.4092 -0.0666 -0.1144
 2272ETH     CH20442   0.919   3.726   0.466  0.5452 -0.0905  0.0910
 2272ETH     HO20443   0.758   3.892   0.395 -0.1332  1.8504 -0.0692
 2272ETH     HC20444   0.975   3.933   0.399 -0.5656  1.2960  0.7284
 2272ETH     HC20445   0.968   3.897   0.572  0.7199 -2.7010 -0.1074
 2272ETH     HC20446   0.874   3.703   0.369 -0.8319  1.4148  0.3542
 2272ETH     HC20447   1.019   3.684   0.480  0.6412 -0.1737 -0.7873
 2272ETH     HC20448   0.848   3.685   0.537 -0.1638 -0.0457 -0.5830
 2273ETH     OH20449   0.097   2.179   0.737 -0.6467 -0.1849  0.2376
 2273ETH     CH20450   0.129   2.049   0.691 -0.3429  0.0830 -0.3096
 2273ETH     CH20451   0.262   2.059   0.616 -0.2674  0.6944 -0.1012
 2273ETH     HO20452   0.067   2.169   0.826 -2.8650  0.5038 -0.3968
 2273ETH     HC20453   0.132   1.987   0.780 -3.0810  0.8241  0.3324
 2273ETH     HC20454   0.057   2.003   0.624 -0.2406 -2.2357  1.1336
 2273ETH     HC20455   0.302   1.963   0.582 -2.8969 -0.9642  1.3179
 2273ETH     HC20456   0.249   2.133   0.538 -0.2101 -0.3393 -1.1061
 2273ETH     HC20457   0.335   2.099   0.687 -0.2864  2.4219 -1.0287
 2274ETH     OH20458   0.798   4.011   4.289  0.0491  0.3115  0.1356
 2274ETH     CH20459   0.693   4.089   4.237  0.0128  0.1780  0.0073
 2274ETH     CH20460   0.644   4.003   4.120  0.1362 -0.3308  0.3273
 2274ETH     HO20461   0.759   3.929   4.314 -0.4531  1.0960  2.0293
 2274ETH     HC20462   0.610   4.105   4.305 -0.9337  0.9612 -1.2924
 2274ETH     HC20463   0.722   4.187   4.199  0.6209  0.8398  2.1592
 2274ETH     HC20464   0.577   4.056   4.053  0.0321 -0.5839  0.2307
 2274ETH     HC20465   0.726   3.966   4.057 -1.8569 -1.9439 -1.3825
 2274ETH     HC20466   0.587   3.920   4.160 -1.3626  1.5203  2.1030
 2275ETH     OH20467   1.526   1.374   2.717 -0.8840 -0.0946 -0.5653
 2275ETH     CH20468   1.526   1.251   2.649 -0.0955 -0.3506 -0.1097
 2275ETH     CH20469   1.392   1.183   2.681 -0.2097  0.3416  0.8968
 2275ETH     HO20470   1.613   1.394   2.749 -0.4489  0.3562 -1.9871
 2275ETH     HC20471   1.543   1.277   2.545  2.8139  1.3554  0.7248
 2275ETH     HC20472   1.613   1.187   2.667  2.5780  3.9664  3.5802
 2275ETH     HC20473   1.391   1.150   2.785  0.7812 -2.1245  0.1644
 2275ETH     HC20474   1.309   1.252   2.668 -0.0149  0.3606 -0.3407
 2275ETH     HC20475   1.380   1.115   2.597  1.3625  0.2869  0.6935
 2276ETH     OH20476   1.793   3.413   0.013 -0.0230 -0.2606 -0.4474
 2276ETH     CH20477   1.734   3.541   0.012 -0.0271 -0.2608 -0.3177
 2276ETH     CH20478   1.845   3.644   0.031  0.1564 -0.4205 -0.5174
 2276ETH     HO20479   1.760   3.360   0.084  1.2228  1.0957  1.1931
 2276ETH     HC20480   1.680   3.552  -0.082  0.7943 -1.7036 -0.9802
 2276ETH     HC20481   1.670   3.559   0.098  0.0407 -2.7633  0.2933
 2276ETH     HC20482   1.925   3.620  -0.038  1.3230  1.0565  0.2940
 2276ETH     HC20483   1.798   3.739   0.007  0.7997  0.9456  3.2381
 2276ETH     HC20484   1.882   3.632   0.133 -0.2145  0.4038 -0.2817
 2277ETH     OH20485   6.055   3.150   2.957 -0.6626  0.2916 -0.4492
 2277ETH     CH20486   6.066   3.180   2.820  0.0925  0.3648 -0.3776
 2277ETH     CH20487   6.167   3.088   2.753  0.0407 -0.1115  0.1997
 2277ETH     HO20488   6.015   3.064   2.958  0.6166 -0.3148 -0.5613
 2277ETH     HC20489   5.966   3.159   2.782  0.1549 -2.4702  0.8969
 2277ETH     HC20490   6.089   3.283   2.792  1.7297  0.5967  1.7256
 2277ETH     HC20491   6.155   3.087   2.645  1.5876  0.7250 -0.0045
 2277ETH     HC20492   6.265   3.132   2.774 -0.1509  0.0392  0.7938
 2277ETH     HC20493   6.159   2.992   2.804  0.0306 -1.1600 -1.7279
 2278ETH     OH20494   3.573   5.361   1.426  0.2772 -0.0611 -0.0877
 2278ETH     CH20495   3.433   5.361   1.444  0.2961 -0.5050  0.0835
 2278ETH     CH20496   3.369   5.488   1.387 -0.4878 -0.9599 -0.0623
 2278ETH     HO20497   3.587   5.328   1.339 -0.4217  2.2539 -1.1046
 2278ETH     HC20498   3.399   5.342   1.546  2.5376 -1.9193  0.6087
 2278ETH     HC20499   3.399   5.271   1.394 -1.9010 -0.0996  0.8171
 2278ETH     HC20500   3.387   5.498   1.280 -1.3237  1.6418  0.0053
 2278ETH     HC20501   3.261   5.488   1.394 -0.6922 -0.6845 -2.7431
 2278ETH     HC20502   3.413   5.574   1.438  1.4219  0.1152 -3.3420
 2279ETH     OH20503   1.261   5.375   5.812  0.9658 -0.2343 -0.2289
 2279ETH     CH20504   1.247   5.326   5.943  0.1042  0.6189  0.0046
 2279ETH     CH20505   1.123   5.237   5.950  0.5486  0.0473  0.6626
 2279ETH     HO20506   1.210   5.454   5.821  2.9864  0.8198  2.2005
 2279ETH     HC20507   1.334   5.263   5.964 -1.5573 -1.4760  0.8495
 2279ETH     HC20508   1.241   5.412   6.010  0.2726  0.4909  0.1843
 2279ETH     HC20509   1.031   5.293   5.936  1.0608 -0.0446 -3.5391
 2279ETH     HC20510   1.141   5.160   5.874  0.7708 -0.2461  1.0082
 2279ETH     HC20511   1.107   5.190   6.047  1.0217 -3.1735 -0.7517
 2280ETH     OH20512   2.042   0.541   2.765  0.2196  0.2079 -0.2115
 2280ETH     CH20513   1.956   0.468   2.681  0.1354 -0.0010  0.0530
 2280ETH     CH20514   1.825   0.545   2.695  0.2323  0.0619  0.6039
 2280ETH     HO20515   2.059   0.475   2.830 -0.0010  0.2121 -0.1499
 2280ETH     HC20516   1.992   0.479   2.578  1.3243  1.8439  0.6441
 2280ETH     HC20517   1.948   0.365   2.715  0.4308  0.6937  2.2822
 2280ETH     HC20518   1.840   0.649   2.668 -1.8426 -0.2211 -1.8326
 2280ETH     HC20519   1.738   0.518   2.635  1.2460 -0.2060 -0.7537
 2280ETH     HC20520   1.776   0.536   2.792 -1.4478  0.4211 -0.1859
 2281ETH     OH20521   4.186   6.184   0.250 -0.0664  0.3263  0.1637
 2281ETH     CH20522   4.296   6.226   0.327  0.1233  0.0916  0.0203
 2281ETH     CH20523   4.352   6.364   0.291 -0.1445  0.1089 -0.3236
 2281ETH     HO20524   4.205   6.200   0.159 -1.7599 -0.3335 -0.3265
 2281ETH     HC20525   4.262   6.225   0.431  0.0289  1.1566  0.0004
 2281ETH     HC20526   4.372   6.149   0.311 -0.2799 -0.1048 -0.9277
 2281ETH     HC20527   4.262   6.425   0.303  0.7395  1.2136  0.8485
 2281ETH     HC20528   4.420   6.408   0.364  0.5867  1.8384 -2.0207
 2281ETH     HC20529   4.386   6.385   0.190  1.6223 -0.3138  0.1592
 2282ETH     OH20530   4.476   1.062   2.915 -0.1386  0.4812  0.0403
 2282ETH     CH20531   4.540   0.957   2.846 -0.0696  0.7751 -0.3469
 2282ETH     CH20532   4.676   0.999   2.790  0.3509  0.3704  0.3578
 2282ETH     HO20533   4.498   1.066   3.006 -2.5869 -0.4334  0.6992
 2282ETH     HC20534   4.554   0.889   2.930 -0.9945  1.5513  0.4444
 2282ETH     HC20535   4.465   0.918   2.777  0.0966  0.6791 -0.4742
 2282ETH     HC20536   4.657   1.004   2.682  1.4933  0.8038  0.1647
 2282ETH     HC20537   4.716   1.089   2.836  0.2505  0.2158  0.7423
 2282ETH     HC20538   4.749   0.922   2.816 -1.5897 -1.5592  0.2253
 2283ETH     OH20539   0.690   4.510   6.205  0.0116 -0.1799 -0.2552
 2283ETH     CH20540   0.700   4.441   6.328 -0.8788  0.6719  0.3018
 2283ETH     CH20541   0.694   4.547   6.438  0.4654  0.8426  0.2246
 2283ETH     HO20542   0.777   4.541   6.184  0.3642 -0.6470  0.4716
 2283ETH     HC20543   0.613   4.376   6.327 -2.0903  2.2571 -1.3877
 2283ETH     HC20544   0.791   4.381   6.340 -0.0976  2.0709  1.6201
 2283ETH     HC20545   0.614   4.621   6.429  0.1113  0.5212  0.7517
 2283ETH     HC20546   0.688   4.498   6.535 -4.3965  0.2536 -0.2468
 2283ETH     HC20547   0.784   4.608   6.447  0.7282  0.6776 -1.1141
 2284ETH     OH20548   2.774   1.839   4.188 -0.0455  0.4581  0.2128
 2284ETH     CH20549   2.775   1.714   4.253 -0.2310  0.0894 -0.4947
 2284ETH     CH20550   2.642   1.682   4.322  0.0992 -0.8106 -0.2650
 2284ETH     HO20551   2.750   1.908   4.249 -3.6684  0.9508 -1.6216
 2284ETH     HC20552   2.796   1.635   4.180  1.0973 -2.3286  2.3993
 2284ETH     HC20553   2.859   1.717   4.322 -1.3100  2.1479  0.7864
 2284ETH     HC20554   2.651   1.619   4.410 -0.8266  0.0973  0.4890
 2284ETH     HC20555   2.596   1.774   4.359 -1.1553 -0.9455 -1.4759
 2284ETH     HC20556   2.560   1.639   4.265 -0.0903 -0.9090  0.0807
 2285ETH     OH20557   6.287   5.203   0.519  0.3344 -0.1121 -0.1934
 2285ETH     CH20558   6.259   5.190   0.656 -0.1715  0.1483 -0.2722
 2285ETH     CH20559   6.254   5.040   0.683 -0.4180  0.2249  0.1186
 2285ETH     HO20560   6.286   5.292   0.488 -0.3109 -0.7589 -2.0815
 2285ETH     HC20561   6.342   5.227   0.717  0.0863 -1.2272  0.2183
 2285ETH     HC20562   6.171   5.247   0.687  0.4032 -0.1573  2.0211
 2285ETH     HC20563   6.253   5.012   0.789 -0.8147 -1.3267 -0.2807
 2285ETH     HC20564   6.180   4.985   0.625  0.3763 -0.7440  0.0090
 2285ETH     HC20565   6.349   4.993   0.658 -2.8486 -3.6625 -2.2920
 2286ETH     OH20566   6.017   0.786   5.787 -0.6974  0.6144 -0.1117
 2286ETH     CH20567   6.120   0.771   5.692 -0.5420 -0.1886  0.1772
 2286ETH     CH20568   6.117   0.902   5.613 -0.1044 -0.5357 -0.4205
 2286ETH     HO20569   6.024   0.704   5.834  1.1638  0.6360 -0.3294
 2286ETH     HC20570   6.213   0.768   5.749  0.1312  0.8325 -0.8341
 2286ETH     HC20571   6.108   0.682   5.630  1.1588 -0.8767  0.8081
 2286ETH     HC20572   6.143   0.989   5.673 -2.7982 -0.6435  0.9812
 2286ETH     HC20573   6.194   0.903   5.536  1.3927  2.4697  1.0218
 2286ETH     HC20574   6.017   0.915   5.570 -1.0744 -2.6549  1.0916
 2287ETH     OH20575   1.318   4.021   2.958  0.1135 -0.1278 -0.2043
 2287ETH     CH20576   1.282   4.110   3.061  0.1510 -0.1496 -0.1714
 2287ETH     CH20577   1.366   4.073   3.183 -0.0189  0.2340  0.0601
 2287ETH     HO20578   1.375   4.069   2.900 -1.4402  2.0872  0.0598
 2287ETH     HC20579   1.305   4.212   3.033  1.7215 -0.5967 -0.5435
 2287ETH     HC20580   1.176   4.101   3.088  0.7150  0.4987  2.3382
 2287ETH     HC20581   1.341   3.975   3.224 -0.3343 -0.9377 -2.8355
 2287ETH     HC20582   1.471   4.068   3.153  0.2959  1.5236  0.8696
 2287ETH     HC20583   1.363   4.147   3.263  1.4218  0.9114 -0.4964
 2288ETH     OH20584   4.892   1.975   5.042  0.1406  0.1590 -0.6804
 2288ETH     CH20585   4.856   2.018   4.913 -0.2931  0.3259 -0.5031
 2288ETH     CH20586   4.833   2.169   4.909  0.6527  0.4933  0.2532
 2288ETH     HO20587   4.826   2.002   5.103 -1.3049 -0.8937 -1.7444
 2288ETH     HC20588   4.940   1.999   4.846  0.1784  3.3018 -0.8264
 2288ETH     HC20589   4.769   1.964   4.875  0.1097  0.4904 -1.6727
 2288ETH     HC20590   4.800   2.202   4.811  1.8175 -2.2977 -1.1363
 2288ETH     HC20591   4.757   2.190   4.985 -0.3342  0.1033 -0.6158
 2288ETH     HC20592   4.916   2.229   4.945 -0.9823  1.7221  2.1600
 2289ETH     OH20593   4.259   2.417   6.082  0.5219 -0.2897  1.4114
 2289ETH     CH20594   4.120   2.397   6.096  0.3268 -0.2084 -0.3130
 2289ETH     CH20595   4.061   2.480   6.210  0.3150 -0.1344 -0.3737
 2289ETH     HO20596   4.307   2.376   6.153  0.3988 -2.1321  0.4616
 2289ETH     HC20597   4.076   2.425   6.001 -0.4449  0.9279  0.3731
 2289ETH     HC20598   4.097   2.292   6.113 -0.1541 -0.0340  0.1463
 2289ETH     HC20599   4.096   2.460   6.312  1.4812  0.8347 -0.5598
 2289ETH     HC20600   4.107   2.577   6.191  1.9223 -0.8044 -0.0417
 2289ETH     HC20601   3.955   2.497   6.223  0.4701 -1.2004  2.7836
 2290ETH     OH20602   1.422   6.053   5.377 -0.1588 -0.1606 -0.5651
 2290ETH     CH20603   1.484   6.137   5.472 -0.5352  0.0399 -0.4989
 2290ETH     CH20604   1.538   6.053   5.587 -0.0763  0.5914 -0.3075
 2290ETH     HO20605   1.482   6.018   5.313 -0.3502  0.3525 -1.0282
 2290ETH     HC20606   1.551   6.215   5.436  1.2222 -1.1905  0.0892
 2290ETH     HC20607   1.395   6.192   5.505 -0.8791 -0.9028  0.1728
 2290ETH     HC20608   1.556   6.128   5.663 -0.7209 -0.1570  0.6038
 2290ETH     HC20609   1.463   5.988   5.633  0.4809  1.3362  1.7414
 2290ETH     HC20610   1.629   5.996   5.571 -0.0148  0.7458 -0.5011
 2291ETH     OH20611   1.626   0.445   5.146  0.3092 -0.0567  0.2128
 2291ETH     CH20612   1.663   0.380   5.026  0.7038  0.3295  0.1287
 2291ETH     CH20613   1.564   0.412   4.914  0.2531 -0.0667  0.4170
 2291ETH     HO20614   1.547   0.410   5.185  0.1761  0.4552  0.3968
 2291ETH     HC20615   1.764   0.412   4.996  1.6945 -1.5403  1.4110
 2291ETH     HC20616   1.674   0.273   5.039 -1.5725  0.0671 -0.0318
 2291ETH     HC20617   1.550   0.520   4.909  0.0936 -0.0303  1.4296
 2291ETH     HC20618   1.606   0.370   4.823 -0.0210  0.1986  0.1672
 2291ETH     HC20619   1.464   0.372   4.933 -0.5192  1.6832  0.0940
 2292ETH     OH20620   2.551   3.358   0.185 -0.1823 -0.3497  0.0787
 2292ETH     CH20621   2.442   3.294   0.122 -0.0545 -0.1121 -0.3874
 2292ETH     CH20622   2.477   3.151   0.080  0.4131 -0.0600 -0.1780
 2292ETH     HO20623   2.522   3.448   0.187  0.6723 -0.0774  0.5217
 2292ETH     HC20624   2.363   3.307   0.196 -0.7428  3.9052 -1.7210
 2292ETH     HC20625   2.418   3.351   0.033  0.1734  0.9989  0.2580
 2292ETH     HC20626   2.468   3.095   0.173 -0.3155  2.7265  1.4815
 2292ETH     HC20627   2.397   3.114   0.017 -0.0082 -0.1634  0.4189
 2292ETH     HC20628   2.579   3.129   0.045  0.7249 -1.1973  1.4343
 2293ETH     OH20629   1.196   0.295   1.587 -0.0145  0.6433 -0.2436
 2293ETH     CH20630   1.066   0.304   1.640 -0.0833  0.1692 -0.3248
 2293ETH     CH20631   1.016   0.449   1.636 -0.1919  0.1284 -0.4293
 2293ETH     HO20632   1.224   0.205   1.582 -2.8519 -0.3044  0.0212
 2293ETH     HC20633   1.004   0.245   1.572  1.0393 -2.8769  1.2136
 2293ETH     HC20634   1.058   0.273   1.744 -0.2255  0.8852 -0.1138
 2293ETH     HC20635   1.001   0.485   1.534  1.1352  1.7168 -0.0623
 2293ETH     HC20636   0.920   0.448   1.688  0.4233  1.6262  0.7641
 2293ETH     HC20637   1.079   0.523   1.684  0.1892 -0.7487  0.4210
 2294ETH     OH20638   0.752   0.741   4.136  0.3001 -0.3785  0.3361
 2294ETH     CH20639   0.774   0.637   4.043 -0.3608 -0.2680  0.0517
 2294ETH     CH20640   0.871   0.679   3.932 -0.6791  0.2088 -0.0486
 2294ETH     HO20641   0.833   0.755   4.182  1.3175  0.3650 -1.6663
 2294ETH     HC20642   0.794   0.544   4.097  0.7662  0.9568  1.8115
 2294ETH     HC20643   0.671   0.626   4.010 -0.3280  0.1064 -0.1800
 2294ETH     HC20644   0.903   0.596   3.869  0.8062  0.2995  0.5843
 2294ETH     HC20645   0.844   0.769   3.878  0.0363  0.7045  0.4203
 2294ETH     HC20646   0.963   0.697   3.987 -1.7867  1.6089  1.3959
 2295ETH     OH20647   0.974   1.258   3.902  0.1964 -0.2629 -0.6652
 2295ETH     CH20648   0.867   1.169   3.884  0.0078 -0.1511 -0.1167
 2295ETH     CH20649   0.762   1.188   3.993 -0.2516  0.6071 -0.4952
 2295ETH     HO20650   1.023   1.242   3.822  0.4176  1.5301 -0.9144
 2295ETH     HC20651   0.817   1.165   3.787 -1.1757  1.1117  0.4380
 2295ETH     HC20652   0.908   1.068   3.896  0.4151 -0.0898 -0.9290
 2295ETH     HC20653   0.679   1.120   3.974  0.0796 -0.4817  1.8212
 2295ETH     HC20654   0.800   1.156   4.090  0.0615 -1.8244 -1.3817
 2295ETH     HC20655   0.718   1.287   3.988  0.4955  1.3021  4.0689
 2296ETH     OH20656   5.142   3.132   4.114  0.1623  0.1469  0.2023
 2296ETH     CH20657   5.185   3.180   4.239 -0.2686  0.3434  0.2760
 2296ETH     CH20658   5.190   3.061   4.336  0.7486  0.4279  0.3364
 2296ETH     HO20659   5.133   3.208   4.059 -1.1834  0.0006  0.2025
 2296ETH     HC20660   5.279   3.232   4.218 -0.9303  1.9164  1.1236
 2296ETH     HC20661   5.111   3.255   4.265 -0.4601  0.5246 -0.7769
 2296ETH     HC20662   5.265   2.985   4.315 -0.1665 -0.8304  1.5431
 2296ETH     HC20663   5.200   3.101   4.437  0.3276 -3.2006  1.8772
 2296ETH     HC20664   5.102   2.997   4.330  3.0708 -2.6731 -2.2994
 2297ETH     OH20665   2.983   4.758   4.697  0.7515  0.2118  0.0663
 2297ETH     CH20666   2.890   4.856   4.739  0.7324  0.2093  0.0312
 2297ETH     CH20667   2.841   4.933   4.617 -0.4804 -0.2690  0.2096
 2297ETH     HO20668   2.932   4.679   4.691 -0.0965  0.7128  0.5970
 2297ETH     HC20669   2.819   4.797   4.797  0.0904  2.6054  1.7890
 2297ETH     HC20670   2.941   4.927   4.805  0.9422  1.6814 -1.6740
 2297ETH     HC20671   2.787   5.022   4.648 -1.0728 -0.5250 -0.0834
 2297ETH     HC20672   2.919   4.976   4.554 -1.1920 -0.5813 -0.9029
 2297ETH     HC20673   2.767   4.884   4.554  1.0925 -1.5582 -0.6733
 2298ETH     OH20674   4.329   3.037   5.322  0.0091 -0.0757  0.1467
 2298ETH     CH20675   4.429   3.129   5.286  0.2361 -0.2528  0.3210
 2298ETH     CH20676   4.541   3.124   5.390  0.3171  0.0193  0.2463
 2298ETH     HO20677   4.260   3.039   5.257  0.1277  0.2330  0.0286
 2298ETH     HC20678   4.487   3.112   5.195  1.6245  3.5897  0.3951
 2298ETH     HC20679   4.384   3.227   5.268 -0.3710 -0.1659  2.2151
 2298ETH     HC20680   4.636   3.157   5.346  1.0165 -2.6176 -0.2924
 2298ETH     HC20681   4.523   3.191   5.474 -0.4798  0.2572 -0.1033
 2298ETH     HC20682   4.566   3.023   5.420  1.1250 -0.4634 -1.9132
 2299ETH     OH20683   1.153   2.979   5.899  0.5134 -0.1282 -0.2849
 2299ETH     CH20684   1.166   2.972   5.758 -0.0911 -0.4427 -0.3262
 2299ETH     CH20685   1.051   2.885   5.706 -0.4119 -0.5234  0.5040
 2299ETH     HO20686   1.184   3.066   5.917  2.1671 -0.7714  0.1194
 2299ETH     HC20687   1.156   3.072   5.717 -2.6901  0.2708  1.8695
 2299ETH     HC20688   1.262   2.924   5.742  0.5042 -0.4056  2.7709
 2299ETH     HC20689   1.060   2.864   5.600  1.2343  0.4222  0.4368
 2299ETH     HC20690   1.033   2.788   5.751 -0.0774 -0.5775  0.5252
 2299ETH     HC20691   0.964   2.949   5.719 -0.1755  0.0596 -0.7353
 2300ETH     OH20692   0.098   1.853   4.277 -0.8797  0.0374 -0.3676
 2300ETH     CH20693  -0.039   1.818   4.286 -0.8175 -0.0953  0.0394
 2300ETH     CH20694  -0.097   1.825   4.145  0.2041  0.1205 -0.3766
 2300ETH     HO20695   0.098   1.943   4.248 -1.1171  0.1687  0.0426
 2300ETH     HC20696  -0.052   1.715   4.318  1.1611 -0.7611 -1.2077
 2300ETH     HC20697  -0.086   1.882   4.361 -0.2412  0.1173  0.2268
 2300ETH     HC20698  -0.190   1.768   4.142  1.5294 -2.2077  0.9133
 2300ETH     HC20699  -0.096   1.930   4.119 -0.1554  0.3186  0.3893
 2300ETH     HC20700  -0.042   1.770   4.069  1.2976 -1.5051  1.5318
 2301ETH     OH20701   4.505   0.992   3.372  0.1342  0.0503  0.3563
 2301ETH     CH20702   4.489   0.862   3.425 -0.3476  0.1583  0.4762
 2301ETH     CH20703   4.608   0.818   3.509 -0.5643 -0.5572  0.4143
 2301ETH     HO20704   4.509   1.051   3.446 -2.0287  0.3038  0.3068
 2301ETH     HC20705   4.402   0.855   3.491 -0.9234 -0.8881 -0.3647
 2301ETH     HC20706   4.480   0.798   3.337 -0.1236  0.3888  0.2860
 2301ETH     HC20707   4.612   0.863   3.609  0.2482 -1.3813  0.7613
 2301ETH     HC20708   4.621   0.713   3.535  0.0403 -0.8976 -1.1971
 2301ETH     HC20709   4.699   0.842   3.453 -0.5290 -1.5866  0.0166
 2302ETH     OH20710   5.074   5.891   4.641 -0.2715 -1.1934 -0.0031
 2302ETH     CH20711   5.088   5.870   4.780  0.0184  0.1138  0.1746
 2302ETH     CH20712   5.195   5.966   4.832  0.1929  0.1261 -0.2027
 2302ETH     HO20713   5.162   5.894   4.607 -1.4136  1.1611 -2.9835
 2302ETH     HC20714   4.993   5.903   4.820 -0.5532 -2.0438  0.6403
 2302ETH     HC20715   5.117   5.765   4.791  0.3062 -0.0514 -1.8989
 2302ETH     HC20716   5.200   5.947   4.939  0.0708  0.0042 -0.2180
 2302ETH     HC20717   5.293   5.939   4.792 -0.5969 -4.3611  0.5673
 2302ETH     HC20718   5.175   6.073   4.831  0.8524  0.3108  2.6166
 2303ETH     OH20719   5.124   5.147   5.193 -0.3166  0.1944  0.4715
 2303ETH     CH20720   5.148   5.012   5.159  0.1130  0.4244 -0.1537
 2303ETH     CH20721   5.295   4.993   5.125  0.0504 -0.0119 -0.1851
 2303ETH     HO20722   5.055   5.151   5.257  1.5935  1.1527  2.5504
 2303ETH     HC20723   5.111   4.948   5.239  0.3479  0.7313  0.2011
 2303ETH     HC20724   5.085   4.990   5.073 -0.0022 -1.1208  0.3042
 2303ETH     HC20725   5.330   5.069   5.054 -0.4096 -1.1394 -1.6470
 2303ETH     HC20726   5.361   4.999   5.211  0.2548  3.8213 -0.5191
 2303ETH     HC20727   5.314   4.894   5.085 -2.3307 -0.9887  1.0542
 2304ETH     OH20728   4.313   4.843   3.509  0.0648  0.4256  0.2196
 2304ETH     CH20729   4.178   4.883   3.517 -0.0559  0.0502  0.0464
 2304ETH     CH20730   4.099   4.787   3.606 -0.2471  0.4911  0.3517
 2304ETH     HO20731   4.351   4.869   3.592  0.7410 -0.6103  0.2379
 2304ETH     HC20732   4.174   4.985   3.554  0.9092  0.2197 -0.3035
 2304ETH     HC20733   4.132   4.887   3.418  1.0655  0.5664 -0.4574
 2304ETH     HC20734   4.069   4.695   3.558  1.7409  1.5042 -3.0142
 2304ETH     HC20735   4.139   4.768   3.706  2.7007 -0.2362 -0.9065
 2304ETH     HC20736   4.002   4.834   3.624 -0.7734 -0.1891 -0.6769
 2305ETH     OH20737   0.408   5.467   4.010  0.1364  0.3682 -0.1014
 2305ETH     CH20738   0.395   5.490   3.872 -0.0252 -0.1041 -0.1653
 2305ETH     CH20739   0.485   5.385   3.806 -0.0928  0.1434 -0.6536
 2305ETH     HO20740   0.500   5.474   4.033 -0.0924  1.3656  0.5077
 2305ETH     HC20741   0.296   5.483   3.827  0.1660  1.0937 -0.7783
 2305ETH     HC20742   0.427   5.591   3.845 -1.5671 -0.0670 -1.9935
 2305ETH     HC20743   0.589   5.408   3.827 -1.5844  4.8619  2.4990
 2305ETH     HC20744   0.453   5.284   3.833 -0.8573  1.1052  2.2218
 2305ETH     HC20745   0.464   5.375   3.699 -1.6654 -0.1594 -0.3261
 2306ETH     OH20746   2.428   1.320   0.494 -0.0962  0.4231 -0.2704
 2306ETH     CH20747   2.381   1.450   0.524 -0.8996 -0.0500  0.5408
 2306ETH     CH20748   2.325   1.512   0.396 -0.1748 -0.1810  0.1551
 2306ETH     HO20749   2.364   1.265   0.452  0.4328  0.2131 -0.8093
 2306ETH     HC20750   2.297   1.444   0.594 -0.2017  0.5358  1.4264
 2306ETH     HC20751   2.455   1.513   0.571 -1.1822  0.5847  0.1385
 2306ETH     HC20752   2.227   1.470   0.375  0.9935 -2.3784 -0.9593
 2306ETH     HC20753   2.307   1.619   0.412 -1.0969 -0.1057 -1.2676
 2306ETH     HC20754   2.379   1.498   0.303  2.2646  0.5249  1.4244
 2307ETH     OH20755   1.135   0.515   5.751  0.1672 -0.3567 -0.1506
 2307ETH     CH20756   1.047   0.411   5.714  0.0934  0.0370 -1.0909
 2307ETH     CH20757   1.143   0.292   5.715 -0.1240 -0.1342  0.0627
 2307ETH     HO20758   1.101   0.596   5.714 -0.3401  0.0086  1.0955
 2307ETH     HC20759   0.953   0.404   5.768  0.7778 -4.1399 -0.3283
 2307ETH     HC20760   1.023   0.416   5.608 -0.7135 -2.4434 -1.0509
 2307ETH     HC20761   1.079   0.216   5.671  2.0236 -1.6908 -0.4458
 2307ETH     HC20762   1.234   0.311   5.657  0.3830  1.4380  1.3430
 2307ETH     HC20763   1.172   0.265   5.816 -1.1945 -2.1782 -0.1607
 2308ETH     OH20764   4.310   1.281   2.916 -0.0524 -0.3496 -0.2174
 2308ETH     CH20765   4.393   1.375   2.852 -1.0785  0.2145 -0.7240
 2308ETH     CH20766   4.415   1.320   2.711  0.2813 -0.1105 -0.3932
 2308ETH     HO20767   4.351   1.196   2.906 -0.6271 -0.3882 -2.6395
 2308ETH     HC20768   4.481   1.393   2.913 -1.6238  2.3743 -0.5405
 2308ETH     HC20769   4.344   1.472   2.842  2.1567  2.1521  1.3723
 2308ETH     HC20770   4.473   1.395   2.658 -1.2642  2.1032  0.9890
 2308ETH     HC20771   4.482   1.234   2.715  1.0904  0.6364  2.9268
 2308ETH     HC20772   4.324   1.286   2.661  1.1369 -2.5212 -0.3800
 2309ETH     OH20773   4.369   3.829   3.402  0.1556 -0.3938  0.0598
 2309ETH     CH20774   4.363   3.843   3.262  0.3791  0.2352  0.1121
 2309ETH     CH20775   4.422   3.977   3.218 -0.4139  0.5293 -0.0732
 2309ETH     HO20776   4.463   3.823   3.415  0.0977 -0.5071  0.4322
 2309ETH     HC20777   4.395   3.747   3.222  1.4801  1.1318 -1.1830
 2309ETH     HC20778   4.257   3.860   3.240  0.7818 -0.5004 -2.6137
 2309ETH     HC20779   4.525   3.988   3.254 -0.7236 -0.1181  1.0379
 2309ETH     HC20780   4.408   3.990   3.111 -1.2054 -2.8377 -0.4330
 2309ETH     HC20781   4.367   4.062   3.259 -1.1687 -0.1286  0.2925
 2310ETH     OH20782   0.799   0.663   0.179  0.2342  0.3429  0.3740
 2310ETH     CH20783   0.791   0.796   0.224  0.2222  0.3885  0.2375
 2310ETH     CH20784   0.683   0.873   0.147 -0.1628 -0.7138 -0.3333
 2310ETH     HO20785   0.813   0.664   0.085 -1.1203  0.1211  0.1593
 2310ETH     HC20786   0.768   0.793   0.330  1.4590 -1.4174  0.4716
 2310ETH     HC20787   0.880   0.844   0.184  0.3134 -1.1950 -1.5167
 2310ETH     HC20788   0.689   0.867   0.039 -1.2422  1.0033 -0.5009
 2310ETH     HC20789   0.584   0.835   0.171 -0.6556  0.3824 -0.6011
 2310ETH     HC20790   0.695   0.976   0.182  1.8892 -1.4362  1.2089
 2311ETH     OH20791   1.948   6.243   3.985 -0.5405  0.1291 -0.4970
 2311ETH     CH20792   1.948   6.276   3.848  0.4527  0.0791 -0.5132
 2311ETH     CH20793   1.820   6.232   3.778 -0.0346 -0.2398  0.5636
 2311ETH     HO20794   2.010   6.303   4.025 -0.5503 -1.1853  1.5494
 2311ETH     HC20795   1.965   6.384   3.845  3.0796 -0.1917  2.2800
 2311ETH     HC20796   2.041   6.239   3.804  0.7201  0.1222  0.0106
 2311ETH     HC20797   1.821   6.125   3.758  2.6351 -0.0103 -0.7723
 2311ETH     HC20798   1.719   6.248   3.816 -0.4521 -0.0002 -0.5999
 2311ETH     HC20799   1.827   6.277   3.679  0.2245 -0.0975  0.6466
 2312ETH     OH20800   2.176   0.674   0.061  0.1117  0.0791 -0.6780
 2312ETH     CH20801   2.133   0.797   0.008  0.0144  0.3297 -0.0152
 2312ETH     CH20802   1.982   0.814   0.025 -0.0986 -0.3768 -0.3178
 2312ETH     HO20803   2.263   0.693   0.093  0.0456  0.3313 -0.6470
 2312ETH     HC20804   2.194   0.876   0.053 -0.1091  1.0886 -1.1547
 2312ETH     HC20805   2.167   0.805  -0.095 -1.7045 -0.4180 -0.6601
 2312ETH     HC20806   1.921   0.749  -0.037 -0.1209  0.5145 -1.2339
 2312ETH     HC20807   1.967   0.779   0.128  0.8760 -1.0433 -0.4034
 2312ETH     HC20808   1.951   0.918   0.016 -0.7337 -0.7607 -2.8088
 2313ETH     OH20809   3.834   1.862   5.279  0.3759 -0.2375 -0.2580
 2313ETH     CH20810   3.890   1.984   5.235  0.0087  0.3212  0.7961
 2313ETH     CH20811   3.842   2.020   5.095  0.1930  0.2088  0.7050
 2313ETH     HO20812   3.874   1.843   5.363  0.8552  0.3488 -0.3439
 2313ETH     HC20813   3.861   2.067   5.299 -1.5380  1.3849 -1.2287
 2313ETH     HC20814   3.998   1.973   5.245  0.2632  1.5785 -0.4052
 2313ETH     HC20815   3.882   2.120   5.073 -0.1441  0.5586  1.6636
 2313ETH     HC20816   3.874   1.954   5.014  0.9432  2.8442 -1.2231
 2313ETH     HC20817   3.734   2.027   5.099  0.1525  0.7879 -0.7517
 2314ETH     OH20818   5.740   5.455   3.267 -0.0860  0.1096 -0.1170
 2314ETH     CH20819   5.712   5.584   3.316 -0.2300 -0.0381  0.1868
 2314ETH     CH20820   5.561   5.603   3.334 -0.0847  0.5770  0.7621
 2314ETH     HO20821   5.734   5.398   3.342  2.6666 -0.4039 -0.2111
 2314ETH     HC20822   5.769   5.587   3.409 -0.4440  2.4048  0.2798
 2314ETH     HC20823   5.753   5.659   3.249  0.3006  0.5582  1.1669
 2314ETH     HC20824   5.523   5.518   3.391 -1.3573  0.5141 -0.1764
 2314ETH     HC20825   5.544   5.696   3.389  0.5518  0.8711  0.4651
 2314ETH     HC20826   5.497   5.603   3.246  0.8826 -3.3053 -0.0105
 2315ETH     OH20827   2.747   2.125   5.694 -0.0089  0.7351  0.1833
 2315ETH     CH20828   2.767   2.054   5.814  0.4629 -0.1325 -0.4050
 2315ETH     CH20829   2.908   2.088   5.864 -0.0257  0.3582  0.6338
 2315ETH     HO20830   2.666   2.102   5.651  0.7808  1.1344 -1.5523
 2315ETH     HC20831   2.761   1.947   5.793  1.7957 -0.2074 -0.4786
 2315ETH     HC20832   2.689   2.077   5.886  0.3832 -0.5524 -0.3537
 2315ETH     HC20833   2.947   2.018   5.938  0.6662 -1.5284 -1.4709
 2315ETH     HC20834   2.981   2.080   5.784  2.0775  1.7520  2.3787
 2315ETH     HC20835   2.924   2.194   5.886  0.6122  0.9379 -2.4956
 2316ETH     OH20836   5.443   4.029   4.656 -0.0285  0.1219 -0.0118
 2316ETH     CH20837   5.353   3.972   4.748  0.2647 -0.1801  0.0923
 2316ETH     CH20838   5.400   3.843   4.814 -0.2526 -0.3396  0.1555
 2316ETH     HO20839   5.393   4.096   4.611  0.3668  0.2218 -0.3101
 2316ETH     HC20840   5.334   4.049   4.823  1.2474 -0.9272  1.1288
 2316ETH     HC20841   5.260   3.955   4.694  0.3814 -1.1092  0.1826
 2316ETH     HC20842   5.485   3.870   4.878  0.5352  2.0917 -1.8383
 2316ETH     HC20843   5.321   3.810   4.881  0.0755  2.1591  1.8548
 2316ETH     HC20844   5.428   3.767   4.741 -0.1679  0.6722 -0.8868
 2317ETH     OH20845   3.860   0.231   4.977 -0.6332  0.3628  0.1010
 2317ETH     CH20846   3.829   0.245   4.840 -0.3430 -0.2683 -0.0335
 2317ETH     CH20847   3.689   0.303   4.822 -0.1471 -0.0052 -0.7317
 2317ETH     HO20848   3.951   0.210   4.988 -0.4586  2.1417  2.3303
 2317ETH     HC20849   3.891   0.310   4.778 -3.0781  0.6404 -1.9370
 2317ETH     HC20850   3.833   0.150   4.787 -1.7902 -0.5935  0.4173
 2317ETH     HC20851   3.609   0.233   4.844 -0.3084  1.2001  2.8245
 2317ETH     HC20852   3.662   0.395   4.875  0.0466 -0.1303 -0.4160
 2317ETH     HC20853   3.679   0.324   4.715  1.2191 -1.6391 -1.1971
 2318ETH     OH20854   5.996   2.092   0.236  0.2715 -0.0892  0.3823
 2318ETH     CH20855   6.125   2.145   0.215 -0.0310  0.6974  0.4690
 2318ETH     CH20856   6.124   2.201   0.073  0.1895  0.5593  0.4115
 2318ETH     HO20857   5.992   2.011   0.188 -0.5741 -0.0351  0.3610
 2318ETH     HC20858   6.149   2.218   0.292 -0.5269  3.1926 -1.6894
 2318ETH     HC20859   6.192   2.058   0.220 -3.4105 -2.0419 -0.2286
 2318ETH     HC20860   6.069   2.295   0.063 -0.7698 -0.0705 -0.2505
 2318ETH     HC20861   6.225   2.241   0.064  0.8381 -0.7953  1.5333
 2318ETH     HC20862   6.103   2.127  -0.004  1.7587  1.1538 -0.6080
 2319ETH     OH20863   5.620   1.915   5.945  0.1654  0.1264  0.0400
 2319ETH     CH20864   5.576   2.044   5.909 -0.4744  0.1707  0.9761
 2319ETH     CH20865   5.548   2.073   5.762  0.6350  0.3415  0.7945
 2319ETH     HO20866   5.558   1.861   5.899  0.5850 -1.7249  1.5621
 2319ETH     HC20867   5.493   2.059   5.979 -2.2596  0.1127 -1.0986
 2319ETH     HC20868   5.649   2.117   5.947  0.1890  0.4001 -0.7186
 2319ETH     HC20869   5.559   2.181   5.752  0.9395  0.1382 -1.4432
 2319ETH     HC20870   5.616   2.024   5.692 -1.5047  1.4429 -2.1496
 2319ETH     HC20871   5.450   2.042   5.727  0.4618 -0.3773  1.8802
 2320ETH     OH20872   3.651   3.630   1.361  0.4151  0.0097  0.4326
 2320ETH     CH20873   3.612   3.612   1.496 -0.2308 -0.0427  0.2403
 2320ETH     CH20874   3.695   3.508   1.572  0.1086  0.1153  0.0854
 2320ETH     HO20875   3.706   3.706   1.352  0.2974 -0.0171 -0.5713
 2320ETH     HC20876   3.626   3.714   1.530  3.3585 -0.5832  0.5660
 2320ETH     HC20877   3.506   3.584   1.495 -0.7468  1.6531  3.4936
 2320ETH     HC20878   3.787   3.556   1.605 -0.3965  2.5574 -1.8421
 2320ETH     HC20879   3.638   3.481   1.661  1.9202 -0.1329  1.1890
 2320ETH     HC20880   3.728   3.423   1.513  0.4776  0.2839  0.0500
 2321ETH     OH20881   1.904   4.447   3.398 -0.4374 -0.9161 -0.5074
 2321ETH     CH20882   1.834   4.363   3.487 -0.2614 -0.2460  0.2696
 2321ETH     CH20883   1.907   4.353   3.621  0.7250  0.2665 -0.2239
 2321ETH     HO20884   1.851   4.465   3.322  0.0254 -0.5598 -0.7465
 2321ETH     HC20885   1.739   4.410   3.512 -0.4236  0.8718 -2.3354
 2321ETH     HC20886   1.814   4.262   3.450  0.9548  0.0645 -1.2683
 2321ETH     HC20887   1.903   4.449   3.673  0.3350 -0.3053  0.8159
 2321ETH     HC20888   1.852   4.287   3.688  0.7233  1.3125  0.8190
 2321ETH     HC20889   2.008   4.316   3.603  1.2642  0.8068  1.5886
 2322ETH     OH20890   3.870   1.327   6.104 -0.4184  0.3019  0.2551
 2322ETH     CH20891   3.960   1.392   6.191  0.7247 -0.6350 -0.1935
 2322ETH     CH20892   4.011   1.518   6.122  0.3218  0.0664  0.7641
 2322ETH     HO20893   3.922   1.292   6.033  0.4760 -0.4428  1.2654
 2322ETH     HC20894   3.906   1.437   6.275 -0.0231  0.4913 -1.2458
 2322ETH     HC20895   4.039   1.326   6.226 -0.8203 -1.2874  2.2810
 2322ETH     HC20896   3.927   1.569   6.074  0.5461 -0.9577 -0.7781
 2322ETH     HC20897   4.038   1.598   6.190 -2.4099  0.0344  1.9419
 2322ETH     HC20898   4.085   1.492   6.045 -0.6879  1.1032 -0.5923
 2323ETH     OH20899   4.171   0.125   2.374 -0.8565 -0.1957  0.2615
 2323ETH     CH20900   4.058   0.138   2.290 -0.3519 -0.1032 -0.4020
 2323ETH     CH20901   3.992   0.275   2.303  0.9052  0.3805  0.9343
 2323ETH     HO20902   4.235   0.181   2.334 -0.5191 -0.4668  0.4248
 2323ETH     HC20903   4.092   0.109   2.190  0.8182 -0.8427  0.2092
 2323ETH     HC20904   3.996   0.053   2.316  0.1364 -0.3191  0.0578
 2323ETH     HC20905   4.052   0.363   2.278  0.6671  0.5466  0.9451
 2323ETH     HC20906   3.901   0.288   2.246  1.4194 -2.8215 -0.6790
 2323ETH     HC20907   3.962   0.291   2.407 -0.3076  0.1574  0.6233
 2324ETH     OH20908   2.703   1.172   2.225  0.2567 -0.7687  0.1217
 2324ETH     CH20909   2.816   1.256   2.222 -0.1620 -0.2088 -0.0979
 2324ETH     CH20910   2.949   1.181   2.230 -0.0681 -0.0339 -0.0298
 2324ETH     HO20911   2.630   1.207   2.176 -0.3405 -0.7574  0.9888
 2324ETH     HC20912   2.808   1.314   2.131 -1.4817  0.1911  0.2669
 2324ETH     HC20913   2.823   1.322   2.308  0.8932  1.1711 -1.2329
 2324ETH     HC20914   3.038   1.239   2.203  0.3238 -0.1996  0.8841
 2324ETH     HC20915   2.961   1.151   2.334 -1.4742  0.5380  0.3035
 2324ETH     HC20916   2.951   1.092   2.166  0.7158 -1.4302  1.8974
 2325ETH     OH20917   4.902   0.348   2.932 -0.3183 -0.1747 -0.0097
 2325ETH     CH20918   4.836   0.300   3.047 -0.1677 -0.1552  0.0845
 2325ETH     CH20919   4.907   0.171   3.088  0.3923  0.0743 -0.1552
 2325ETH     HO20920   4.857   0.334   2.850  1.3163  2.3325 -1.3986
 2325ETH     HC20921   4.838   0.374   3.127  2.1125  1.4489 -1.4073
 2325ETH     HC20922   4.731   0.282   3.025 -0.0110 -2.0559  0.8183
 2325ETH     HC20923   4.894   0.139   3.191 -2.1057  1.1354 -0.1043
 2325ETH     HC20924   4.861   0.092   3.028  0.1953 -0.2081  0.3623
 2325ETH     HC20925   5.011   0.181   3.059  0.9788 -2.9404  0.6796
 2326ETH     OH20926   2.926   0.656   2.356 -0.1681 -0.3366 -0.4275
 2326ETH     CH20927   2.853   0.625   2.473 -0.0356  0.0965 -0.2294
 2326ETH     CH20928   2.829   0.474   2.471  0.2258  0.0503  0.1529
 2326ETH     HO20929   2.901   0.741   2.322 -0.2196 -0.5203 -0.8575
 2326ETH     HC20930   2.913   0.651   2.560 -0.7367 -1.1923  0.6527
 2326ETH     HC20931   2.755   0.673   2.480  0.3783  0.6641  2.0458
 2326ETH     HC20932   2.927   0.428   2.460  0.9589  1.5154  0.4250
 2326ETH     HC20933   2.771   0.432   2.553  1.0234  1.3231  1.4077
 2326ETH     HC20934   2.774   0.464   2.378  1.8318 -1.4915 -0.6602
 2327ETH     OH20935   4.882   5.159   5.282  0.0225 -0.2066  0.2070
 2327ETH     CH20936   4.827   5.114   5.404 -0.0438  0.0699  0.2823
 2327ETH     CH20937   4.748   5.225   5.473  0.2507  0.3122  0.2275
 2327ETH     HO20938   4.803   5.180   5.235 -0.5639  1.8530  2.0274
 2327ETH     HC20939   4.762   5.030   5.379  0.4445 -0.0946 -0.4512
 2327ETH     HC20940   4.910   5.071   5.460  0.1207 -0.0398 -0.0425
 2327ETH     HC20941   4.666   5.250   5.407  0.0433 -2.8577 -0.7984
 2327ETH     HC20942   4.704   5.191   5.567 -1.3147 -2.8052 -1.5643
 2327ETH     HC20943   4.802   5.318   5.491  1.2942 -0.5939  1.9440
 2328ETH     OH20944   1.233   0.024   4.092  0.0181  0.7695 -0.2189
 2328ETH     CH20945   1.268  -0.103   4.041  0.3427  0.6772  0.2315
 2328ETH     CH20946   1.144  -0.191   4.059  0.4327  0.4354 -0.2975
 2328ETH     HO20947   1.160   0.054   4.040  1.2216  1.1710 -1.6940
 2328ETH     HC20948   1.350  -0.137   4.104 -1.3675  0.3190  2.3147
 2328ETH     HC20949   1.313  -0.102   3.942  0.7730  1.4670  0.4398
 2328ETH     HC20950   1.094  -0.189   3.962  0.4062  4.6152 -0.2943
 2328ETH     HC20951   1.172  -0.290   4.094  1.5004  0.7541 -0.2365
 2328ETH     HC20952   1.075  -0.156   4.137 -0.1251 -1.9872  0.3242
 2329ETH     OH20953   5.125   5.939   1.050  0.4007  0.4651  0.2942
 2329ETH     CH20954   5.157   5.829   1.132  0.0669 -0.0815 -0.3007
 2329ETH     CH20955   5.283   5.758   1.082  0.6291  0.5607  0.1896
 2329ETH     HO20956   5.205   5.989   1.043 -0.4522  1.6252 -1.7078
 2329ETH     HC20957   5.159   5.863   1.236  2.3079  1.3572 -0.7762
 2329ETH     HC20958   5.071   5.763   1.125  0.2958 -0.6542  1.7463
 2329ETH     HC20959   5.272   5.732   0.977  1.3525 -0.9937  0.4942
 2329ETH     HC20960   5.367   5.827   1.088  0.7877  0.2842  1.3800
 2329ETH     HC20961   5.313   5.671   1.141  0.0223  0.3182  0.1396
 2330ETH     OH20962   0.909   0.110   3.659 -0.3313 -0.1766 -0.3175
 2330ETH     CH20963   1.008   0.112   3.558  0.4475 -0.0260  0.4462
 2330ETH     CH20964   1.128   0.020   3.578  0.8924  0.4806  0.1282
 2330ETH     HO20965   0.846   0.179   3.646 -0.4813 -0.4848 -1.2515
 2330ETH     HC20966   0.958   0.099   3.463  2.3859  1.0452 -0.7509
 2330ETH     HC20967   1.042   0.216   3.566 -1.4310  0.6162  0.4008
 2330ETH     HC20968   1.175   0.040   3.674  0.1127  2.0764  0.1922
 2330ETH     HC20969   1.099  -0.085   3.592 -1.0306  1.3626  3.4311
 2330ETH     HC20970   1.203   0.036   3.501  0.6452 -0.0383 -0.2299
 2331ETH     OH20971   2.905   0.316   4.498 -0.2956  0.0218 -0.1602
 2331ETH     CH20972   2.993   0.215   4.454 -0.1790 -0.0811  0.2993
 2331ETH     CH20973   2.923   0.141   4.339 -0.7552  0.8207  0.0607
 2331ETH     HO20974   2.888   0.363   4.418  0.3633  0.6176  0.0436
 2331ETH     HC20975   3.094   0.244   4.426 -0.4520  0.4105 -0.1884
 2331ETH     HC20976   2.992   0.137   4.530 -1.4285  1.4762  1.8909
 2331ETH     HC20977   2.819   0.114   4.357 -0.8458  0.2967 -1.2425
 2331ETH     HC20978   2.934   0.177   4.237  3.9076 -0.1827  0.0826
 2331ETH     HC20979   2.974   0.045   4.333  1.0617  1.6974  1.0120
 2332ETH     OH20980   3.334   4.813   3.702 -0.7920 -0.7492 -0.0713
 2332ETH     CH20981   3.365   4.686   3.755  0.3729 -0.5638 -0.2933
 2332ETH     CH20982   3.426   4.598   3.646  0.3481 -1.1850  0.1956
 2332ETH     HO20983   3.273   4.854   3.761  1.4483 -0.2155  1.9836
 2332ETH     HC20984   3.441   4.683   3.833  0.7846  0.7132 -0.6317
 2332ETH     HC20985   3.274   4.636   3.787  0.1872 -2.9473 -4.2115
 2332ETH     HC20986   3.511   4.659   3.615  0.3307 -2.4567 -2.5141
 2332ETH     HC20987   3.444   4.500   3.692  0.5182  0.0927  2.9452
 2332ETH     HC20988   3.365   4.590   3.556 -1.9657  0.8244  1.5316
 2333ETH     OH20989   3.269   5.541   3.165  0.2194 -0.5098 -0.1841
 2333ETH     CH20990   3.129   5.538   3.182  0.2539 -0.0197  0.1662
 2333ETH     CH20991   3.109   5.605   3.318 -0.1628 -0.3473  0.2658
 2333ETH     HO20992   3.308   5.486   3.231  0.1898 -0.1423  0.1362
 2333ETH     HC20993   3.081   5.594   3.102  1.1283 -1.4489 -1.3940
 2333ETH     HC20994   3.107   5.432   3.186 -0.5752  0.0725 -1.6477
 2333ETH     HC20995   3.153   5.548   3.400 -0.3626  0.7805  1.1743
 2333ETH     HC20996   3.154   5.704   3.323  1.2580 -0.9301 -0.7095
 2333ETH     HC20997   3.005   5.623   3.345  0.3093  0.9512  1.2775
 2334ETH     OH20998   0.692   5.548   3.514 -0.6940 -0.2864 -0.2711
 2334ETH     CH20999   0.747   5.558   3.644  0.0154 -0.2104 -0.5772
 2334ETH     CH21000   0.899   5.576   3.648 -0.0231  0.1432 -0.6186
 2334ETH     HO21001   0.696   5.457   3.488 -0.2115 -0.6611  1.0482
 2334ETH     HC21002   0.697   5.649   3.678  0.7549  0.2735 -0.7675
 2334ETH     HC21003   0.720   5.466   3.694 -0.0829 -0.1973 -0.6054
 2334ETH     HC21004   0.946   5.611   3.740  0.0224 -0.4270 -0.4224
 2334ETH     HC21005   0.940   5.477   3.628  0.4487 -0.1758  1.7740
 2334ETH     HC21006   0.935   5.633   3.563  0.4928  1.5808  0.5499
 2335ETH     OH21007   1.109   4.779   1.123  0.0594  0.2310  0.0016
 2335ETH     CH21008   1.203   4.735   1.028 -0.2474 -0.0225 -0.1823
 2335ETH     CH21009   1.149   4.698   0.889  0.4977 -0.4891 -0.3469
 2335ETH     HO21010   1.121   4.873   1.122 -1.5249  0.5034  2.2703
 2335ETH     HC21011   1.253   4.647   1.068 -2.6073 -0.8101  1.1824
 2335ETH     HC21012   1.281   4.811   1.021 -1.2567  1.2110  1.4823
 2335ETH     HC21013   1.225   4.641   0.835 -0.4869  0.0969 -2.3483
 2335ETH     HC21014   1.054   4.644   0.893  0.8914 -1.3188 -1.9761
 2335ETH     HC21015   1.126   4.794   0.843 -0.6502 -1.0871 -1.0250
 2336ETH     OH21016   4.817   2.356   4.213 -0.0297  0.1765  0.4285
 2336ETH     CH21017   4.701   2.285   4.177 -0.3041  0.6811  0.3085
 2336ETH     CH21018   4.646   2.342   4.046  0.1910 -0.6359 -0.4879
 2336ETH     HO21019   4.880   2.333   4.147 -0.2559 -0.2518  0.3603
 2336ETH     HC21020   4.727   2.179   4.176  1.4519  1.0965 -1.2795
 2336ETH     HC21021   4.630   2.292   4.259 -0.3462 -2.8358  0.6445
 2336ETH     HC21022   4.555   2.292   4.014 -1.4029  0.1039  2.6210
 2336ETH     HC21023   4.630   2.449   4.061  2.2673 -0.3454 -0.1136
 2336ETH     HC21024   4.712   2.336   3.959 -0.5172 -1.1991 -0.9805
 2337ETH     OH21025   1.104   2.155   1.851  0.3095 -0.1400  0.5705
 2337ETH     CH21026   1.076   2.093   1.975 -0.1794 -0.0754  0.4935
 2337ETH     CH21027   1.145   1.957   1.983 -0.0424 -0.0573 -0.3364
 2337ETH     HO21028   1.061   2.238   1.840  1.3818  0.4380  0.7535
 2337ETH     HC21029   1.080   2.158   2.063  1.3596 -0.0371  0.4133
 2337ETH     HC21030   0.969   2.073   1.965 -0.3447  1.4309 -0.9036
 2337ETH     HC21031   1.110   1.914   2.077 -0.7693  1.9083  0.3065
 2337ETH     HC21032   1.117   1.887   1.904 -0.5357 -0.3750  0.1161
 2337ETH     HC21033   1.254   1.956   1.986 -0.0087 -0.9300 -1.6362
 2338ETH     OH21034   3.891   3.275   1.361 -0.4752  0.4115 -0.7997
 2338ETH     CH21035   3.986   3.378   1.350  0.5338 -0.3943  0.2725
 2338ETH     CH21036   4.066   3.368   1.220 -0.8112 -0.2187 -0.5830
 2338ETH     HO21037   3.941   3.196   1.377 -2.2778 -0.5976  0.0331
 2338ETH     HC21038   3.938   3.475   1.340  0.1340 -0.8413 -2.4877
 2338ETH     HC21039   4.050   3.395   1.437  2.9516  0.3771 -1.6007
 2338ETH     HC21040   4.004   3.347   1.133  0.0562  1.6364 -1.6851
 2338ETH     HC21041   4.133   3.453   1.210  0.6820 -1.3561 -0.5513
 2338ETH     HC21042   4.140   3.288   1.231  0.8862  1.0416 -2.4134
 2339ETH     OH21043   2.604   6.158   4.883 -0.0354  0.7240 -0.2837
 2339ETH     CH21044   2.561   6.110   5.008  0.4051  0.2095 -0.3259
 2339ETH     CH21045   2.485   6.221   5.083 -0.0664 -0.0418 -0.4289
 2339ETH     HO21046   2.685   6.116   4.857 -0.3902  1.6691 -3.0935
 2339ETH     HC21047   2.491   6.027   4.999  2.3128 -1.6275  1.4184
 2339ETH     HC21048   2.653   6.081   5.058  0.3092  1.2090  0.4581
 2339ETH     HC21049   2.537   6.317   5.081 -0.2185  0.0480 -0.0150
 2339ETH     HC21050   2.389   6.234   5.033 -0.1710  1.8326  0.2363
 2339ETH     HC21051   2.449   6.198   5.183 -0.6196  0.3930 -0.5269
 2340ETH     OH21052   3.968   3.799   3.014  0.0450 -0.3765 -0.1196
 2340ETH     CH21053   4.063   3.695   3.008  0.0839 -0.3325 -0.2751
 2340ETH     CH21054   4.153   3.707   2.885  0.4527  0.0009  0.0248
 2340ETH     HO21055   3.914   3.793   3.092 -0.2057 -1.7615 -0.3988
 2340ETH     HC21056   4.126   3.703   3.097  1.1696 -0.5247 -1.0149
 2340ETH     HC21057   4.006   3.602   3.018 -0.4130  0.2628  3.2683
 2340ETH     HC21058   4.237   3.638   2.886  0.7816  0.3928 -0.2296
 2340ETH     HC21059   4.100   3.710   2.789  1.0971 -0.8086 -0.3526
 2340ETH     HC21060   4.215   3.797   2.888  1.5996 -0.7988  0.4533
 2341ETH     OH21061   3.451   3.073   1.258  0.2675 -0.3050 -0.1336
 2341ETH     CH21062   3.396   3.104   1.384 -0.0237 -0.4622 -0.2203
 2341ETH     CH21063   3.291   2.998   1.418 -0.3653 -0.0390  0.0395
 2341ETH     HO21064   3.506   3.140   1.222 -0.5074  1.0659  1.1614
 2341ETH     HC21065   3.475   3.119   1.458  0.1668 -0.6658 -0.3835
 2341ETH     HC21066   3.351   3.203   1.391  0.1703 -0.5520  2.9753
 2341ETH     HC21067   3.221   2.992   1.335 -1.0023  1.4253  0.4441
 2341ETH     HC21068   3.333   2.902   1.446 -3.9131 -0.7556  3.3225
 2341ETH     HC21069   3.232   3.030   1.504 -2.0305  0.1981 -1.1763
 2342ETH     OH21070   1.113   2.403   0.021  0.1101  0.0148  0.0587
 2342ETH     CH21071   1.018   2.505   0.002 -0.2066 -0.3746 -0.4653
 2342ETH     CH21072   1.039   2.555  -0.141  0.3553 -0.4088 -0.3948
 2342ETH     HO21073   1.097   2.365   0.106 -0.4945 -0.2716 -0.1840
 2342ETH     HC21074   0.916   2.472   0.024 -0.6169 -0.3480 -2.2418
 2342ETH     HC21075   1.050   2.581   0.074 -0.3020  0.9216 -1.7524
 2342ETH     HC21076   1.142   2.592  -0.146  0.4123 -0.5770 -0.4597
 2342ETH     HC21077   1.030   2.469  -0.207 -3.3696  0.1919 -0.7627
 2342ETH     HC21078   0.982   2.638  -0.183 -0.1477 -0.8597 -0.6058
 2343ETH     OH21079   1.356   0.872   1.643 -0.0303  0.2942  0.6165
 2343ETH     CH21080   1.355   1.008   1.608 -0.0158  0.0563 -0.3320
 2343ETH     CH21081   1.288   1.077   1.727 -0.6847 -0.3386 -0.4766
 2343ETH     HO21082   1.407   0.858   1.721  0.6292 -0.2798  0.0946
 2343ETH     HC21083   1.452   1.055   1.593 -0.1336  0.4805  0.2184
 2343ETH     HC21084   1.292   1.026   1.521  0.2467 -0.1641 -0.5677
 2343ETH     HC21085   1.267   1.181   1.703 -0.9927 -0.6268 -1.4703
 2343ETH     HC21086   1.202   1.020   1.763 -0.9695 -0.3844 -1.2259
 2343ETH     HC21087   1.352   1.072   1.815 -0.2938 -0.6766 -0.7768
 2344ETH     OH21088   1.666   2.786   6.236 -0.4984 -0.3424  0.0827
 2344ETH     CH21089   1.778   2.793   6.321 -0.0880 -0.2699 -0.4573
 2344ETH     CH21090   1.867   2.668   6.328 -0.1200 -0.2838 -0.2859
 2344ETH     HO21091   1.608   2.729   6.284 -0.8031  0.9973  1.3264
 2344ETH     HC21092   1.841   2.882   6.314 -0.2603 -0.0978  0.1200
 2344ETH     HC21093   1.730   2.812   6.417 -3.5157 -2.3784 -1.6439
 2344ETH     HC21094   1.938   2.664   6.410  1.0200  0.3879 -1.2317
 2344ETH     HC21095   1.806   2.579   6.347 -2.5490  1.6064  1.1282
 2344ETH     HC21096   1.917   2.649   6.234  0.9461  0.7295  0.0651
 2345ETH     OH21097   1.183   3.279   4.696 -0.0276  0.1758  0.4699
 2345ETH     CH21098   1.322   3.305   4.694 -0.0945  0.4701 -0.4714
 2345ETH     CH21099   1.395   3.205   4.605 -0.3335 -0.2419  0.1273
 2345ETH     HO21100   1.145   3.362   4.719  0.2036 -0.1872  2.2628
 2345ETH     HC21101   1.338   3.406   4.655 -2.6426  0.0775 -2.6843
 2345ETH     HC21102   1.369   3.301   4.793  2.3463 -0.4738 -1.6265
 2345ETH     HC21103   1.371   3.207   4.498  1.7349  0.7870 -0.3398
 2345ETH     HC21104   1.501   3.226   4.607 -0.6923  1.5111  1.4582
 2345ETH     HC21105   1.379   3.104   4.643  2.9739 -0.3397  1.3731
 2346ETH     OH21106   2.082   4.366   2.718 -0.2392 -0.5567  0.0263
 2346ETH     CH21107   2.026   4.394   2.592 -0.4292  0.0741  0.2495
 2346ETH     CH21108   2.139   4.428   2.494 -0.1657  0.1491  0.5780
 2346ETH     HO21109   2.111   4.278   2.736  1.1318  0.1466  1.3298
 2346ETH     HC21110   1.961   4.313   2.560  0.4687 -0.3807 -0.4417
 2346ETH     HC21111   1.967   4.484   2.610  0.3154  0.5505  0.3369
 2346ETH     HC21112   2.101   4.468   2.400  0.2826 -0.1226  0.2816
 2346ETH     HC21113   2.202   4.500   2.546 -1.0140  0.3687  1.3162
 2346ETH     HC21114   2.179   4.330   2.470  3.5853  1.5088  0.9741
 2347ETH     OH21115   5.791   2.905   0.235 -0.0639  0.1076 -0.3275
 2347ETH     CH21116   5.892   2.851   0.152 -0.2344  0.4249 -0.7455
 2347ETH     CH21117   5.861   2.882   0.006  0.4577 -0.0153 -0.9859
 2347ETH     HO21118   5.779   2.851   0.311  1.1274  0.5498  0.1717
 2347ETH     HC21119   5.979   2.891   0.204 -0.0754 -1.5843  0.5972
 2347ETH     HC21120   5.885   2.742   0.157 -0.5553  0.4631 -0.2658
 2347ETH     HC21121   5.771   2.832  -0.029  0.3344 -2.1958  2.3244
 2347ETH     HC21122   5.853   2.991   0.003 -0.5277 -0.0747 -0.6247
 2347ETH     HC21123   5.948   2.873  -0.060  0.0707  0.5673 -1.5862
 2348ETH     OH21124   0.691   2.587   0.688  0.6681  0.1220 -0.0903
 2348ETH     CH21125   0.707   2.488   0.589  0.2757 -0.2053  0.1735
 2348ETH     CH21126   0.611   2.370   0.608 -0.2174  0.1040 -0.3992
 2348ETH     HO21127   0.746   2.660   0.664  0.6778  0.3156  0.4956
 2348ETH     HC21128   0.693   2.521   0.486  0.4247  0.8119  0.4722
 2348ETH     HC21129   0.810   2.452   0.595  0.4362  0.1348 -0.5727
 2348ETH     HC21130   0.634   2.283   0.547 -0.4077 -0.4940  0.3739
 2348ETH     HC21131   0.603   2.358   0.716  0.2547  1.3827 -0.2089
 2348ETH     HC21132   0.510   2.404   0.583 -0.2329 -0.3115 -0.8898
 2349ETH     OH21133   0.516   2.705   6.157  0.1582  0.0070 -0.0399
 2349ETH     CH21134   0.651   2.668   6.171  0.0033 -0.5944 -0.1282
 2349ETH     CH21135   0.689   2.692   6.317 -0.8268  0.6329 -0.1096
 2349ETH     HO21136   0.508   2.799   6.169 -0.0281 -0.2020  1.5808
 2349ETH     HC21137   0.672   2.564   6.144  2.3561  0.2910 -1.8867
 2349ETH     HC21138   0.711   2.735   6.110  2.1818 -0.0859  2.4935
 2349ETH     HC21139   0.658   2.791   6.352  1.0617  1.8824 -1.8447
 2349ETH     HC21140   0.644   2.614   6.378 -0.9420  1.6558  1.1531
 2349ETH     HC21141   0.798   2.687   6.324 -0.8231  1.8257  0.9049
 2350ETH     OH21142   0.500   4.688   1.283  0.3538 -0.0272 -0.5359
 2350ETH     CH21143   0.375   4.679   1.219 -0.1408 -0.1677  0.4286
 2350ETH     CH21144   0.272   4.692   1.331 -0.0483  0.0886  0.4847
 2350ETH     HO21145   0.563   4.663   1.218  0.2590 -2.1465  0.1314
 2350ETH     HC21146   0.349   4.759   1.148  2.2474  0.7442  0.5383
 2350ETH     HC21147   0.355   4.585   1.169 -0.0080 -1.3050  2.4726
 2350ETH     HC21148   0.307   4.772   1.397 -0.7056  1.3453 -0.6771
 2350ETH     HC21149   0.180   4.720   1.281  1.5934  0.5960 -2.3337
 2350ETH     HC21150   0.264   4.601   1.390  1.3284 -0.9059 -0.8203
 2351ETH     OH21151   3.601   4.114   4.253  0.3392  0.1831 -0.6065
 2351ETH     CH21152   3.730   4.170   4.260  0.2450  0.3051  0.2311
 2351ETH     CH21153   3.747   4.276   4.368  0.6269  0.0949  0.3768
 2351ETH     HO21154   3.610   4.025   4.284 -0.2979  0.7982  1.3860
 2351ETH     HC21155   3.800   4.086   4.270  0.7346  0.8982  1.9730
 2351ETH     HC21156   3.755   4.224   4.168  1.6879  1.7557  1.4538
 2351ETH     HC21157   3.701   4.248   4.463  2.2619  1.4137  1.5964
 2351ETH     HC21158   3.850   4.313   4.377  0.3999  1.6701 -2.7403
 2351ETH     HC21159   3.695   4.367   4.339  1.8211  0.2826 -1.2444
 2352ETH     OH21160   1.237   5.712   4.079  0.1024  0.0083 -0.2414
 2352ETH     CH21161   1.119   5.693   4.004 -0.0347  0.0539 -0.0376
 2352ETH     CH21162   0.999   5.700   4.099 -0.1729 -0.0172 -0.2062
 2352ETH     HO21163   1.220   5.658   4.154 -1.2087  0.5487 -0.1245
 2352ETH     HC21164   1.109   5.768   3.925  0.1441 -0.8618 -0.9512
 2352ETH     HC21165   1.115   5.593   3.961 -0.6798 -0.1916  0.5822
 2352ETH     HC21166   1.007   5.805   4.125 -0.0017 -0.6240  2.3771
 2352ETH     HC21167   0.900   5.680   4.058 -1.8759  1.0516  3.1900
 2352ETH     HC21168   1.023   5.635   4.183 -1.6957  0.3807  0.5597
 2353ETH     OH21169   1.872   3.501   5.836  0.7319 -0.3990  0.8795
 2353ETH     CH21170   1.906   3.422   5.947  0.0821 -0.0734  1.3110
 2353ETH     CH21171   1.793   3.319   5.953 -0.2050  0.1539 -0.0980
 2353ETH     HO21172   1.795   3.552   5.854  0.3561 -0.5878 -0.1146
 2353ETH     HC21173   2.001   3.370   5.935 -0.1899 -0.2486 -0.1705
 2353ETH     HC21174   1.913   3.494   6.029 -1.6079 -0.0460  1.4494
 2353ETH     HC21175   1.699   3.372   5.968 -0.2474  0.0869 -0.1232
 2353ETH     HC21176   1.778   3.274   5.854 -1.4351  0.0033  0.1460
 2353ETH     HC21177   1.804   3.251   6.038  0.4855  0.2617 -0.0958
 2354ETH     OH21178   1.377   0.476   3.110  0.0862 -0.1609 -0.9402
 2354ETH     CH21179   1.320   0.354   3.151  0.1729  0.3833  0.8399
 2354ETH     CH21180   1.178   0.380   3.199 -0.2179  0.6904 -0.4600
 2354ETH     HO21181   1.469   0.469   3.088  0.5229 -0.1524  0.8093
 2354ETH     HC21182   1.326   0.289   3.063  1.0686  1.0823  0.3716
 2354ETH     HC21183   1.386   0.313   3.228 -2.0515 -3.6897  0.6955
 2354ETH     HC21184   1.107   0.428   3.131 -1.8218 -1.3796 -0.2863
 2354ETH     HC21185   1.131   0.285   3.224 -3.6552  2.4427  0.0736
 2354ETH     HC21186   1.182   0.443   3.288  3.1423  2.2121 -1.5947
 2355ETH     OH21187   4.339   2.104   2.986 -0.1607 -0.6915  0.1282
 2355ETH     CH21188   4.431   2.041   2.899  0.0232  0.0775 -0.2427
 2355ETH     CH21189   4.423   2.108   2.762  0.2314  0.3459 -0.1237
 2355ETH     HO21190   4.353   2.198   2.991  0.9227 -0.9320  1.9316
 2355ETH     HC21191   4.536   2.044   2.929  0.0698  1.4727 -0.5240
 2355ETH     HC21192   4.408   1.935   2.890 -0.4732  0.1981 -0.4551
 2355ETH     HC21193   4.319   2.101   2.731  0.3220  2.6046 -1.0747
 2355ETH     HC21194   4.457   2.210   2.779 -0.2517  0.2294  1.5999
 2355ETH     HC21195   4.491   2.060   2.691 -0.7794 -2.8125  0.9468
 2356ETH     OH21196   5.902   2.887   3.775 -0.0399  0.2647  0.2081
 2356ETH     CH21197   5.928   2.755   3.820  0.4781  0.2618 -0.0994
 2356ETH     CH21198   6.071   2.720   3.778  0.3956  0.1652 -0.2993
 2356ETH     HO21199   5.810   2.906   3.786 -0.2272 -0.6076  0.1875
 2356ETH     HC21200   5.919   2.745   3.928  2.5296  0.7735  0.1579
 2356ETH     HC21201   5.861   2.690   3.764 -0.3217  1.0448 -0.0637
 2356ETH     HC21202   6.100   2.624   3.821 -2.1269  0.1071  1.3507
 2356ETH     HC21203   6.088   2.719   3.670  1.9183 -1.2788 -0.0802
 2356ETH     HC21204   6.135   2.802   3.811  0.3429  0.0160  0.1794
 2357ETH     OH21205   0.372   4.039   2.672 -0.1348 -0.2681 -0.3914
 2357ETH     CH21206   0.359   4.156   2.594  0.4156  0.0310 -0.0312
 2357ETH     CH21207   0.461   4.148   2.481  0.2394  0.5126 -0.2247
 2357ETH     HO21208   0.324   4.039   2.753  1.5687  1.6689  0.6526
 2357ETH     HC21209   0.257   4.155   2.557  0.3322  1.2672  0.1547
 2357ETH     HC21210   0.369   4.246   2.655 -1.2468  1.0025 -1.1620
 2357ETH     HC21211   0.442   4.232   2.413 -2.3213 -0.6376 -0.9658
 2357ETH     HC21212   0.568   4.144   2.503  0.5251  1.2856 -1.4133
 2357ETH     HC21213   0.452   4.054   2.426  1.8292 -0.1072  0.5151
 2358ETH     OH21214   3.674   2.470   4.983  0.1432  0.1296  0.1708
 2358ETH     CH21215   3.589   2.358   4.991  0.3210 -0.0163  0.0125
 2358ETH     CH21216   3.502   2.332   4.868  0.3887  0.4279 -0.1279
 2358ETH     HO21217   3.701   2.499   5.069  0.5887 -0.9843  0.4174
 2358ETH     HC21218   3.662   2.281   5.017  0.8640  1.1473  2.0195
 2358ETH     HC21219   3.523   2.381   5.074 -3.3412 -4.4515 -1.4719
 2358ETH     HC21220   3.570   2.327   4.783  0.8593  1.2399  0.1894
 2358ETH     HC21221   3.448   2.238   4.880 -0.2818  0.5217 -2.2996
 2358ETH     HC21222   3.432   2.411   4.842 -0.1575  0.3943  1.2102
 2359ETH     OH21223   3.546   1.414   5.177 -0.3632 -0.0150 -0.1908
 2359ETH     CH21224   3.569   1.362   5.306 -0.1891  0.0176 -0.2078
 2359ETH     CH21225   3.711   1.394   5.354 -0.2771 -0.0140  0.0686
 2359ETH     HO21226   3.572   1.505   5.169  0.4485 -0.4417 -2.9305
 2359ETH     HC21227   3.499   1.399   5.380  1.2054  1.6304  0.3463
 2359ETH     HC21228   3.564   1.253   5.300  1.0394 -0.0211 -0.7207
 2359ETH     HC21229   3.786   1.350   5.289  1.1655  0.8470  1.1028
 2359ETH     HC21230   3.722   1.500   5.377  3.2865 -0.4254  0.4439
 2359ETH     HC21231   3.726   1.337   5.446  1.9360  1.3166  0.5703
 2360ETH     OH21232   5.525   6.255   1.129 -0.1684 -0.5385  0.0471
 2360ETH     CH21233   5.498   6.386   1.086 -0.2174 -0.3751  0.5662
 2360ETH     CH21234   5.348   6.410   1.063 -0.0530 -0.2590 -0.4011
 2360ETH     HO21235   5.617   6.251   1.151 -0.0925  2.4233  0.3740
 2360ETH     HC21236   5.530   6.457   1.162  0.6897 -0.2921  0.1096
 2360ETH     HC21237   5.545   6.407   0.990 -3.1953  0.5755 -0.7431
 2360ETH     HC21238   5.317   6.327   0.999  0.3545 -1.1093  0.4935
 2360ETH     HC21239   5.295   6.398   1.157 -0.2788  3.0157 -0.0590
 2360ETH     HC21240   5.309   6.508   1.037  1.5034  0.0100 -1.8478
 2361ETH     OH21241   0.971   6.016   3.213 -0.2369  0.0743  0.4959
 2361ETH     CH21242   0.912   6.116   3.134  0.3151 -0.0113 -0.0292
 2361ETH     CH21243   0.981   6.248   3.169  0.0541  0.0376  0.3010
 2361ETH     HO21244   0.940   6.035   3.300  1.2147 -0.8898  1.2526
 2361ETH     HC21245   0.931   6.080   3.033 -1.3748 -1.6013  0.1914
 2361ETH     HC21246   0.805   6.124   3.155 -0.2985 -2.0908 -2.1858
 2361ETH     HC21247   1.089   6.238   3.154 -0.2785 -3.1418 -0.2977
 2361ETH     HC21248   0.943   6.331   3.109  0.3942 -0.5664 -0.7742
 2361ETH     HC21249   0.976   6.273   3.275  1.6465  0.1994  0.3542
 2362ETH     OH21250   1.049   4.441   3.185 -0.0331 -0.4537 -0.0540
 2362ETH     CH21251   0.946   4.389   3.265  0.1383 -0.1512  0.3690
 2362ETH     CH21252   0.810   4.440   3.217  0.0132 -0.2644  0.6042
 2362ETH     HO21253   1.090   4.505   3.242 -0.9391  0.0934  0.0038
 2362ETH     HC21254   0.948   4.280   3.258 -3.3766 -0.2820  0.4379
 2362ETH     HC21255   0.962   4.420   3.368 -3.5153 -1.2114  1.3256
 2362ETH     HC21256   0.791   4.546   3.200 -1.6066 -0.7015 -0.4435
 2362ETH     HC21257   0.787   4.394   3.121  1.4675  1.4621 -0.6100
 2362ETH     HC21258   0.733   4.401   3.285 -0.8060 -2.9561 -1.7891
 2363ETH     OH21259   5.907   1.535   3.109  0.2010 -0.3204  0.0492
 2363ETH     CH21260   6.017   1.591   3.040 -0.1411  0.0434 -0.2012
 2363ETH     CH21261   6.074   1.691   3.141  0.0288 -0.6426  0.3826
 2363ETH     HO21262   5.858   1.485   3.045  1.2984 -1.5950  0.1748
 2363ETH     HC21263   6.086   1.507   3.033 -1.9441 -1.5742  0.7529
 2363ETH     HC21264   5.991   1.629   2.941 -2.4410 -0.4281  0.1972
 2363ETH     HC21265   6.096   1.651   3.240  0.8017 -1.6121 -0.1572
 2363ETH     HC21266   6.166   1.737   3.105 -1.2068 -0.0116 -2.0919
 2363ETH     HC21267   6.008   1.777   3.150 -0.0603 -0.4891 -1.5293
 2364ETH     OH21268   6.279   5.459   6.124  0.1218  0.1928 -0.2738
 2364ETH     CH21269   6.170   5.371   6.107  0.4406 -0.3156  0.3034
 2364ETH     CH21270   6.042   5.455   6.102  0.5037 -0.2705 -0.5223
 2364ETH     HO21271   6.355   5.407   6.145 -0.1387  1.2371  3.7408
 2364ETH     HC21272   6.190   5.312   6.018  2.6411 -0.4932  0.8922
 2364ETH     HC21273   6.169   5.308   6.196 -0.5604 -1.4578 -0.5048
 2364ETH     HC21274   6.042   5.541   6.036 -1.1915  0.0484 -0.1346
 2364ETH     HC21275   5.965   5.395   6.053 -0.8500  1.4607 -0.5416
 2364ETH     HC21276   6.002   5.473   6.202  0.5754 -0.6512 -0.4230
 2365ETH     OH21277   2.016   5.826   5.809 -0.0012  0.5224 -0.3897
 2365ETH     CH21278   1.884   5.783   5.834  0.2443  0.1370  0.2400
 2365ETH     CH21279   1.798   5.888   5.904  0.2134 -0.0737  0.5198
 2365ETH     HO21280   2.064   5.849   5.887 -1.4585 -0.0414  0.6788
 2365ETH     HC21281   1.834   5.756   5.741  1.6756  0.1749 -0.5621
 2365ETH     HC21282   1.893   5.695   5.898  1.3639  0.6044  0.7444
 2365ETH     HC21283   1.705   5.843   5.938 -2.2668  1.9875 -3.1271
 2365ETH     HC21284   1.854   5.938   5.983  0.2684 -0.5148  0.7619
 2365ETH     HC21285   1.769   5.966   5.833  0.5958 -1.3500 -1.0543
 2366ETH     OH21286   0.357   2.514   6.022  0.0352 -0.4169  0.1181
 2366ETH     CH21287   0.288   2.445   6.124 -0.0759 -0.1044  0.2542
 2366ETH     CH21288   0.375   2.331   6.176  0.0401  0.0549  0.4116
 2366ETH     HO21289   0.422   2.571   6.061  1.1406 -1.7976  0.3646
 2366ETH     HC21290   0.253   2.527   6.187 -0.8890  0.1115 -0.4634
 2366ETH     HC21291   0.201   2.405   6.071 -0.1501  0.6273 -0.1892
 2366ETH     HC21292   0.316   2.264   6.239  0.4496  0.0791  0.8221
 2366ETH     HC21293   0.411   2.263   6.098  0.1777 -1.7527  2.0314
 2366ETH     HC21294   0.460   2.370   6.231  0.1472  1.7415 -0.8978
 2367ETH     OH21295   3.631   3.304   1.198  0.3977  0.0648  0.1783
 2367ETH     CH21296   3.624   3.351   1.065 -0.5014  0.2021  0.2652
 2367ETH     CH21297   3.566   3.242   0.976 -0.1215 -0.0570  0.3319
 2367ETH     HO21298   3.704   3.344   1.243  0.7841  0.2311 -0.5954
 2367ETH     HC21299   3.567   3.443   1.051 -2.3660 -0.4620  3.1368
 2367ETH     HC21300   3.724   3.387   1.039 -1.5793  1.2175 -2.6074
 2367ETH     HC21301   3.461   3.233   1.002 -0.1241  1.0909  0.7528
 2367ETH     HC21302   3.566   3.269   0.870  1.3739  0.6391  0.4933
 2367ETH     HC21303   3.620   3.148   0.989 -0.5709 -0.4399 -0.5107
 2368ETH     OH21304   1.142   5.612   1.396 -0.5021  0.3985  0.0196
 2368ETH     CH21305   1.109   5.730   1.466  0.5531  0.7761 -0.1058
 2368ETH     CH21306   1.106   5.714   1.618  0.7000  0.5728 -0.1242
 2368ETH     HO21307   1.230   5.585   1.419  0.2638  1.5018 -1.5677
 2368ETH     HC21308   1.178   5.813   1.458 -1.6143  2.6177 -0.2046
 2368ETH     HC21309   1.013   5.769   1.433  0.6686  3.1566  2.2691
 2368ETH     HC21310   1.202   5.668   1.646  0.7430 -0.0424 -1.2704
 2368ETH     HC21311   1.085   5.813   1.659  1.4947  0.3758  0.7975
 2368ETH     HC21312   1.024   5.653   1.656  0.0659  0.9997 -0.8131
 2369ETH     OH21313   0.366   3.054   5.096  0.2694 -0.0549  0.2000
 2369ETH     CH21314   0.327   2.943   5.019 -0.5333  0.0545  0.4410
 2369ETH     CH21315   0.183   2.899   5.046 -0.4356 -0.6223 -0.1163
 2369ETH     HO21316   0.459   3.044   5.105  0.4446  2.5208  1.8556
 2369ETH     HC21317   0.335   2.970   4.914 -2.9333 -0.3462  0.1125
 2369ETH     HC21318   0.386   2.851   5.015  0.0601  0.4150  0.9041
 2369ETH     HC21319   0.163   2.809   4.987 -0.1471 -1.6989  1.3819
 2369ETH     HC21320   0.170   2.860   5.147 -3.4264 -1.3701 -0.7451
 2369ETH     HC21321   0.099   2.964   5.021 -0.4322 -1.3782 -2.2368
 2370ETH     OH21322   4.824   2.337   2.359  0.3348  0.1743 -0.2115
 2370ETH     CH21323   4.801   2.332   2.498 -0.2720  0.3547 -0.3015
 2370ETH     CH21324   4.659   2.293   2.540  0.1086 -0.2271  0.4663
 2370ETH     HO21325   4.810   2.251   2.322 -1.7177  0.8384 -1.0461
 2370ETH     HC21326   4.867   2.268   2.557 -2.2491 -1.3846  0.0830
 2370ETH     HC21327   4.812   2.431   2.542  0.9934 -0.2444  0.7824
 2370ETH     HC21328   4.645   2.294   2.648  0.5410 -0.8135  0.5336
 2370ETH     HC21329   4.589   2.364   2.497  0.2907 -0.1498  0.2949
 2370ETH     HC21330   4.623   2.197   2.503  1.2668 -0.4071 -0.2270
 2371ETH     OH21331   3.972   6.008   5.899  0.3440 -0.0603  0.3133
 2371ETH     CH21332   3.845   6.036   5.845  0.4325 -0.3323 -0.0388
 2371ETH     CH21333   3.741   5.930   5.883  0.1926  0.1382  0.6401
 2371ETH     HO21334   4.018   5.942   5.849 -0.1521  0.6759 -1.1394
 2371ETH     HC21335   3.818   6.137   5.875 -1.0632 -0.0440 -2.2387
 2371ETH     HC21336   3.856   6.048   5.737  0.3821  2.5108  0.2288
 2371ETH     HC21337   3.647   5.967   5.841 -0.5383 -0.0337  2.0909
 2371ETH     HC21338   3.756   5.834   5.833 -2.2503  0.1696 -0.2585
 2371ETH     HC21339   3.721   5.919   5.989 -1.8420 -0.3864  0.2358
 2372ETH     OH21340   5.927   3.388   4.223 -0.7064  0.0930  0.1902
 2372ETH     CH21341   5.823   3.298   4.256 -0.9061  0.1902 -0.1688
 2372ETH     CH21342   5.734   3.326   4.377 -0.7477 -0.2247  0.0419
 2372ETH     HO21343   5.969   3.364   4.142 -2.4477  1.7246 -1.2418
 2372ETH     HC21344   5.757   3.262   4.177 -0.8293 -2.4426  0.9051
 2372ETH     HC21345   5.878   3.205   4.268 -2.0262 -0.8837 -2.8616
 2372ETH     HC21346   5.657   3.251   4.392 -2.1881  1.4197  1.0194
 2372ETH     HC21347   5.803   3.340   4.461  0.4056  0.5921 -1.0242
 2372ETH     HC21348   5.683   3.420   4.359 -0.3826  0.0815  0.5855
 2373ETH     OH21349   4.509   5.394   1.309 -0.5590  0.0328 -0.4392
 2373ETH     CH21350   4.421   5.305   1.374 -0.0783 -0.0139  0.1594
 2373ETH     CH21351   4.292   5.289   1.294  0.0250 -0.3119  0.0490
 2373ETH     HO21352   4.552   5.437   1.382 -1.8212 -0.3486  0.5372
 2373ETH     HC21353   4.467   5.209   1.399  2.0274  0.7964 -0.4755
 2373ETH     HC21354   4.386   5.345   1.469  1.9249  1.0538  0.4705
 2373ETH     HC21355   4.219   5.361   1.331 -0.7181 -0.5525 -0.9299
 2373ETH     HC21356   4.309   5.279   1.186  1.6906 -1.8134  0.4408
 2373ETH     HC21357   4.252   5.194   1.327  0.8507 -0.7637 -0.2417
 2374ETH     OH21358   2.815   4.545   4.669 -0.3098  0.3269  0.1078
 2374ETH     CH21359   2.813   4.493   4.538 -0.3147 -0.0147  0.2429
 2374ETH     CH21360   2.916   4.570   4.455 -0.5344 -0.1542 -0.1582
 2374ETH     HO21361   2.739   4.509   4.713 -0.1706 -0.0060  0.0773
 2374ETH     HC21362   2.840   4.388   4.534 -0.1994  0.0721 -1.2540
 2374ETH     HC21363   2.712   4.504   4.499 -0.0022  4.8526  0.4334
 2374ETH     HC21364   2.892   4.673   4.428 -0.0202  0.5072  1.8323
 2374ETH     HC21365   3.012   4.571   4.506 -0.3906  1.5967 -0.4453
 2374ETH     HC21366   2.931   4.524   4.357  0.3588  0.9620 -0.5490
 2375ETH     OH21367   1.808   1.839   5.507  0.0419  0.1085  0.6158
 2375ETH     CH21368   1.804   1.970   5.454 -0.1721 -0.1491 -0.0114
 2375ETH     CH21369   1.906   1.994   5.344 -0.3152  0.0303 -0.1049
 2375ETH     HO21370   1.791   1.842   5.600  1.5199  2.3743  0.8517
 2375ETH     HC21371   1.703   1.997   5.422 -0.9582 -0.7416  1.8667
 2375ETH     HC21372   1.827   2.044   5.531  1.1509 -0.3810 -0.1693
 2375ETH     HC21373   2.011   1.975   5.367 -0.5465  0.5435  1.3797
 2375ETH     HC21374   1.884   1.949   5.247 -2.2631 -1.5130  1.0095
 2375ETH     HC21375   1.901   2.101   5.322  0.8149  0.4815  1.6868
 2376ETH     OH21376   5.187   4.665   5.017 -0.7722 -0.4897  0.2698
 2376ETH     CH21377   5.264   4.547   5.007  0.3090  0.2549 -0.2306
 2376ETH     CH21378   5.196   4.433   4.932  0.2881  0.3534 -0.3612
 2376ETH     HO21379   5.113   4.644   5.072 -0.3808  1.2297  1.4879
 2376ETH     HC21380   5.369   4.563   4.980  0.5018 -0.4724  0.0799
 2376ETH     HC21381   5.277   4.512   5.109  2.6665  0.6956 -0.3421
 2376ETH     HC21382   5.087   4.431   4.942  0.1566 -0.2358 -1.7373
 2376ETH     HC21383   5.213   4.437   4.824 -0.8939  1.2819 -0.5226
 2376ETH     HC21384   5.232   4.335   4.963 -0.3442  0.3232  0.2901
 2377ETH     OH21385   4.838   0.021   2.035  0.1914  0.6103  0.6534
 2377ETH     CH21386   4.952   0.104   2.036  0.6666 -0.0145 -0.5530
 2377ETH     CH21387   4.907   0.239   2.093 -0.6045 -0.7064  0.1008
 2377ETH     HO21388   4.862  -0.054   2.087 -0.8326  0.9990  1.7145
 2377ETH     HC21389   5.027   0.063   2.103  0.8619  2.0482  0.5471
 2377ETH     HC21390   4.987   0.110   1.933 -2.6290 -0.1247 -1.7384
 2377ETH     HC21391   4.834   0.294   2.034 -3.0227 -2.0998  1.6921
 2377ETH     HC21392   4.860   0.231   2.191 -0.9602  0.5866  0.0414
 2377ETH     HC21393   4.997   0.295   2.122 -1.8364  1.0540  0.5837
 2378ETH     OH21394   0.746   0.413   5.112  0.4446 -0.1383 -0.2324
 2378ETH     CH21395   0.613   0.403   5.159  0.4941 -0.0853 -0.0793
 2378ETH     CH21396   0.572   0.499   5.271 -0.7071 -0.2993 -0.3278
 2378ETH     HO21397   0.770   0.337   5.061  1.1042 -1.6348  2.2236
 2378ETH     HC21398   0.537   0.393   5.082 -2.4900  0.0207  2.7724
 2378ETH     HC21399   0.613   0.304   5.203  0.8337  0.7065  1.7751
 2378ETH     HC21400   0.468   0.473   5.289 -0.1789 -1.5943  0.9774
 2378ETH     HC21401   0.644   0.486   5.352 -0.0239 -1.0696 -1.0440
 2378ETH     HC21402   0.579   0.600   5.232  0.1734  0.9086  2.7885
 2379ETH     OH21403   1.598   5.840   1.056  0.0042 -0.0883  0.4992
 2379ETH     CH21404   1.507   5.764   1.132  0.1156 -0.2161  0.5043
 2379ETH     CH21405   1.402   5.853   1.198 -0.2849 -0.4483  0.1832
 2379ETH     HO21406   1.644   5.783   0.996  1.6434  1.5192  0.2063
 2379ETH     HC21407   1.452   5.700   1.064  1.1918 -0.1901 -0.4005
 2379ETH     HC21408   1.575   5.696   1.185 -0.0586 -0.2390  0.7017
 2379ETH     HC21409   1.449   5.914   1.276  1.2252 -1.1807 -0.1225
 2379ETH     HC21410   1.354   5.917   1.125 -2.0124 -0.8160  0.9677
 2379ETH     HC21411   1.323   5.795   1.245  0.1460  0.9203  2.7054
 2380ETH     OH21412   6.146   0.254   3.002 -0.1478 -0.0034  0.0062
 2380ETH     CH21413   6.146   0.204   2.870  0.0734 -0.2667  0.1042
 2380ETH     CH21414   6.038   0.268   2.783  0.5433  0.1896 -0.1541
 2380ETH     HO21415   6.055   0.249   3.028 -0.3151  3.0873  0.1943
 2380ETH     HC21416   6.238   0.199   2.811  1.3685  1.5171  1.8947
 2380ETH     HC21417   6.113   0.104   2.897  0.1723 -0.4234 -0.3470
 2380ETH     HC21418   6.041   0.222   2.684 -0.3373  0.7693 -0.4543
 2380ETH     HC21419   5.935   0.258   2.817  1.1083  0.8322  1.8088
 2380ETH     HC21420   6.029   0.376   2.778 -2.7568  0.0898  2.0177
 2381ETH     OH21421   3.112   2.981   5.790  0.1049 -0.1068  0.1212
 2381ETH     CH21422   3.185   3.095   5.751  0.2305 -0.3487 -0.3484
 2381ETH     CH21423   3.207   3.106   5.600 -0.1918 -0.5820 -0.4274
 2381ETH     HO21424   3.120   2.982   5.884  1.3027  1.7658  0.0093
 2381ETH     HC21425   3.128   3.183   5.778  0.0151  0.5138 -3.4124
 2381ETH     HC21426   3.279   3.098   5.806 -2.0805 -2.4591  3.9288
 2381ETH     HC21427   3.118   3.084   5.541 -0.4767 -0.7295  0.0522
 2381ETH     HC21428   3.249   3.204   5.578  1.3153 -1.2186 -0.4475
 2381ETH     HC21429   3.288   3.042   5.565 -0.9310 -1.3947 -0.7021
 2382ETH     OH21430   5.146   5.159   2.535  0.4729  0.1156 -0.3854
 2382ETH     CH21431   5.149   5.046   2.619 -0.3905  0.4919  0.1650
 2382ETH     CH21432   5.244   4.951   2.546 -0.6918  0.1374  0.2276
 2382ETH     HO21433   5.096   5.132   2.460  1.6521 -0.1984 -1.0515
 2382ETH     HC21434   5.200   5.078   2.710  0.9964  1.5996 -0.9736
 2382ETH     HC21435   5.052   5.005   2.650 -0.1141  0.6351  1.2494
 2382ETH     HC21436   5.339   5.002   2.527 -0.0086 -1.3444 -0.4056
 2382ETH     HC21437   5.271   4.857   2.594 -2.7858  1.2046  3.6964
 2382ETH     HC21438   5.197   4.919   2.453 -0.2848 -0.6418  0.2841
 2383ETH     OH21439   3.578   3.124   4.562  0.3786 -0.2968  0.3799
 2383ETH     CH21440   3.561   2.992   4.610  0.3560 -0.2549  0.4860
 2383ETH     CH21441   3.701   2.944   4.651  0.4785 -0.3535 -0.0475
 2383ETH     HO21442   3.538   3.130   4.477  0.2473 -1.2379  0.3664
 2383ETH     HC21443   3.493   2.981   4.695 -0.7689  1.7840 -0.1154
 2383ETH     HC21444   3.528   2.933   4.525 -0.6886  1.7280 -0.5281
 2383ETH     HC21445   3.694   2.841   4.684 -0.8864 -0.1593  0.3298
 2383ETH     HC21446   3.786   2.957   4.584 -0.4084 -1.6859 -1.4507
 2383ETH     HC21447   3.721   3.000   4.742 -0.3036 -0.2265  0.0540
 2384ETH     OH21448   3.534   3.998   0.056 -0.1343  0.2080 -0.0523
 2384ETH     CH21449   3.624   4.101   0.022  0.3124 -0.1909 -0.0920
 2384ETH     CH21450   3.560   4.236   0.053 -0.3874 -0.5235 -0.0788
 2384ETH     HO21451   3.582   3.916   0.052  0.4299  0.6689 -4.7228
 2384ETH     HC21452   3.719   4.079   0.070  0.3577 -1.7008 -0.8424
 2384ETH     HC21453   3.639   4.101  -0.086 -0.4416 -1.2079 -0.2105
 2384ETH     HC21454   3.526   4.244   0.156  0.4180 -1.9411  0.2909
 2384ETH     HC21455   3.625   4.320   0.029 -0.4123 -0.0195  1.5565
 2384ETH     HC21456   3.462   4.244   0.005 -1.8924 -0.4080  2.9074
 2385ETH     OH21457   1.258   0.512   2.148 -0.2873  0.0076  0.4486
 2385ETH     CH21458   1.152   0.420   2.133  0.1595 -0.3299 -0.7114
 2385ETH     CH21459   1.179   0.308   2.234  0.3503  0.4330  0.0981
 2385ETH     HO21460   1.264   0.524   2.241 -3.0824  1.0044  0.5602
 2385ETH     HC21461   1.058   0.466   2.163  0.2468 -0.4693 -0.2092
 2385ETH     HC21462   1.130   0.387   2.032 -1.6768 -2.1171  0.2280
 2385ETH     HC21463   1.280   0.265   2.229  1.0039  1.8974  0.5998
 2385ETH     HC21464   1.160   0.337   2.337 -0.3266 -1.9453  0.6647
 2385ETH     HC21465   1.118   0.218   2.221 -1.1850  1.6357 -1.3014
 2386ETH     OH21466   4.304   5.034   5.051  0.0079 -0.1823 -0.6594
 2386ETH     CH21467   4.419   4.995   4.979  0.2320 -0.5343 -0.1116
 2386ETH     CH21468   4.417   5.080   4.852 -0.6611  0.2381  0.4077
 2386ETH     HO21469   4.326   5.101   5.113 -1.5388  0.1819 -0.4855
 2386ETH     HC21470   4.512   5.000   5.037  0.0728 -0.0195  0.1079
 2386ETH     HC21471   4.403   4.892   4.948  1.0122 -0.1895 -1.6788
 2386ETH     HC21472   4.331   5.059   4.788 -0.1540 -1.0864  0.1520
 2386ETH     HC21473   4.427   5.187   4.873 -1.7992  0.4784 -0.2398
 2386ETH     HC21474   4.503   5.065   4.786  1.9643 -0.9342  3.9294
 2387ETH     OH21475   4.371   2.609   1.338 -0.0694 -0.2048 -0.2429
 2387ETH     CH21476   4.238   2.646   1.309 -0.2533 -0.3714  0.3883
 2387ETH     CH21477   4.193   2.559   1.192 -0.4137  0.2758 -0.0312
 2387ETH     HO21478   4.418   2.637   1.261 -1.1776 -1.5540 -1.4485
 2387ETH     HC21479   4.174   2.640   1.397 -2.2317 -0.4851 -1.0351
 2387ETH     HC21480   4.236   2.754   1.292  4.2588 -0.3322 -0.6613
 2387ETH     HC21481   4.234   2.574   1.092 -1.7289 -3.4699 -1.2050
 2387ETH     HC21482   4.203   2.452   1.207 -1.5301 -0.0137 -1.2720
 2387ETH     HC21483   4.090   2.587   1.166  0.3133  0.8577 -2.3795
 2388ETH     OH21484   5.762   4.996   6.146 -0.1676  0.3607  0.0562
 2388ETH     CH21485   5.662   5.033   6.053 -0.3531 -0.4059 -0.0497
 2388ETH     CH21486   5.597   5.160   6.108  0.3804 -0.2003  0.3539
 2388ETH     HO21487   5.814   4.930   6.103 -0.8031 -1.8349  2.5538
 2388ETH     HC21488   5.714   5.055   5.960 -1.1438 -3.1377 -1.1839
 2388ETH     HC21489   5.585   4.961   6.025  1.0704 -2.7895  1.8969
 2388ETH     HC21490   5.532   5.194   6.028 -0.2905 -0.3232  0.8471
 2388ETH     HC21491   5.527   5.142   6.189  1.2260  0.1895  1.1851
 2388ETH     HC21492   5.668   5.240   6.128 -1.3125  1.1468  1.0472
 2389ETH     OH21493   3.713   4.711   5.482 -0.1478 -0.0412  0.4573
 2389ETH     CH21494   3.603   4.794   5.454 -0.3949 -0.3790  0.4185
 2389ETH     CH21495   3.568   4.786   5.306  0.1013  0.0042  0.2794
 2389ETH     HO21496   3.707   4.639   5.421  0.9958  0.8552 -0.7500
 2389ETH     HC21497   3.521   4.767   5.520 -1.8244  0.7184 -0.8599
 2389ETH     HC21498   3.616   4.899   5.483  0.2644  0.0738 -1.4535
 2389ETH     HC21499   3.494   4.863   5.286 -1.9284 -1.3538  2.3819
 2389ETH     HC21500   3.658   4.816   5.252 -0.1598  1.3084  0.5490
 2389ETH     HC21501   3.533   4.685   5.282 -1.8229  0.9062 -0.8412
 2390ETH     OH21502   4.573   5.852   2.904  0.2972 -0.2226 -0.0869
 2390ETH     CH21503   4.442   5.906   2.914  0.5208  0.3259 -0.0899
 2390ETH     CH21504   4.446   6.052   2.960 -0.2398  0.1877  0.4209
 2390ETH     HO21505   4.569   5.763   2.873  0.7432 -0.4217  0.4291
 2390ETH     HC21506   4.386   5.887   2.823  1.7187  0.2462 -0.8304
 2390ETH     HC21507   4.381   5.848   2.983 -0.4784 -0.2110 -1.4006
 2390ETH     HC21508   4.343   6.086   2.963 -0.5037 -0.6886  1.7038
 2390ETH     HC21509   4.499   6.056   3.055 -1.7234 -0.7806  1.3065
 2390ETH     HC21510   4.501   6.106   2.883  0.8519  0.4973  1.4072
 2391ETH     OH21511   0.444   5.905   4.775  0.1625  0.7345 -0.3517
 2391ETH     CH21512   0.342   5.968   4.848 -0.0879  0.1041 -0.1528
 2391ETH     CH21513   0.407   6.039   4.966 -0.3530  0.5559 -0.2767
 2391ETH     HO21514   0.400   5.836   4.727 -0.7888  0.4996  0.8474
 2391ETH     HC21515   0.297   6.041   4.780 -0.3710  3.4551  3.5036
 2391ETH     HC21516   0.264   5.894   4.869  0.7961 -0.5749  0.7569
 2391ETH     HC21517   0.477   6.107   4.919 -1.0671  0.4513 -1.5035
 2391ETH     HC21518   0.339   6.110   5.013 -1.8039 -0.4787 -0.7841
 2391ETH     HC21519   0.458   5.977   5.040 -3.4565 -1.4574  0.2839
 2392ETH     OH21520   2.080   0.422   0.086 -0.0181  0.2370  0.7026
 2392ETH     CH21521   1.944   0.412   0.048  0.1791 -0.3031  0.1417
 2392ETH     CH21522   1.849   0.463   0.156  0.3256  0.3111 -0.0170
 2392ETH     HO21523   2.114   0.510   0.096  0.6909  0.0513  0.0035
 2392ETH     HC21524   1.927   0.486  -0.030 -0.4491 -0.4567  0.1345
 2392ETH     HC21525   1.908   0.317   0.010 -1.7819  0.7731 -0.7372
 2392ETH     HC21526   1.826   0.569   0.167  3.0010  0.7847  1.5657
 2392ETH     HC21527   1.751   0.422   0.134  0.9595 -0.1731 -2.0314
 2392ETH     HC21528   1.888   0.436   0.255 -0.7193  2.5480  1.0389
 2393ETH     OH21529   1.852   4.539   2.353  0.0000  0.1758 -0.0645
 2393ETH     CH21530   1.735   4.461   2.341  0.2255 -0.2201  0.3351
 2393ETH     CH21531   1.747   4.348   2.239  0.5388  0.3462 -0.2526
 2393ETH     HO21532   1.835   4.604   2.419 -3.7630 -0.4580 -0.2852
 2393ETH     HC21533   1.695   4.450   2.442  0.1010 -1.5509  0.1578
 2393ETH     HC21534   1.662   4.531   2.301 -0.3643 -0.7204  0.5288
 2393ETH     HC21535   1.777   4.378   2.138  0.9323 -0.3098 -0.3348
 2393ETH     HC21536   1.823   4.277   2.272  1.0026  1.2626  0.6873
 2393ETH     HC21537   1.650   4.301   2.226 -0.9197  1.7776  4.5432
 2394ETH     OH21538   0.832   4.103   2.651 -0.1264  0.2141 -0.3732
 2394ETH     CH21539   0.914   3.990   2.668 -0.2489  0.1270 -0.3539
 2394ETH     CH21540   1.038   4.023   2.751 -0.2982  0.2420 -0.3249
 2394ETH     HO21541   0.742   4.083   2.627 -0.2210  2.7357 -2.3421
 2394ETH     HC21542   0.858   3.918   2.728 -0.3948  0.7607  0.2689
 2394ETH     HC21543   0.937   3.944   2.572  1.1552  1.3476 -0.6169
 2394ETH     HC21544   1.082   3.931   2.790  2.4131  1.5360 -0.1916
 2394ETH     HC21545   1.117   4.082   2.704 -0.3774 -0.5180 -1.4388
 2394ETH     HC21546   1.005   4.074   2.841  3.5370  0.9320  0.7942
 2395ETH     OH21547   2.357   3.478   3.153 -0.7291 -0.2869 -0.4528
 2395ETH     CH21548   2.446   3.369   3.148 -0.1300  0.1450  0.6206
 2395ETH     CH21549   2.561   3.394   3.246  0.3872 -0.5720  0.1986
 2395ETH     HO21550   2.402   3.559   3.136  1.3757 -1.4931 -0.7641
 2395ETH     HC21551   2.394   3.279   3.179  1.6903 -1.3292 -0.5140
 2395ETH     HC21552   2.485   3.359   3.046  3.1916  1.8404  1.6377
 2395ETH     HC21553   2.621   3.479   3.212 -0.3155  1.3799  3.6784
 2395ETH     HC21554   2.512   3.402   3.343 -2.4614 -0.5840 -1.1859
 2395ETH     HC21555   2.631   3.312   3.264 -0.6379 -1.5842 -0.3589
 2396ETH     OH21556   3.013   2.602   1.348 -0.2258 -0.1048 -0.2441
 2396ETH     CH21557   2.911   2.695   1.376 -0.2375 -0.2187  0.0988
 2396ETH     CH21558   2.836   2.653   1.502 -0.1873 -0.4577  0.0509
 2396ETH     HO21559   3.027   2.597   1.255 -3.1241 -2.3926 -0.6403
 2396ETH     HC21560   2.954   2.795   1.382 -0.9737  0.0940  0.2209
 2396ETH     HC21561   2.851   2.702   1.285  0.9589  1.8520 -0.5534
 2396ETH     HC21562   2.794   2.554   1.485 -2.0394  0.1410  0.9680
 2396ETH     HC21563   2.910   2.643   1.582  0.9626  0.4742 -0.8766
 2396ETH     HC21564   2.758   2.723   1.534 -0.1049 -0.8123  1.0555
 2397ETH     OH21565   0.198   1.517   5.826  0.3275  0.1653 -0.1422
 2397ETH     CH21566   0.129   1.625   5.767  0.2026 -0.0712 -0.4345
 2397ETH     CH21567   0.049   1.685   5.883  0.5831  0.0358 -0.2241
 2397ETH     HO21568   0.266   1.552   5.881  0.8594  1.2559 -1.4486
 2397ETH     HC21569   0.195   1.698   5.721  1.0283  0.4578  1.5081
 2397ETH     HC21570   0.056   1.593   5.693  0.4604 -0.2840 -0.5983
 2397ETH     HC21571  -0.003   1.609   5.943 -1.1316  0.2006 -1.4449
 2397ETH     HC21572   0.114   1.743   5.948  0.2013 -1.1790  1.2945
 2397ETH     HC21573  -0.016   1.766   5.851 -0.8657 -0.7152  0.7304
 2398ETH     OH21574   2.889   4.127   4.520  0.0048 -0.3323 -0.2060
 2398ETH     CH21575   2.762   4.083   4.563 -0.0312 -0.4499 -0.4309
 2398ETH     CH21576   2.759   4.064   4.715 -0.4137  0.5894 -0.3019
 2398ETH     HO21577   2.888   4.166   4.434 -4.7592  0.2660 -0.0032
 2398ETH     HC21578   2.684   4.150   4.526  1.6351  0.4859 -2.3593
 2398ETH     HC21579   2.747   3.986   4.516 -0.1215 -0.3304 -0.6517
 2398ETH     HC21580   2.838   3.993   4.739 -0.6359  0.1895 -0.7228
 2398ETH     HC21581   2.785   4.150   4.777  1.3477  0.1359 -0.3894
 2398ETH     HC21582   2.663   4.034   4.756  1.4467 -3.7633  1.1326
 2399ETH     OH21583   1.890   3.776   5.165 -0.6897  0.1754  0.2058
 2399ETH     CH21584   1.876   3.761   5.025 -0.0375  0.3746  0.1152
 2399ETH     CH21585   1.994   3.686   4.963 -0.4158 -0.2202  0.1103
 2399ETH     HO21586   1.912   3.694   5.205 -1.1889 -0.6097 -1.1114
 2399ETH     HC21587   1.783   3.706   5.009 -0.9691  1.8204  0.4414
 2399ETH     HC21588   1.861   3.850   4.964  1.0456  0.9779  0.7184
 2399ETH     HC21589   1.992   3.700   4.855  0.4340  0.1684  0.1392
 2399ETH     HC21590   2.085   3.728   5.004 -0.2652  0.3312 -0.7723
 2399ETH     HC21591   1.989   3.580   4.987  2.0172 -0.5949 -0.8685
 2400ETH     OH21592   2.763   0.097   5.980 -0.2570  0.3284  0.1327
 2400ETH     CH21593   2.769   0.169   5.858  0.0916 -0.2538 -0.1932
 2400ETH     CH21594   2.751   0.060   5.752 -0.2478  0.0309 -0.4249
 2400ETH     HO21595   2.793   0.152   6.051  0.7182  0.3359 -0.2766
 2400ETH     HC21596   2.694   0.248   5.859 -0.1405 -0.4646 -0.7180
 2400ETH     HC21597   2.868   0.213   5.851  0.6630 -1.7807 -2.0849
 2400ETH     HC21598   2.665  -0.004   5.770  0.1487 -0.3747  0.0101
 2400ETH     HC21599   2.754   0.100   5.650  2.2941  2.1340  0.4342
 2400ETH     HC21600   2.831  -0.013   5.761  1.1039  1.2893 -1.8944
 2401ETH     OH21601   6.145   3.859   2.674  0.1889  0.2801  0.1968
 2401ETH     CH21602   6.233   3.830   2.568 -0.6360 -0.5784 -0.2533
 2401ETH     CH21603   6.381   3.837   2.605 -0.6976 -0.0048 -0.1161
 2401ETH     HO21604   6.058   3.853   2.637 -0.6788  0.5677  2.1334
 2401ETH     HC21605   6.212   3.725   2.545  0.6254 -0.6397 -1.1558
 2401ETH     HC21606   6.200   3.889   2.483 -1.0840  1.1231  1.0878
 2401ETH     HC21607   6.448   3.805   2.525  0.2503 -0.5780  0.9006
 2401ETH     HC21608   6.409   3.938   2.634 -1.4028 -0.0612  0.7927
 2401ETH     HC21609   6.416   3.784   2.693 -0.6253 -1.5109 -1.0288
 2402ETH     OH21610   4.032   4.298   3.154  0.3385  0.3045 -0.3062
 2402ETH     CH21611   4.074   4.164   3.138  0.2584  0.1931  0.3920
 2402ETH     CH21612   4.106   4.151   2.989 -0.4557 -0.1159  0.2683
 2402ETH     HO21613   3.958   4.302   3.096  0.3875 -0.3000 -0.4153
 2402ETH     HC21614   4.171   4.149   3.186  0.2197  0.3296  0.5178
 2402ETH     HC21615   3.992   4.100   3.168 -0.2353 -0.0745 -1.5016
 2402ETH     HC21616   4.016   4.184   2.937  0.6315 -1.2950 -2.4793
 2402ETH     HC21617   4.187   4.218   2.963 -0.1136 -0.8863 -0.7102
 2402ETH     HC21618   4.142   4.055   2.952 -0.7955  0.2427 -1.0046
 2403ETH     OH21619   3.573   1.369   1.401  0.2457 -0.1834 -0.2872
 2403ETH     CH21620   3.490   1.313   1.500  0.4000  0.5696  0.2727
 2403ETH     CH21621   3.354   1.381   1.482  0.1908 -0.1017 -0.7561
 2403ETH     HO21622   3.632   1.303   1.368  0.2165 -0.1624 -0.3818
 2403ETH     HC21623   3.480   1.206   1.483  0.8462  0.5784 -0.0780
 2403ETH     HC21624   3.535   1.335   1.596  0.3918 -3.4638  1.3014
 2403ETH     HC21625   3.333   1.360   1.377 -1.2125  0.7447 -0.6605
 2403ETH     HC21626   3.287   1.324   1.545  1.3530 -0.3309  0.3050
 2403ETH     HC21627   3.366   1.485   1.513 -0.4285 -0.5529  1.0710
 2404ETH     OH21628   5.810   0.199   3.914  0.1351 -0.2960 -0.4828
 2404ETH     CH21629   5.745   0.151   4.029  0.1235  0.3696 -0.2113
 2404ETH     CH21630   5.852   0.109   4.129  0.2453  0.5152 -0.2802
 2404ETH     HO21631   5.749   0.193   3.842 -0.1665 -2.6253 -0.0818
 2404ETH     HC21632   5.693   0.230   4.085  0.9674  0.7467  0.0434
 2404ETH     HC21633   5.674   0.070   4.009 -0.2441  0.6768 -0.1637
 2404ETH     HC21634   5.919   0.041   4.076 -0.9357  0.3889 -1.6399
 2404ETH     HC21635   5.909   0.193   4.169 -1.5578  1.8424 -0.4177
 2404ETH     HC21636   5.805   0.054   4.211 -0.0798 -1.8364 -2.0034
 2405ETH     OH21637   4.837   3.956   1.937  0.3289  0.2731 -0.2681
 2405ETH     CH21638   4.892   3.931   1.810  0.2709 -0.0880 -0.2230
 2405ETH     CH21639   4.962   4.060   1.768  0.0581  0.0729 -0.0870
 2405ETH     HO21640   4.787   3.879   1.961  0.8307  0.5673  1.8415
 2405ETH     HC21641   4.964   3.850   1.818  0.5783  0.3768  1.9445
 2405ETH     HC21642   4.811   3.916   1.738 -0.7294  0.0022  0.8796
 2405ETH     HC21643   4.981   4.064   1.660  0.1881  0.4577 -0.0526
 2405ETH     HC21644   4.904   4.148   1.794 -1.3732 -1.6904  2.9304
 2405ETH     HC21645   5.059   4.078   1.813  0.3245  2.8224 -1.6420
 2406ETH     OH21646   4.474   0.649   4.296  0.0798  0.1246 -0.4361
 2406ETH     CH21647   4.536   0.523   4.307  0.1219  0.1528 -0.3426
 2406ETH     CH21648   4.450   0.436   4.215  0.3500 -0.4088 -0.0273
 2406ETH     HO21649   4.516   0.713   4.353  2.0815 -2.1803  0.7700
 2406ETH     HC21650   4.638   0.522   4.270  0.1523 -2.6408 -0.2895
 2406ETH     HC21651   4.528   0.488   4.410 -1.9102 -1.3609 -0.9727
 2406ETH     HC21652   4.351   0.442   4.261  0.3172 -1.2294  0.0234
 2406ETH     HC21653   4.453   0.473   4.113 -0.8712  1.1312  0.4597
 2406ETH     HC21654   4.484   0.333   4.224 -2.4011 -1.1856  2.3517
 2407ETH     OH21655   5.570   0.972   5.905  0.0382 -0.4066 -0.3832
 2407ETH     CH21656   5.690   0.927   5.964 -0.1315 -0.2969  0.0463
 2407ETH     CH21657   5.704   0.976   6.108  0.0026 -0.0538 -0.0475
 2407ETH     HO21658   5.586   0.960   5.813 -2.8415 -1.9634 -0.7256
 2407ETH     HC21659   5.718   0.822   5.964 -1.6706 -0.7168 -1.5181
 2407ETH     HC21660   5.771   0.974   5.908  1.7846 -1.9134  1.3924
 2407ETH     HC21661   5.800   0.955   6.157  0.1306 -0.3984 -0.4425
 2407ETH     HC21662   5.704   1.085   6.100 -1.7264 -0.0702 -0.4114
 2407ETH     HC21663   5.618   0.935   6.161  0.9314 -1.6304  0.2751
 2408ETH     OH21664   1.264   0.707   5.315 -0.0524  0.5698  0.1484
 2408ETH     CH21665   1.396   0.754   5.322  0.2235 -0.1719 -0.1004
 2408ETH     CH21666   1.412   0.881   5.238  0.0504 -0.5190 -0.6634
 2408ETH     HO21667   1.256   0.639   5.251  0.8862 -0.3625  1.0163
 2408ETH     HC21668   1.425   0.763   5.427 -1.0778  0.5707  0.1987
 2408ETH     HC21669   1.459   0.673   5.285  2.2573  1.3352 -0.0317
 2408ETH     HC21670   1.362   0.971   5.274 -1.2171 -1.0008 -1.2016
 2408ETH     HC21671   1.518   0.904   5.230  0.3994 -1.1020  1.9300
 2408ETH     HC21672   1.368   0.874   5.139 -1.7054 -0.3882  0.0860
 2409ETH     OH21673   2.865   1.480   5.459 -0.5450 -0.5212 -0.3012
 2409ETH     CH21674   2.804   1.536   5.345 -0.0136 -0.1659 -0.4111
 2409ETH     CH21675   2.699   1.627   5.409  0.1005 -0.0894 -0.3313
 2409ETH     HO21676   2.915   1.404   5.434 -0.2667 -0.6648  0.6906
 2409ETH     HC21677   2.880   1.584   5.283  0.1251  0.6382  0.3586
 2409ETH     HC21678   2.758   1.454   5.290 -2.9470  0.9154  0.3579
 2409ETH     HC21679   2.735   1.697   5.485  0.2478 -1.6339  1.0402
 2409ETH     HC21680   2.639   1.674   5.331  0.8332 -0.4983 -1.1438
 2409ETH     HC21681   2.618   1.576   5.460 -0.7625  0.1238 -1.4601
 2410ETH     OH21682   6.250   6.187   2.580 -0.0101 -0.2405  0.0945
 2410ETH     CH21683   6.377   6.156   2.634 -0.0031 -0.4458 -0.0375
 2410ETH     CH21684   6.437   6.054   2.537  0.0949 -0.5090  0.0903
 2410ETH     HO21685   6.189   6.116   2.591  0.5334 -0.6090  0.8319
 2410ETH     HC21686   6.440   6.245   2.623  0.5109 -0.8745 -0.6265
 2410ETH     HC21687   6.379   6.124   2.738  1.1229 -1.0580 -0.2362
 2410ETH     HC21688   6.513   6.015   2.604  0.5750  1.2889  0.6161
 2410ETH     HC21689   6.363   5.975   2.519  0.6222 -1.3301  1.4542
 2410ETH     HC21690   6.477   6.091   2.443 -0.9523  0.0704 -0.1373
 2411ETH     OH21691   2.330   3.017   1.977 -0.5106  0.5524  0.4093
 2411ETH     CH21692   2.226   3.099   2.024 -0.7892  0.1242  0.5414
 2411ETH     CH21693   2.280   3.240   2.052  0.5972 -0.3458  0.2785
 2411ETH     HO21694   2.299   2.973   1.899  1.4634 -1.9553  0.9857
 2411ETH     HC21695   2.142   3.097   1.955  0.1890 -2.0721 -0.6344
 2411ETH     HC21696   2.179   3.069   2.117  0.0357  1.2347  1.3384
 2411ETH     HC21697   2.213   3.284   2.126 -0.5798 -0.3587 -0.7603
 2411ETH     HC21698   2.379   3.240   2.096  0.5837 -0.1691  0.3097
 2411ETH     HC21699   2.293   3.290   1.956 -0.3154 -1.9018 -0.6857
 2412ETH     OH21700   5.547   0.669   5.625  0.0286  0.5014 -0.1700
 2412ETH     CH21701   5.669   0.618   5.675 -0.1058  0.6033  0.2659
 2412ETH     CH21702   5.793   0.619   5.586 -0.1936  0.0509  0.1373
 2412ETH     HO21703   5.551   0.763   5.624  0.5881  0.4998  0.8562
 2412ETH     HC21704   5.701   0.664   5.769  0.9482  3.4059 -1.4073
 2412ETH     HC21705   5.647   0.512   5.688 -2.2029  1.0358  0.4608
 2412ETH     HC21706   5.861   0.557   5.645  0.5378  0.6907 -0.0188
 2412ETH     HC21707   5.785   0.581   5.484  0.8394  1.4064 -0.4664
 2412ETH     HC21708   5.837   0.718   5.582 -0.0232 -0.0788 -1.3306
 2413ETH     OH21709   2.669   1.778   0.548 -0.0344 -0.0290  0.9014
 2413ETH     CH21710   2.700   1.667   0.629  0.3903 -0.6782 -0.1333
 2413ETH     CH21711   2.746   1.546   0.548 -0.2274 -1.0502  0.0632
 2413ETH     HO21712   2.692   1.855   0.597 -0.5889 -0.7909  2.4001
 2413ETH     HC21713   2.779   1.692   0.699  1.4102  1.1981 -1.9415
 2413ETH     HC21714   2.621   1.642   0.700  0.7780 -1.6023 -0.0146
 2413ETH     HC21715   2.820   1.493   0.608  1.8098  1.2882 -0.2883
 2413ETH     HC21716   2.666   1.484   0.509  0.4119 -1.5907 -0.4082
 2413ETH     HC21717   2.808   1.580   0.465 -0.3013  0.2745  0.5486
 2414ETH     OH21718   2.377   3.608   0.251 -0.6370  0.3917 -0.2461
 2414ETH     CH21719   2.267   3.625   0.337 -0.8101 -0.2781 -0.3261
 2414ETH     CH21720   2.173   3.721   0.264 -0.7545  0.1113  0.1107
 2414ETH     HO21721   2.419   3.686   0.220 -1.8049  0.3943 -1.9283
 2414ETH     HC21722   2.219   3.532   0.366 -0.7840 -0.1881  0.0085
 2414ETH     HC21723   2.304   3.672   0.429 -1.8975 -2.1961  1.1301
 2414ETH     HC21724   2.218   3.810   0.220 -0.9833 -0.2846 -0.9351
 2414ETH     HC21725   2.137   3.658   0.183  2.5423 -1.3594 -0.2853
 2414ETH     HC21726   2.087   3.755   0.323  0.8040  1.2554  1.7978
 2415ETH     OH21727   5.674   5.303   3.492  0.3489  0.0128 -0.1106
 2415ETH     CH21728   5.683   5.308   3.632 -0.1311  0.1824 -0.0877
 2415ETH     CH21729   5.541   5.297   3.688  0.0573 -0.9563  0.1807
 2415ETH     HO21730   5.594   5.260   3.467 -0.6765  0.7878  1.7595
 2415ETH     HC21731   5.734   5.218   3.664 -1.0604  0.3618  1.9998
 2415ETH     HC21732   5.721   5.400   3.677 -0.3525  0.4319 -0.4134
 2415ETH     HC21733   5.482   5.382   3.654  1.1417 -0.8574 -1.5009
 2415ETH     HC21734   5.489   5.203   3.667 -1.5513 -0.2048  0.7026
 2415ETH     HC21735   5.542   5.299   3.797 -0.0916 -1.8388  0.1976
 2416ETH     OH21736   4.811   3.747   6.275 -0.1109  0.7107 -0.4973
 2416ETH     CH21737   4.938   3.806   6.255  0.3136  0.0853  0.3223
 2416ETH     CH21738   5.035   3.803   6.374  0.3225 -0.2060  0.3100
 2416ETH     HO21739   4.788   3.716   6.189  3.9147  1.6413 -1.9982
 2416ETH     HC21740   4.984   3.771   6.163 -1.1993 -1.3311  0.0715
 2416ETH     HC21741   4.911   3.909   6.231  0.6649  0.2994  0.8450
 2416ETH     HC21742   5.133   3.835   6.338  0.0747 -0.8450 -0.9628
 2416ETH     HC21743   4.997   3.855   6.462  2.0052 -0.3628  1.1305
 2416ETH     HC21744   5.055   3.702   6.408  0.6151 -0.7886 -1.5178
 2417ETH     OH21745   1.122   5.970   2.658  0.2585 -0.1047  0.0883
 2417ETH     CH21746   1.061   5.941   2.781  0.5368  0.0455  0.2614
 2417ETH     CH21747   0.912   5.972   2.776  0.5615  0.1368  0.1037
 2417ETH     HO21748   1.215   5.955   2.668  0.5252  2.4545  2.0148
 2417ETH     HC21749   1.084   5.835   2.797  0.0954 -0.1866 -0.6613
 2417ETH     HC21750   1.112   5.992   2.863 -1.3103  1.4324  0.5826
 2417ETH     HC21751   0.870   5.920   2.690 -0.2523  0.6661  0.1783
 2417ETH     HC21752   0.861   5.937   2.866  0.5394  0.2890  0.1502
 2417ETH     HC21753   0.900   6.079   2.758  2.1613  0.3110  0.0019
 2418ETH     OH21754   4.817   2.136   1.969 -0.0077 -0.0696  0.2145
 2418ETH     CH21755   4.934   2.216   1.969 -0.0219 -0.0481  0.3291
 2418ETH     CH21756   5.010   2.184   2.098 -0.1825  0.3253  0.5180
 2418ETH     HO21757   4.777   2.162   1.888 -0.3765  2.1965  1.0704
 2418ETH     HC21758   4.995   2.192   1.882 -1.7502 -0.4508 -0.8089
 2418ETH     HC21759   4.916   2.323   1.967  2.2326  0.3383 -0.8038
 2418ETH     HC21760   4.964   2.186   2.197 -1.3697 -1.1500  0.0175
 2418ETH     HC21761   5.038   2.080   2.081  1.6736  1.0683 -1.2619
 2418ETH     HC21762   5.107   2.234   2.096  0.5537 -1.0889 -1.7132
 2419ETH     OH21763   3.643   6.062   4.696  0.6931  0.4048 -0.6395
 2419ETH     CH21764   3.640   6.111   4.828  0.2949  0.6393 -0.7360
 2419ETH     CH21765   3.780   6.100   4.887  0.1721  0.5898 -0.4496
 2419ETH     HO21766   3.560   6.061   4.652  0.1021  2.7014  0.3533
 2419ETH     HC21767   3.614   6.217   4.827  0.3552  0.6455 -2.2097
 2419ETH     HC21768   3.565   6.060   4.888  0.0242 -0.4272 -1.9714
 2419ETH     HC21769   3.845   6.172   4.836  0.8059  1.5659  1.6524
 2419ETH     HC21770   3.778   6.131   4.992  0.0604  1.2015 -0.6298
 2419ETH     HC21771   3.814   5.997   4.893 -2.1289 -0.0970  1.4661
 2420ETH     OH21772   1.889   4.353   0.363 -0.0786 -0.9945  0.0549
 2420ETH     CH21773   1.802   4.397   0.464  0.1248 -0.3281 -0.0569
 2420ETH     CH21774   1.659   4.387   0.411 -0.0210 -0.1037  0.2904
 2420ETH     HO21775   1.869   4.411   0.291  0.0116 -1.3914 -0.2908
 2420ETH     HC21776   1.800   4.353   0.564  0.1574  1.0481  0.5621
 2420ETH     HC21777   1.825   4.504   0.472  1.3182 -0.4466 -1.7501
 2420ETH     HC21778   1.622   4.286   0.394 -0.8440 -0.1248  2.0852
 2420ETH     HC21779   1.586   4.436   0.475  1.0870  0.3294  1.2500
 2420ETH     HC21780   1.664   4.446   0.320 -2.9520  1.8459  1.3066
 2421ETH     OH21781   1.977   2.240   1.241 -0.1758 -0.1834  0.5447
 2421ETH     CH21782   1.957   2.171   1.363 -0.1640  0.1000  0.7060
 2421ETH     CH21783   1.879   2.040   1.354 -0.2406  0.1933 -0.0734
 2421ETH     HO21784   2.043   2.189   1.195  0.9400 -0.8165  2.7749
 2421ETH     HC21785   2.051   2.149   1.412  0.5492 -0.1280 -0.7244
 2421ETH     HC21786   1.900   2.230   1.435 -1.1570 -0.7310  0.6112
 2421ETH     HC21787   1.775   2.058   1.328 -0.6294 -3.1976 -1.0346
 2421ETH     HC21788   1.917   1.968   1.282  1.2687 -1.4366  2.2559
 2421ETH     HC21789   1.881   1.998   1.455  0.8866 -1.8874 -0.9355
 2422ETH     OH21790   5.966   6.026   2.301  0.2096 -0.5596  0.0533
 2422ETH     CH21791   6.097   6.076   2.281 -0.1643  0.3485 -0.1863
 2422ETH     CH21792   6.105   6.228   2.275  0.1272  0.3167 -0.6270
 2422ETH     HO21793   5.973   6.018   2.394  1.7110  1.7761  0.2136
 2422ETH     HC21794   6.173   6.030   2.345 -1.0782 -0.4452  0.3487
 2422ETH     HC21795   6.123   6.042   2.180 -1.0382  0.0541 -0.3131
 2422ETH     HC21796   6.070   6.275   2.366  1.3483 -0.4546  0.2550
 2422ETH     HC21797   6.201   6.277   2.260 -0.1367  0.7547 -0.9124
 2422ETH     HC21798   6.044   6.269   2.194  0.5885 -0.3388 -1.3183
 2423ETH     OH21799   6.164   1.404   5.291  0.0190  0.5234 -0.1522
 2423ETH     CH21800   6.118   1.514   5.217 -0.4491  0.3649 -0.1021
 2423ETH     CH21801   6.157   1.501   5.070  0.0832 -0.3278  0.0993
 2423ETH     HO21802   6.120   1.404   5.375  0.5917  0.4909  0.1534
 2423ETH     HC21803   6.010   1.516   5.227 -0.6978 -2.2684 -1.8970
 2423ETH     HC21804   6.164   1.607   5.250  0.1311 -0.1433  0.5315
 2423ETH     HC21805   6.265   1.516   5.056  0.1249 -0.3947  0.3492
 2423ETH     HC21806   6.125   1.407   5.025  0.8014 -0.8304  0.6213
 2423ETH     HC21807   6.096   1.570   5.012  0.7996 -0.0134 -0.2968
 2424ETH     OH21808   1.262   2.519   3.532  0.2739 -0.1250 -0.5005
 2424ETH     CH21809   1.130   2.527   3.484  0.1175 -0.5982 -0.1604
 2424ETH     CH21810   1.031   2.467   3.585  0.0546 -0.1306  0.0570
 2424ETH     HO21811   1.269   2.544   3.623  1.7074 -0.3754 -0.5285
 2424ETH     HC21812   1.108   2.633   3.473  1.0847 -0.3063  0.6617
 2424ETH     HC21813   1.121   2.484   3.384 -2.1885  1.0649 -0.7215
 2424ETH     HC21814   0.931   2.455   3.543 -0.5174 -0.6024  1.5483
 2424ETH     HC21815   1.067   2.365   3.596  0.2266  0.0819  1.6327
 2424ETH     HC21816   1.021   2.508   3.685 -0.3110 -2.8873  1.1936
 2425ETH     OH21817   4.274   0.586   2.776 -0.8312  0.2313  0.2944
 2425ETH     CH21818   4.272   0.449   2.744 -0.4726  0.2325  0.2706
 2425ETH     CH21819   4.242   0.440   2.594  0.2654 -0.5757  0.1623
 2425ETH     HO21820   4.316   0.596   2.859  1.3387 -2.0299 -0.4791
 2425ETH     HC21821   4.368   0.407   2.774  0.0181  1.2444  0.1467
 2425ETH     HC21822   4.200   0.395   2.805 -1.3077 -0.4708 -1.2936
 2425ETH     HC21823   4.225   0.336   2.569 -1.1856 -0.4211  0.4255
 2425ETH     HC21824   4.147   0.491   2.577 -0.4466 -1.4510  1.4845
 2425ETH     HC21825   4.324   0.488   2.541 -1.1799 -0.8970 -2.4608
 2426ETH     OH21826   6.226   1.666   0.991 -0.3256 -0.7039  0.2142
 2426ETH     CH21827   6.095   1.663   1.044 -0.4454  0.4524  0.0148
 2426ETH     CH21828   5.999   1.684   0.927  0.1650  0.1113 -0.5540
 2426ETH     HO21829   6.273   1.603   1.042 -1.0759  0.0461  1.8796
 2426ETH     HC21830   6.074   1.568   1.093 -0.6998  0.2021 -0.5784
 2426ETH     HC21831   6.085   1.746   1.114 -0.5540  0.4767 -0.0298
 2426ETH     HC21832   6.012   1.785   0.889 -1.2802  0.7492  0.6101
 2426ETH     HC21833   6.002   1.621   0.838  0.5457  0.4484 -0.7815
 2426ETH     HC21834   5.897   1.670   0.963  0.6527 -2.7482 -0.1667
 2427ETH     OH21835   4.771   1.333   5.755 -0.4515 -0.0165 -0.1154
 2427ETH     CH21836   4.876   1.427   5.752 -0.3623 -0.1172 -0.1769
 2427ETH     CH21837   5.009   1.359   5.784 -0.2514 -0.0124 -0.4115
 2427ETH     HO21838   4.689   1.378   5.743 -0.0715  0.4386 -1.0244
 2427ETH     HC21839   4.889   1.458   5.649 -0.5177 -0.1913 -0.2193
 2427ETH     HC21840   4.867   1.510   5.822  3.6777  0.4176 -0.1701
 2427ETH     HC21841   5.027   1.264   5.734  1.4876 -0.0649  0.3034
 2427ETH     HC21842   5.091   1.428   5.766 -0.8678  0.6632 -0.6509
 2427ETH     HC21843   5.028   1.344   5.891  0.3119  1.2533 -0.3205
 2428ETH     OH21844   5.901   2.727   2.729  0.0584 -0.2259  0.4858
 2428ETH     CH21845   5.970   2.612   2.685  0.3954  0.3005 -0.3925
 2428ETH     CH21846   6.090   2.594   2.779  0.1462 -0.2228 -0.1707
 2428ETH     HO21847   5.850   2.758   2.655 -2.2306 -3.6678  0.5387
 2428ETH     HC21848   5.910   2.521   2.689  1.4335 -0.3841 -0.0163
 2428ETH     HC21849   5.994   2.623   2.580 -0.1522  0.6799 -0.4754
 2428ETH     HC21850   6.063   2.559   2.878 -1.5469  2.1438  0.2477
 2428ETH     HC21851   6.157   2.525   2.728  1.2914 -0.2099  1.3029
 2428ETH     HC21852   6.155   2.680   2.793 -0.1919 -0.0835  0.5426
 2429ETH     OH21853   4.573   5.477   5.166  0.3253 -0.1023 -0.5890
 2429ETH     CH21854   4.516   5.571   5.077 -0.0006  0.2649  0.0027
 2429ETH     CH21855   4.449   5.511   4.954 -0.1504  0.5343 -0.0464
 2429ETH     HO21856   4.668   5.478   5.170  0.3790 -2.2420 -0.4905
 2429ETH     HC21857   4.442   5.635   5.124  0.1309  1.2845 -1.1736
 2429ETH     HC21858   4.583   5.645   5.034  1.1674 -0.8154 -0.0741
 2429ETH     HC21859   4.525   5.457   4.896 -1.4655  0.7178 -1.9970
 2429ETH     HC21860   4.382   5.429   4.980  0.6262 -0.7792 -2.0612
 2429ETH     HC21861   4.409   5.586   4.886  1.2377 -0.8061 -2.4502
 2430ETH     OH21862   1.006   0.560   5.027  0.1201  0.1559 -0.0930
 2430ETH     CH21863   1.014   0.526   4.890  0.0418  0.7700 -0.2537
 2430ETH     CH21864   1.156   0.559   4.845  0.3508 -0.0134  0.1252
 2430ETH     HO21865   0.928   0.521   5.062  1.8688 -2.0532  1.4371
 2430ETH     HC21866   0.969   0.429   4.869 -1.4071  1.1062  1.1894
 2430ETH     HC21867   0.941   0.592   4.845 -0.3217 -0.5038 -1.5677
 2430ETH     HC21868   1.227   0.538   4.925  0.1626 -0.1015  0.2678
 2430ETH     HC21869   1.172   0.494   4.759 -1.2743  1.6186 -1.4647
 2430ETH     HC21870   1.160   0.665   4.819 -1.6254 -0.0530 -0.3592
 2431ETH     OH21871   5.885   2.801   0.958 -0.0634 -0.0867 -0.1972
 2431ETH     CH21872   5.960   2.828   1.074 -0.2122  0.9228 -0.3310
 2431ETH     CH21873   5.873   2.825   1.200 -0.5912  0.4623 -0.6009
 2431ETH     HO21874   5.848   2.714   0.957  1.6106 -0.8777  2.2249
 2431ETH     HC21875   6.043   2.762   1.100 -0.7875  1.5544  3.4392
 2431ETH     HC21876   5.999   2.930   1.070 -0.3284  1.0799  1.6848
 2431ETH     HC21877   5.813   2.735   1.214 -1.6133  1.2238 -0.0570
 2431ETH     HC21878   5.930   2.832   1.293 -1.1305  2.6103 -0.3950
 2431ETH     HC21879   5.792   2.898   1.200 -0.9720  0.0652  1.1520
 2432ETH     OH21880   2.058   3.239   6.244  0.2809  0.3310 -0.0669
 2432ETH     CH21881   2.073   3.208   6.381 -0.5646 -0.4469 -0.1530
 2432ETH     CH21882   2.115   3.062   6.397  0.8200 -0.0910 -0.5176
 2432ETH     HO21883   1.991   3.304   6.234 -2.2479 -2.2441 -0.3015
 2432ETH     HC21884   2.146   3.272   6.431 -1.5756 -0.5242  1.4530
 2432ETH     HC21885   1.984   3.239   6.436 -0.3482  0.3191 -0.2267
 2432ETH     HC21886   2.185   3.038   6.317 -0.3132  1.9708 -2.1494
 2432ETH     HC21887   2.162   3.037   6.493  0.3530 -3.4941 -1.1230
 2432ETH     HC21888   2.027   3.000   6.382  0.4656 -0.3137  2.1079
 2433ETH     OH21889   0.670   0.296   6.118  0.2431 -0.2756 -0.2214
 2433ETH     CH21890   0.666   0.202   6.223  0.1329 -0.6976 -0.6047
 2433ETH     CH21891   0.532   0.129   6.209 -0.3854  0.1204  0.0741
 2433ETH     HO21892   0.749   0.347   6.124 -0.0242 -0.0648  1.7021
 2433ETH     HC21893   0.752   0.138   6.204 -1.1611 -2.4240 -0.8601
 2433ETH     HC21894   0.679   0.249   6.320 -2.7975  0.9325 -0.9406
 2433ETH     HC21895   0.442   0.190   6.215 -0.7037 -0.1566 -1.5639
 2433ETH     HC21896   0.524   0.082   6.110 -0.3314 -2.1170  1.1003
 2433ETH     HC21897   0.525   0.056   6.289 -1.8827  0.1201 -0.0394
 2434ETH     OH21898   1.159   4.452   3.752 -0.5861  0.1108  0.0073
 2434ETH     CH21899   1.246   4.351   3.798 -0.1868  0.1812 -0.5787
 2434ETH     CH21900   1.336   4.326   3.677  0.1478 -0.2619 -0.2430
 2434ETH     HO21901   1.110   4.500   3.817 -0.3134  0.9188 -0.3834
 2434ETH     HC21902   1.310   4.394   3.875 -1.0231 -1.3354  1.0204
 2434ETH     HC21903   1.189   4.265   3.834  0.3076  0.7840  1.7484
 2434ETH     HC21904   1.404   4.249   3.712  0.9837  0.6263  0.1299
 2434ETH     HC21905   1.283   4.296   3.587 -0.1965  0.6008 -0.3314
 2434ETH     HC21906   1.393   4.418   3.660 -0.4252  0.2166  0.3468
 2435ETH     OH21907   2.950   2.949   2.998  0.6439 -0.7365 -0.0169
 2435ETH     CH21908   2.942   2.826   3.066 -0.1586 -0.2847  0.7150
 2435ETH     CH21909   2.880   2.727   2.967 -0.3919  0.4718  0.1050
 2435ETH     HO21910   3.014   2.941   2.928  1.7025  1.7511  0.6172
 2435ETH     HC21911   3.039   2.792   3.103  1.1558  1.7399 -0.7582
 2435ETH     HC21912   2.889   2.845   3.159 -0.2451 -1.5515  0.9316
 2435ETH     HC21913   2.782   2.764   2.936 -0.1710  2.1408  1.3156
 2435ETH     HC21914   2.948   2.713   2.883  3.6176 -1.4935  3.5342
 2435ETH     HC21915   2.867   2.639   3.029 -0.9012  0.9562  0.7059
 2436ETH     OH21916   1.893   3.654   0.970 -0.3916 -0.0528  0.2117
 2436ETH     CH21917   2.021   3.652   1.028 -0.2313  0.5137 -0.1252
 2436ETH     CH21918   2.034   3.740   1.153  0.2404  0.2703 -0.0030
 2436ETH     HO21919   1.904   3.650   0.877 -0.4129 -0.8559  0.2402
 2436ETH     HC21920   2.037   3.552   1.067  2.3135  1.7291  2.1158
 2436ETH     HC21921   2.101   3.679   0.959  0.9841 -0.3180  0.9420
 2436ETH     HC21922   1.953   3.724   1.223 -0.5174  0.3741 -0.8464
 2436ETH     HC21923   2.120   3.706   1.211  1.8235  2.5647 -0.9325
 2436ETH     HC21924   2.038   3.846   1.129 -0.1829  0.1698 -0.5385
 2437ETH     OH21925   5.037   2.685   0.396  0.2460  0.2408  0.5960
 2437ETH     CH21926   5.104   2.607   0.492  0.7435  0.2219  0.2337
 2437ETH     CH21927   5.129   2.461   0.456 -0.2208  0.1374 -0.0954
 2437ETH     HO21928   5.105   2.724   0.343 -2.2044  0.7820 -2.2498
 2437ETH     HC21929   5.201   2.652   0.513  0.2030  1.6039 -0.2024
 2437ETH     HC21930   5.046   2.596   0.584  0.8814  0.0579  0.3018
 2437ETH     HC21931   5.198   2.451   0.371 -1.1998  0.1568 -0.9036
 2437ETH     HC21932   5.189   2.413   0.534 -1.5345  0.3976  1.0824
 2437ETH     HC21933   5.042   2.399   0.432 -0.9058  0.0384  2.5802
 2438ETH     OH21934   2.532   2.542   3.363 -0.2900  0.1366 -0.4474
 2438ETH     CH21935   2.652   2.550   3.436 -0.5799  0.2671  0.0145
 2438ETH     CH21936   2.735   2.637   3.342 -0.2381 -0.1649 -0.0845
 2438ETH     HO21937   2.487   2.460   3.380  1.6641 -1.4238 -2.3599
 2438ETH     HC21938   2.634   2.589   3.536  0.7981  1.4057 -0.1708
 2438ETH     HC21939   2.697   2.451   3.428  0.1694  0.6980 -1.4213
 2438ETH     HC21940   2.819   2.668   3.404  0.4044 -1.3687 -0.3319
 2438ETH     HC21941   2.765   2.588   3.249 -1.2491 -0.5159 -0.2323
 2438ETH     HC21942   2.674   2.723   3.315 -1.3321 -0.0839  2.5136
 2439ETH     OH21943   5.021   4.829   0.772 -0.4808  0.3537 -0.0165
 2439ETH     CH21944   4.883   4.852   0.787 -0.6483 -0.2955 -0.5035
 2439ETH     CH21945   4.843   4.994   0.746 -0.1309 -0.0766 -0.2516
 2439ETH     HO21946   5.035   4.737   0.790 -1.3423  0.4512  1.2340
 2439ETH     HC21947   4.824   4.791   0.719 -1.1315  0.3699 -0.6875
 2439ETH     HC21948   4.853   4.817   0.886  0.5521 -1.6710 -0.6175
 2439ETH     HC21949   4.870   5.060   0.828 -1.4683  1.6907 -1.1899
 2439ETH     HC21950   4.899   5.039   0.663 -0.5445 -0.5151 -0.7722
 2439ETH     HC21951   4.735   4.998   0.736 -0.3983 -3.6002  0.5248
 2440ETH     OH21952   1.045   1.846   3.300 -0.0945 -0.0082  0.6642
 2440ETH     CH21953   0.972   1.850   3.180 -0.4437 -0.0308  0.8739
 2440ETH     CH21954   0.970   1.704   3.136  0.2013  0.0758  0.4737
 2440ETH     HO21955   0.990   1.818   3.372  0.8978 -0.5534  1.2363
 2440ETH     HC21956   0.873   1.886   3.207 -0.2878 -0.8235  2.5383
 2440ETH     HC21957   1.017   1.914   3.103  1.8472  1.0374  3.0298
 2440ETH     HC21958   1.072   1.676   3.109  0.6222  1.0673  0.9938
 2440ETH     HC21959   0.948   1.639   3.221  2.0270  0.1996  1.0611
 2440ETH     HC21960   0.899   1.690   3.055 -1.4168 -0.3233  1.9254
 2441ETH     OH21961   2.012   2.360   3.335 -0.3079 -0.2767 -0.0642
 2441ETH     CH21962   1.963   2.227   3.328 -0.2322 -0.3003 -0.1448
 2441ETH     CH21963   1.963   2.162   3.466 -0.0678 -0.7349 -0.3467
 2441ETH     HO21964   2.061   2.380   3.257 -0.7589  0.4270 -0.1646
 2441ETH     HC21965   2.021   2.162   3.262  0.8485  0.5431 -0.0547
 2441ETH     HC21966   1.866   2.229   3.279  0.2927  1.8221 -1.1902
 2441ETH     HC21967   1.939   2.056   3.470 -0.8484 -0.5175  1.4365
 2441ETH     HC21968   2.063   2.164   3.510  0.3375  1.5063 -1.2770
 2441ETH     HC21969   1.903   2.212   3.543  2.0983  2.7630 -0.8110
 2442ETH     OH21970   3.814   5.943   0.749  0.3412  0.6187  0.3104
 2442ETH     CH21971   3.908   5.850   0.799 -0.2136  0.0536  0.3175
 2442ETH     CH21972   4.046   5.914   0.787 -0.1946  0.0464  0.5025
 2442ETH     HO21973   3.821   6.015   0.809  0.3262 -0.7231  1.9813
 2442ETH     HC21974   3.888   5.800   0.894 -2.0616  0.4252  0.1557
 2442ETH     HC21975   3.912   5.764   0.732 -0.5738 -0.6664  1.2172
 2442ETH     HC21976   4.117   5.847   0.836  0.4816  0.6028  0.2904
 2442ETH     HC21977   4.088   5.922   0.687  1.7379  1.7929  1.4115
 2442ETH     HC21978   4.049   6.016   0.825  1.4112 -0.3954  1.6141
 2443ETH     OH21979   0.847   5.080   3.543 -0.7712  0.4812 -0.4231
 2443ETH     CH21980   0.959   5.127   3.615 -0.8070 -0.3855  0.2033
 2443ETH     CH21981   0.927   5.185   3.753 -0.7783 -0.1200  0.0977
 2443ETH     HO21982   0.867   5.018   3.475 -0.3811 -1.4229  1.3723
 2443ETH     HC21983   1.035   5.050   3.621  1.6893  1.9332 -0.7202
 2443ETH     HC21984   1.009   5.199   3.551 -0.2315  0.0587  1.1484
 2443ETH     HC21985   0.865   5.274   3.743  0.9469  1.3052  1.5763
 2443ETH     HC21986   0.887   5.110   3.821  1.2347  1.8863  3.6797
 2443ETH     HC21987   1.022   5.217   3.797 -1.6452  1.7749  0.6319
 2444ETH     OH21988   5.279   3.433   1.089  0.7936  0.1296  0.4629
 2444ETH     CH21989   5.261   3.299   1.130  0.3053  0.2002  0.4824
 2444ETH     CH21990   5.137   3.239   1.065  0.2546  0.3016  0.4850
 2444ETH     HO21991   5.355   3.467   1.134  1.4647  1.1458 -1.3854
 2444ETH     HC21992   5.351   3.238   1.122 -0.9623 -1.5937 -0.4489
 2444ETH     HC21993   5.246   3.305   1.238  2.3864  0.6477  0.7818
 2444ETH     HC21994   5.136   3.251   0.956  1.9909  2.1171  0.6368
 2444ETH     HC21995   5.114   3.136   1.094 -0.7330 -0.3717 -2.4942
 2444ETH     HC21996   5.043   3.286   1.094  1.2117  1.4038  1.8891
 2445ETH     OH21997   1.660   3.116   1.645  0.2542  0.0344 -0.6201
 2445ETH     CH21998   1.608   3.099   1.515 -0.1043 -0.4704 -0.4140
 2445ETH     CH21999   1.703   3.016   1.428  0.1660 -0.6592  0.0627
 2445ETH     HO22000   1.622   3.050   1.701 -2.3371 -0.5131 -2.8583
 2445ETH     HC22001   1.504   3.067   1.523  0.2562 -1.2440  1.4843
 2445ETH     HC22002   1.589   3.187   1.453 -1.4339 -1.7555 -1.8769
 2445ETH     HC22003   1.669   3.010   1.325  0.4463 -1.0324 -0.0103
 2445ETH     HC22004   1.803   3.059   1.423  0.0182 -0.3791 -0.4974
 2445ETH     HC22005   1.729   2.918   1.469 -1.6087 -2.5488 -3.1725
 2446ETH     OH22006   1.126   1.218   4.163  0.3439 -0.2856  0.0777
 2446ETH     CH22007   1.154   1.351   4.201 -0.2615 -0.0875 -0.1572
 2446ETH     CH22008   1.237   1.349   4.330 -0.2252 -0.3933 -0.1821
 2446ETH     HO22009   1.076   1.210   4.083 -1.1297 -0.5189  1.0100
 2446ETH     HC22010   1.193   1.409   4.117  0.0188  0.1567  0.1425
 2446ETH     HC22011   1.055   1.384   4.230  0.4498  0.6618  1.4912
 2446ETH     HC22012   1.250   1.447   4.375  0.0431 -1.5554  2.3651
 2446ETH     HC22013   1.193   1.285   4.406 -0.9724  1.1338  0.6888
 2446ETH     HC22014   1.334   1.307   4.303 -0.7046 -0.4251 -1.9467
 2447ETH     OH22015   2.009   2.281   5.017  0.1456 -0.3576  0.4226
 2447ETH     CH22016   1.882   2.281   5.077 -0.3497 -0.1793 -0.6191
 2447ETH     CH22017   1.822   2.146   5.036 -0.2849 -0.4101  0.0442
 2447ETH     HO22018   2.032   2.372   5.000  0.9809 -0.8442 -1.1850
 2447ETH     HC22019   1.905   2.284   5.184 -0.1556 -0.6414 -0.6465
 2447ETH     HC22020   1.830   2.369   5.038 -1.6515 -1.2196 -1.3089
 2447ETH     HC22021   1.726   2.130   5.086 -1.8896  2.1928 -2.0657
 2447ETH     HC22022   1.796   2.137   4.931  1.8771 -1.3919 -0.4238
 2447ETH     HC22023   1.890   2.065   5.062  0.4050  0.3528  0.6440
 2448ETH     OH22024   3.852   5.429   3.984 -0.5540 -0.0334  0.1374
 2448ETH     CH22025   3.826   5.560   3.940  0.3637  0.0196 -0.2458
 2448ETH     CH22026   3.847   5.669   4.045 -0.0158  0.2264 -0.3866
 2448ETH     HO22027   3.784   5.402   4.045 -1.3593  2.7302  0.5067
 2448ETH     HC22028   3.893   5.583   3.857  1.7622 -0.4272  0.7429
 2448ETH     HC22029   3.732   5.564   3.886 -2.0338 -2.6051  3.5615
 2448ETH     HC22030   3.790   5.643   4.134  0.5874 -0.5696 -0.2341
 2448ETH     HC22031   3.952   5.676   4.074  0.0731  0.8439 -0.8455
 2448ETH     HC22032   3.813   5.763   4.001 -1.2139  0.0344  0.1010
 2449ETH     OH22033   1.407   3.201   2.645  0.1417  0.3569 -0.2217
 2449ETH     CH22034   1.403   3.341   2.632  0.0136  0.3722 -0.0192
 2449ETH     CH22035   1.538   3.384   2.575 -0.2708  0.1818 -0.8511
 2449ETH     HO22036   1.468   3.181   2.714  0.5536  1.0197 -0.3852
 2449ETH     HC22037   1.318   3.379   2.575 -1.4704 -0.7496  1.4048
 2449ETH     HC22038   1.405   3.383   2.732  1.1393 -0.4355  0.3064
 2449ETH     HC22039   1.534   3.489   2.548 -0.1818  1.3561  3.3562
 2449ETH     HC22040   1.615   3.364   2.650  0.8069  2.5671 -1.2797
 2449ETH     HC22041   1.565   3.335   2.481  0.8083 -0.8596 -0.0262
 2450ETH     OH22042   3.005   2.886   2.106 -0.5681 -0.0663  0.0533
 2450ETH     CH22043   3.029   2.749   2.086  0.1493  0.0015  0.4437
 2450ETH     CH22044   2.942   2.688   1.976 -0.1567  0.7399  0.2727
 2450ETH     HO22045   3.043   2.914   2.188 -0.5801  0.4116 -0.1029
 2450ETH     HC22046   3.137   2.738   2.073 -0.0968  0.4368 -2.3252
 2450ETH     HC22047   3.014   2.704   2.184  2.3587  2.0662  1.7877
 2450ETH     HC22048   2.963   2.757   1.894 -1.3597 -0.1767 -0.8221
 2450ETH     HC22049   2.974   2.585   1.960  1.7496  1.2602  0.5614
 2450ETH     HC22050   2.834   2.691   1.989 -0.3503 -0.7543 -0.9010
 2451ETH     OH22051   6.030   1.614   0.241  0.1038 -0.0983  0.0053
 2451ETH     CH22052   6.105   1.510   0.182  0.2743 -0.0800  0.1881
 2451ETH     CH22053   6.088   1.510   0.030  0.6031  0.6398  0.1481
 2451ETH     HO22054   6.034   1.595   0.333 -0.5880  0.1209  0.0844
 2451ETH     HC22055   6.209   1.517   0.215  0.3626 -0.2838 -0.0454
 2451ETH     HC22056   6.069   1.410   0.205 -1.6731  0.4110 -0.6012
 2451ETH     HC22057   6.130   1.427  -0.026  0.7501  0.3970  0.6153
 2451ETH     HC22058   5.979   1.509   0.023  0.5646 -0.5928  0.9652
 2451ETH     HC22059   6.136   1.599  -0.011  0.7469  0.5083  0.0355
 2452ETH     OH22060   2.169   4.264   1.807  0.4658 -0.6378 -0.5089
 2452ETH     CH22061   2.091   4.331   1.710  0.4156 -0.0440 -0.0601
 2452ETH     CH22062   2.043   4.462   1.773  0.0551 -0.3718  0.3573
 2452ETH     HO22063   2.253   4.307   1.809 -1.2956  2.9793  0.2276
 2452ETH     HC22064   2.155   4.355   1.625 -1.3288  1.7430 -0.9062
 2452ETH     HC22065   2.009   4.269   1.675  0.5583  0.6716 -1.6800
 2452ETH     HC22066   2.130   4.508   1.821  0.3873 -0.9009  0.2584
 2452ETH     HC22067   1.993   4.535   1.709  0.1393  1.9249  2.8202
 2452ETH     HC22068   1.967   4.435   1.846 -0.5241  0.3390  0.0231
 2453ETH     OH22069   3.565   2.489   3.475  0.0535  0.1467  0.0230
 2453ETH     CH22070   3.685   2.562   3.462 -0.1278  0.4634  0.1118
 2453ETH     CH22071   3.665   2.678   3.364 -0.7668  0.3317  0.0876
 2453ETH     HO22072   3.530   2.475   3.389  0.5344 -3.1625  0.3237
 2453ETH     HC22073   3.715   2.591   3.562  0.1698 -0.9657  0.4494
 2453ETH     HC22074   3.748   2.487   3.414 -0.6410 -0.9613  1.6458
 2453ETH     HC22075   3.616   2.765   3.408 -0.4973  0.5645 -0.0747
 2453ETH     HC22076   3.764   2.710   3.333 -0.6462 -0.2056 -0.0877
 2453ETH     HC22077   3.600   2.649   3.281 -1.2147  0.6940  0.3099
 2454ETH     OH22078   2.391   0.512   2.043 -0.4116 -0.2333 -0.1575
 2454ETH     CH22079   2.415   0.594   2.155  0.1129 -0.0283 -0.4163
 2454ETH     CH22080   2.554   0.563   2.213  0.0228  0.3441  0.0081
 2454ETH     HO22081   2.446   0.540   1.971 -2.3001  2.5197 -0.6150
 2454ETH     HC22082   2.409   0.699   2.128 -1.9635 -0.4103 -1.5375
 2454ETH     HC22083   2.331   0.573   2.221  0.0293 -0.2379 -0.5889
 2454ETH     HC22084   2.625   0.569   2.131 -0.4665  0.1937 -0.4362
 2454ETH     HC22085   2.580   0.641   2.284 -2.0089  0.4711  0.6410
 2454ETH     HC22086   2.552   0.468   2.267  1.2835  0.4855  0.3167
 2455ETH     OH22087   5.657   5.118   2.048 -0.0702 -0.1632 -0.4605
 2455ETH     CH22088   5.688   5.065   1.922  0.3467 -0.9059 -0.0500
 2455ETH     CH22089   5.594   4.951   1.881 -0.4886 -0.4353  0.5535
 2455ETH     HO22090   5.697   5.202   2.063 -0.1670 -0.1362 -0.3428
 2455ETH     HC22091   5.687   5.151   1.855 -2.9344 -0.4005  0.5993
 2455ETH     HC22092   5.789   5.024   1.919  1.1065  1.0090 -1.5992
 2455ETH     HC22093   5.617   4.921   1.778 -0.3476  2.0286 -0.1677
 2455ETH     HC22094   5.594   4.864   1.946 -2.1110 -0.1655  0.9315
 2455ETH     HC22095   5.490   4.983   1.881 -0.5008 -0.4728  0.6879
 2456ETH     OH22096   0.580   1.433   3.514  0.0409 -0.6444  0.3685
 2456ETH     CH22097   0.540   1.439   3.649 -0.5449 -0.1728  0.1759
 2456ETH     CH22098   0.481   1.311   3.710 -0.0190 -0.4283  0.1473
 2456ETH     HO22099   0.510   1.460   3.456 -1.8832 -1.8641  2.0556
 2456ETH     HC22100   0.632   1.463   3.701 -1.0060  3.6318 -0.6562
 2456ETH     HC22101   0.475   1.523   3.675 -1.2053 -0.6597  0.1274
 2456ETH     HC22102   0.382   1.295   3.669 -0.2348 -0.3452  0.6429
 2456ETH     HC22103   0.542   1.224   3.684  2.0408  0.7388  0.9698
 2456ETH     HC22104   0.470   1.326   3.817  2.2377  1.4074  0.1760
 2457ETH     OH22105   1.766   2.092   0.628  0.1123  0.0680 -0.0861
 2457ETH     CH22106   1.832   2.191   0.704  0.2830 -0.6854  0.7652
 2457ETH     CH22107   1.780   2.211   0.846 -0.6139 -0.1264  0.3683
 2457ETH     HO22108   1.684   2.135   0.612  0.1510  0.7619  1.4703
 2457ETH     HC22109   1.938   2.171   0.709  0.5714  0.8552  1.0943
 2457ETH     HC22110   1.819   2.281   0.643  2.5468 -0.2728  0.8811
 2457ETH     HC22111   1.837   2.294   0.889 -0.6370  0.9545 -1.6047
 2457ETH     HC22112   1.673   2.232   0.851 -0.6131 -0.2966  1.1917
 2457ETH     HC22113   1.791   2.130   0.917 -1.9600 -0.8217 -0.2078
 2458ETH     OH22114   0.086   5.889   3.064 -0.2155  0.1161 -0.3548
 2458ETH     CH22115   0.194   5.820   3.122 -0.3293  0.2362  0.0026
 2458ETH     CH22116   0.157   5.683   3.178 -0.3034  0.2112 -0.0416
 2458ETH     HO22117   0.107   5.981   3.072 -1.7361  0.5765 -1.4401
 2458ETH     HC22118   0.284   5.807   3.061 -0.1489  2.2148 -0.1731
 2458ETH     HC22119   0.227   5.877   3.209  0.0226 -1.3277  0.9048
 2458ETH     HC22120   0.114   5.645   3.085  0.0048  2.6550 -1.2191
 2458ETH     HC22121   0.248   5.634   3.212 -1.4251 -1.2236  0.9709
 2458ETH     HC22122   0.083   5.694   3.257 -0.1178 -0.0448  0.1678
 2459ETH     OH22123   0.095   3.699   4.076  0.0806  0.8368  0.2315
 2459ETH     CH22124   0.193   3.800   4.080  0.4299  0.5001  0.2090
 2459ETH     CH22125   0.329   3.764   4.018  0.2974 -0.2200  0.3375
 2459ETH     HO22126   0.010   3.739   4.073  0.4611  1.6374  0.0485
 2459ETH     HC22127   0.142   3.879   4.025  1.9961  1.7020  0.4426
 2459ETH     HC22128   0.220   3.830   4.181  2.2296 -0.5479  0.0692
 2459ETH     HC22129   0.397   3.847   4.038  1.3867 -1.4419  1.8837
 2459ETH     HC22130   0.361   3.669   4.062 -3.2282 -1.4196  0.5049
 2459ETH     HC22131   0.310   3.735   3.915  3.0881 -1.7926  0.2130
 2460ETH     OH22132   0.999   2.696   3.136  0.2758  0.7219 -0.5213
 2460ETH     CH22133   0.896   2.607   3.172  0.4435  0.5037 -0.5847
 2460ETH     CH22134   0.913   2.488   3.077 -0.3481  0.0030 -0.1018
 2460ETH     HO22135   1.020   2.753   3.208 -1.1331 -0.0260  0.5015
 2460ETH     HC22136   0.910   2.573   3.274 -1.6827  1.5776  0.0873
 2460ETH     HC22137   0.801   2.658   3.158 -1.0821 -1.6541  1.6085
 2460ETH     HC22138   0.931   2.524   2.976  1.5926 -0.0306  0.2051
 2460ETH     HC22139   0.997   2.430   3.115 -1.3131  0.6796  3.2067
 2460ETH     HC22140   0.824   2.427   3.091  0.1773 -0.6889  0.2907
 2461ETH     OH22141   0.599   4.906   0.707 -0.0965 -0.0424  0.1997
 2461ETH     CH22142   0.593   5.033   0.647 -0.1365 -0.1810 -0.0925
 2461ETH     CH22143   0.687   5.039   0.527 -0.5078  0.0524 -0.3743
 2461ETH     HO22144   0.531   4.878   0.766  0.6069 -1.2154  0.4780
 2461ETH     HC22145   0.488   5.048   0.622 -0.1076 -0.5204 -0.4165
 2461ETH     HC22146   0.616   5.116   0.714  0.2654 -0.4741  0.1326
 2461ETH     HC22147   0.687   4.954   0.458  0.9452  0.4148 -0.8379
 2461ETH     HC22148   0.679   5.133   0.474  0.5078  0.8237  0.8317
 2461ETH     HC22149   0.785   5.039   0.573 -0.4776 -1.0987 -0.4101
 2462ETH     OH22150   4.483   0.842   4.517  0.2113  0.0954 -0.5325
 2462ETH     CH22151   4.392   0.947   4.539 -0.2523 -0.3512 -0.3188
 2462ETH     CH22152   4.402   1.038   4.416  0.6739 -0.2860 -0.1966
 2462ETH     HO22153   4.509   0.800   4.597 -1.7880 -0.2895 -0.0810
 2462ETH     HC22154   4.288   0.922   4.561 -0.9722  1.5677 -1.3409
 2462ETH     HC22155   4.439   0.997   4.624 -0.6325  0.4145 -0.5517
 2462ETH     HC22156   4.504   1.075   4.400 -0.2761  1.1259 -3.4614
 2462ETH     HC22157   4.378   0.980   4.327  2.9327 -2.9805  0.8624
 2462ETH     HC22158   4.342   1.129   4.412  2.8505  1.2053 -0.0378
 2463ETH     OH22159   4.314   1.863   0.429 -0.0014 -0.4272  0.5158
 2463ETH     CH22160   4.425   1.947   0.414 -0.2513 -0.0250  0.9041
 2463ETH     CH22161   4.394   2.097   0.417 -0.7572 -0.1134  0.1601
 2463ETH     HO22162   4.253   1.914   0.481  0.6102 -0.8989  1.7093
 2463ETH     HC22163   4.506   1.931   0.486  0.1929  1.1262  0.6771
 2463ETH     HC22164   4.482   1.941   0.321  1.6797  0.2671  2.0433
 2463ETH     HC22165   4.481   2.155   0.386 -0.4051 -1.1076 -0.7447
 2463ETH     HC22166   4.320   2.126   0.342 -0.0948 -0.4206 -0.6155
 2463ETH     HC22167   4.357   2.123   0.516 -1.7116 -1.2207  0.1133
 2464ETH     OH22168   3.157   4.899   1.196 -0.5413 -0.1289  0.4006
 2464ETH     CH22169   3.125   5.036   1.202 -0.0955 -0.0085  0.0240
 2464ETH     CH22170   3.180   5.110   1.080 -0.0231 -0.3734 -0.1634
 2464ETH     HO22171   3.245   4.889   1.230 -0.7547  0.2128  1.0706
 2464ETH     HC22172   3.023   5.066   1.225 -0.3054 -1.3219  0.8102
 2464ETH     HC22173   3.182   5.074   1.287 -0.4393 -2.5987  1.4529
 2464ETH     HC22174   3.184   5.217   1.100 -0.0825 -0.5846  0.9697
 2464ETH     HC22175   3.283   5.080   1.058  0.4232  0.9207  0.1150
 2464ETH     HC22176   3.124   5.086   0.990  1.6518 -0.1208 -1.3153
 2465ETH     OH22177   1.435   4.651   5.277  0.4297 -0.7415 -0.3436
 2465ETH     CH22178   1.521   4.728   5.358 -0.1651  0.5774 -0.9597
 2465ETH     CH22179   1.669   4.690   5.357 -0.2037  0.3882  0.0220
 2465ETH     HO22180   1.462   4.562   5.292 -0.0730 -0.8311  0.0520
 2465ETH     HC22181   1.492   4.833   5.349  0.6552  0.9087  0.1415
 2465ETH     HC22182   1.486   4.722   5.461 -0.2493 -1.5380 -1.1026
 2465ETH     HC22183   1.679   4.582   5.365  1.0347  0.5209  0.3366
 2465ETH     HC22184   1.715   4.732   5.267 -1.7425 -1.9283 -1.9277
 2465ETH     HC22185   1.713   4.729   5.449 -0.3164 -0.8361  0.5995
 2466ETH     OH22186   2.296   1.347   0.006  0.1166  0.1108 -0.0808
 2466ETH     CH22187   2.231   1.464  -0.038  0.5040  0.4235  0.1711
 2466ETH     CH22188   2.293   1.514  -0.168  0.8568 -0.3187  0.0480
 2466ETH     HO22189   2.387   1.371   0.015  0.6163 -0.4159 -3.0929
 2466ETH     HC22190   2.127   1.448  -0.068  0.8278  0.6096 -1.0642
 2466ETH     HC22191   2.229   1.546   0.033 -1.6610  0.5463  0.0058
 2466ETH     HC22192   2.259   1.610  -0.208 -1.1023 -1.7303 -1.7698
 2466ETH     HC22193   2.402   1.505  -0.170  0.7789 -0.9179 -2.6690
 2466ETH     HC22194   2.271   1.457  -0.258  1.5956 -0.3354 -0.1263
 2467ETH     OH22195   2.433   5.897   1.227  0.3290 -0.1745  0.1231
 2467ETH     CH22196   2.484   6.012   1.164  0.1753  0.0581  0.4196
 2467ETH     CH22197   2.520   6.110   1.276 -0.3393  0.0364  0.6018
 2467ETH     HO22198   2.490   5.870   1.298 -0.9271  1.1651  1.6645
 2467ETH     HC22199   2.572   5.970   1.113 -1.8490 -2.4773 -1.1350
 2467ETH     HC22200   2.417   6.063   1.095 -0.9468 -0.8967  0.7885
 2467ETH     HC22201   2.581   6.187   1.229  1.1906 -1.3563  0.2627
 2467ETH     HC22202   2.422   6.146   1.309 -0.2570  0.0091  0.8707
 2467ETH     HC22203   2.579   6.070   1.358  0.9822 -0.1768 -0.4320
 2468ETH     OH22204   1.293   2.604   3.822 -0.1505  0.0792  0.9245
 2468ETH     CH22205   1.346   2.729   3.783  0.5721 -0.1815  1.0694
 2468ETH     CH22206   1.312   2.854   3.865  0.2629  0.0960  0.5222
 2468ETH     HO22207   1.220   2.637   3.872 -1.5041 -0.6089 -0.5889
 2468ETH     HC22208   1.454   2.716   3.771  0.2854  1.0624 -3.5220
 2468ETH     HC22209   1.319   2.748   3.679  0.2294 -1.1957  0.9699
 2468ETH     HC22210   1.359   2.944   3.827 -1.2797  1.8370  2.6424
 2468ETH     HC22211   1.205   2.871   3.862  0.1622 -0.4542  0.8035
 2468ETH     HC22212   1.338   2.844   3.971 -3.1965  2.5309  1.6755
 2469ETH     OH22213   4.555   1.611   2.704  0.3784 -0.2007 -0.0110
 2469ETH     CH22214   4.659   1.629   2.797  0.4675 -0.5307 -0.0464
 2469ETH     CH22215   4.753   1.510   2.773  0.3634 -0.7408  0.5959
 2469ETH     HO22216   4.493   1.680   2.722  0.7825 -0.4402  2.4911
 2469ETH     HC22217   4.708   1.723   2.774  2.9832 -1.6434  0.5472
 2469ETH     HC22218   4.625   1.639   2.900  0.9125 -2.2662  0.2875
 2469ETH     HC22219   4.842   1.506   2.836 -0.0808 -0.4267  1.2609
 2469ETH     HC22220   4.694   1.423   2.802 -0.3035 -1.1190 -1.8573
 2469ETH     HC22221   4.786   1.498   2.671 -0.1652 -1.0396  0.4575
 2470ETH     OH22222   2.927   5.666   0.633  0.1760 -0.0532 -0.0941
 2470ETH     CH22223   2.964   5.802   0.646 -0.2339  0.0559 -0.0589
 2470ETH     CH22224   3.108   5.817   0.599 -0.2963 -0.1308 -0.3139
 2470ETH     HO22225   2.839   5.656   0.666 -0.2605 -0.2246 -1.2940
 2470ETH     HC22226   2.898   5.859   0.581  0.2101 -0.8143 -1.2888
 2470ETH     HC22227   2.962   5.833   0.750 -1.7880  1.8431 -0.5878
 2470ETH     HC22228   3.131   5.791   0.495 -3.3199 -1.0995 -0.7780
 2470ETH     HC22229   3.139   5.922   0.598 -1.5815  0.3130  2.2501
 2470ETH     HC22230   3.164   5.757   0.671  0.1232 -0.1814 -0.6746
 2471ETH     OH22231   2.982   4.264   4.279  0.8985 -0.4736 -0.1703
 2471ETH     CH22232   2.948   4.305   4.149 -0.0208  0.0780  0.2335
 2471ETH     CH22233   3.047   4.232   4.057  0.4119  0.7789  0.1472
 2471ETH     HO22234   3.067   4.225   4.267  1.5198  1.0526 -0.8264
 2471ETH     HC22235   2.841   4.297   4.129  0.1288 -0.2910 -0.4661
 2471ETH     HC22236   2.983   4.407   4.131  0.5445  0.3527  2.6681
 2471ETH     HC22237   3.035   4.269   3.955  2.3571  0.1314 -0.3409
 2471ETH     HC22238   3.152   4.259   4.071  1.3530 -2.1036 -1.1103
 2471ETH     HC22239   3.021   4.127   4.066 -1.5653  1.2684  0.1812
 2472ETH     OH22240   0.580   3.612   2.151 -0.2992 -0.2419  0.9061
 2472ETH     CH22241   0.646   3.540   2.253 -0.2102 -0.5327  0.6439
 2472ETH     CH22242   0.729   3.640   2.333 -0.3662 -0.2327  0.4315
 2472ETH     HO22243   0.643   3.654   2.095 -0.6208 -0.1878  0.5883
 2472ETH     HC22244   0.558   3.506   2.309 -1.9915  0.9341 -1.1957
 2472ETH     HC22245   0.702   3.451   2.224  0.0895 -0.6023  1.4281
 2472ETH     HC22246   0.685   3.732   2.372  2.6082  1.2801  0.3858
 2472ETH     HC22247   0.766   3.586   2.420 -1.1737  0.9756  1.5377
 2472ETH     HC22248   0.819   3.665   2.276  0.2822 -0.0630  1.5118
 2473ETH     OH22249   3.643   1.122   2.567 -0.0177  0.7355 -0.3489
 2473ETH     CH22250   3.656   1.143   2.706  0.3532  0.5524 -0.3568
 2473ETH     CH22251   3.526   1.174   2.781  0.0745 -0.0045 -0.6121
 2473ETH     HO22252   3.731   1.113   2.535  0.0691 -0.6216  0.2416
 2473ETH     HC22253   3.708   1.054   2.741  1.4132  0.5588 -1.8855
 2473ETH     HC22254   3.731   1.222   2.705 -1.7573  2.6136 -0.0200
 2473ETH     HC22255   3.443   1.107   2.759  0.7381 -0.9244 -0.3358
 2473ETH     HC22256   3.537   1.179   2.889 -0.2880 -1.2301 -0.5078
 2473ETH     HC22257   3.505   1.279   2.764  0.0153  0.2658  1.1018
 2474ETH     OH22258   6.189   1.639   1.602 -0.7977  0.1741  0.2959
 2474ETH     CH22259   6.137   1.658   1.472 -0.5895 -0.4636  0.1204
 2474ETH     CH22260   6.095   1.803   1.452  0.1483 -0.1528  0.7762
 2474ETH     HO22261   6.143   1.693   1.665 -0.7586 -0.3474  0.7806
 2474ETH     HC22262   6.216   1.630   1.402 -0.8680 -1.3983  0.1655
 2474ETH     HC22263   6.056   1.588   1.454 -1.8116  0.7308  0.8941
 2474ETH     HC22264   6.180   1.869   1.466  0.5037 -0.4929  0.2656
 2474ETH     HC22265   6.066   1.824   1.349  0.2778  1.8580  1.1275
 2474ETH     HC22266   6.016   1.834   1.520  0.5910 -0.7051  1.5413
 2475ETH     OH22267   2.040   4.896   5.057 -0.2416  0.3457 -0.0413
 2475ETH     CH22268   1.967   4.928   5.172 -0.0826  0.4417  0.0326
 2475ETH     CH22269   1.821   4.944   5.130 -0.1789  0.5944  0.4190
 2475ETH     HO22270   2.099   4.824   5.075  1.5168  1.4829 -1.1206
 2475ETH     HC22271   1.978   4.851   5.248  0.8143 -0.0997 -0.6390
 2475ETH     HC22272   2.007   5.019   5.217 -2.2326  0.0277  2.9742
 2475ETH     HC22273   1.788   4.854   5.078  0.6217  0.7482 -0.3488
 2475ETH     HC22274   1.754   4.965   5.214 -0.6344 -0.2801  0.2851
 2475ETH     HC22275   1.812   5.018   5.051  0.5033 -0.4782 -0.6805
 2476ETH     OH22276   3.805   2.079   1.805 -0.1261  0.2252 -0.2674
 2476ETH     CH22277   3.793   1.950   1.861  0.4497  0.3865  0.2334
 2476ETH     CH22278   3.924   1.920   1.935  0.1268  0.1578  0.7150
 2476ETH     HO22279   3.723   2.106   1.767  0.5787  0.2880 -1.7583
 2476ETH     HC22280   3.710   1.959   1.930 -1.3780  0.1849 -1.8784
 2476ETH     HC22281   3.769   1.879   1.781  1.8564 -2.8037  2.5411
 2476ETH     HC22282   4.000   1.918   1.856 -1.6648  0.1113 -1.0646
 2476ETH     HC22283   3.950   2.003   2.001  1.0800  0.3044  0.1676
 2476ETH     HC22284   3.935   1.823   1.983  2.7234 -0.3304 -0.7535
 2477ETH     OH22285   5.366   0.972   0.417  0.1806  0.3301 -0.3186
 2477ETH     CH22286   5.449   0.918   0.517  0.3695  0.1932 -0.5497
 2477ETH     CH22287   5.581   0.996   0.526  0.5963 -0.2522  0.0052
 2477ETH     HO22288   5.291   0.914   0.417 -0.1273  0.7248  0.1366
 2477ETH     HC22289   5.398   0.904   0.613 -2.3486 -0.7787 -2.0924
 2477ETH     HC22290   5.472   0.820   0.475  2.4606  0.7888 -0.8560
 2477ETH     HC22291   5.648   0.948   0.598 -0.1575  0.1231  0.9572
 2477ETH     HC22292   5.639   0.985   0.434  2.0519 -1.9764  1.0968
 2477ETH     HC22293   5.571   1.103   0.538  0.0197 -0.3402  0.3401
 2478ETH     OH22294   3.001   1.490   2.013  0.3102  0.7758 -0.0451
 2478ETH     CH22295   3.136   1.480   1.974  0.1495  0.0846 -0.4255
 2478ETH     CH22296   3.147   1.371   1.867 -0.0798 -0.2874 -0.0737
 2478ETH     HO22297   2.956   1.526   1.939  0.6201 -0.5087 -0.8705
 2478ETH     HC22298   3.165   1.580   1.944  0.1479 -0.0603 -0.9219
 2478ETH     HC22299   3.195   1.461   2.063  1.2709 -0.1361 -1.2054
 2478ETH     HC22300   3.189   1.278   1.905  0.2029 -0.6266 -1.1833
 2478ETH     HC22301   3.062   1.353   1.802 -1.1606  1.0859  0.9363
 2478ETH     HC22302   3.222   1.411   1.798 -0.0341 -1.1376 -0.5271
 2479ETH     OH22303   0.656   2.125   2.066 -0.0861  0.2338 -0.4526
 2479ETH     CH22304   0.528   2.088   2.020  0.2864 -0.3264 -1.0468
 2479ETH     CH22305   0.474   2.214   1.952  0.2112  0.4655  0.4700
 2479ETH     HO22306   0.685   2.066   2.134  1.4194  1.9952  0.4570
 2479ETH     HC22307   0.544   2.006   1.950 -0.1399 -0.2693 -1.2125
 2479ETH     HC22308   0.465   2.049   2.100  1.6744  2.1776  1.3510
 2479ETH     HC22309   0.461   2.290   2.030  2.0320  0.0126  1.2430
 2479ETH     HC22310   0.550   2.251   1.884 -0.6435 -1.3066 -1.4911
 2479ETH     HC22311   0.388   2.187   1.891 -0.1214 -2.3095  2.0915
 2480ETH     OH22312   1.720   3.219   0.194  0.5498  0.2144 -0.4082
 2480ETH     CH22313   1.600   3.151   0.167  0.1872  0.4215  0.6590
 2480ETH     CH22314   1.588   3.148   0.014  0.0551 -0.4800  0.6837
 2480ETH     HO22315   1.737   3.217   0.287  0.1834  1.5061 -0.3031
 2480ETH     HC22316   1.602   3.048   0.204  0.1134  0.1884  0.0221
 2480ETH     HC22317   1.506   3.196   0.201  0.0694  0.3455  0.4407
 2480ETH     HC22318   1.677   3.096  -0.022  0.9415  2.5948 -1.7497
 2480ETH     HC22319   1.500   3.091  -0.015 -0.4361  1.5922 -2.0621
 2480ETH     HC22320   1.591   3.247  -0.031  1.4741 -1.5180 -1.6061
 2481ETH     OH22321   6.007   5.797   3.385 -0.5888  0.2219  0.4528
 2481ETH     CH22322   6.121   5.821   3.464 -0.5500  0.0707  0.4449
 2481ETH     CH22323   6.112   5.969   3.502 -1.2711  0.1474 -0.0267
 2481ETH     HO22324   6.018   5.839   3.302  0.8808  1.1905  1.1190
 2481ETH     HC22325   6.151   5.761   3.550 -1.2920 -0.9344  0.0000
 2481ETH     HC22326   6.203   5.805   3.394 -0.2875 -1.0693  1.0120
 2481ETH     HC22327   6.070   5.981   3.602  1.7705  1.9658  1.0668
 2481ETH     HC22328   6.213   6.010   3.503 -0.6663 -1.2906 -1.4521
 2481ETH     HC22329   6.062   6.024   3.422  1.5291  2.2149 -0.4364
 2482ETH     OH22330   4.337   3.050   5.647 -0.6297 -0.2041  0.0989
 2482ETH     CH22331   4.206   3.100   5.635 -0.2228  0.6782 -0.7737
 2482ETH     CH22332   4.195   3.248   5.597  0.7501  0.8195 -0.5250
 2482ETH     HO22333   4.377   3.057   5.561  1.8648  0.2957  1.2444
 2482ETH     HC22334   4.151   3.026   5.578  2.4918 -2.5015  0.5787
 2482ETH     HC22335   4.172   3.084   5.738  0.6872  0.5763 -0.4828
 2482ETH     HC22336   4.214   3.271   5.492 -2.6208  2.3737 -0.8728
 2482ETH     HC22337   4.098   3.293   5.620  0.5150 -0.2748  0.7559
 2482ETH     HC22338   4.275   3.304   5.645  1.2227  0.1642 -0.5412
 2483ETH     OH22339   4.897   3.838   5.428 -0.1031 -0.2985  0.3377
 2483ETH     CH22340   4.869   3.969   5.472 -0.3579 -0.4183  0.5301
 2483ETH     CH22341   4.956   4.003   5.593  0.4412 -0.7168  0.0413
 2483ETH     HO22342   4.984   3.848   5.392  1.4183  0.8873  4.1175
 2483ETH     HC22343   4.884   4.046   5.397 -2.7175 -1.1176 -0.7340
 2483ETH     HC22344   4.765   3.972   5.507 -0.8248  1.4178 -0.9425
 2483ETH     HC22345   5.060   4.029   5.576 -0.1877  0.9813 -1.3633
 2483ETH     HC22346   4.911   4.084   5.651 -1.4696 -1.0179 -0.9639
 2483ETH     HC22347   4.960   3.923   5.667 -1.8464  0.0600  1.0770
 2484ETH     OH22348   2.168   5.738   1.918 -0.1715 -0.1167 -0.3456
 2484ETH     CH22349   2.285   5.672   1.962 -0.0030  0.2716 -0.2151
 2484ETH     CH22350   2.267   5.522   1.986  0.4443  0.3857  0.8485
 2484ETH     HO22351   2.172   5.832   1.923  1.7562 -0.1098 -1.8355
 2484ETH     HC22352   2.357   5.688   1.882  0.9358 -2.0026  0.1571
 2484ETH     HC22353   2.332   5.727   2.043 -0.0240  0.8821 -0.6134
 2484ETH     HC22354   2.337   5.494   2.065  1.8460  1.6135  0.0751
 2484ETH     HC22355   2.169   5.504   2.032 -0.6258 -2.2032 -2.3333
 2484ETH     HC22356   2.291   5.456   1.904  0.3784  1.7215 -0.2718
 2485ETH     OH22357   0.585   1.194   0.553 -0.0861  0.5427  0.6724
 2485ETH     CH22358   0.560   1.315   0.621  0.0571  0.7544  0.3487
 2485ETH     CH22359   0.650   1.423   0.561  0.5424  0.0780 -0.1440
 2485ETH     HO22360   0.614   1.136   0.623  0.5907  0.9228  0.7152
 2485ETH     HC22361   0.462   1.359   0.607 -0.4057 -0.2694  0.3656
 2485ETH     HC22362   0.580   1.303   0.728  0.9726  0.1743  0.1195
 2485ETH     HC22363   0.642   1.511   0.624  0.0525 -0.0476 -0.0250
 2485ETH     HC22364   0.753   1.389   0.569  0.2016 -0.8628  0.3059
 2485ETH     HC22365   0.637   1.444   0.455  0.3100  3.1513  0.4463
 2486ETH     OH22366   2.359   5.488   3.687 -0.2700  0.7512 -0.0981
 2486ETH     CH22367   2.246   5.489   3.771 -0.3282  0.5559 -0.1743
 2486ETH     CH22368   2.121   5.521   3.689 -0.2998  0.3061 -0.3152
 2486ETH     HO22369   2.430   5.443   3.731 -0.7487 -0.2195 -0.3024
 2486ETH     HC22370   2.243   5.388   3.811  2.7480  0.3670 -0.2965
 2486ETH     HC22371   2.249   5.560   3.853 -0.8769 -0.0618  0.3860
 2486ETH     HC22372   2.035   5.528   3.755  0.1288  1.5199  0.1232
 2486ETH     HC22373   2.128   5.615   3.635 -1.8602  0.5725 -0.0867
 2486ETH     HC22374   2.115   5.434   3.623 -1.8269  1.0311 -1.1515
 2487ETH     OH22375   5.737   3.186   1.856  0.5467  0.0418 -0.1946
 2487ETH     CH22376   5.851   3.115   1.899  0.6839  0.2285 -0.2430
 2487ETH     CH22377   5.933   3.201   1.995  0.4500 -0.0453  0.2062
 2487ETH     HO22378   5.761   3.264   1.808  0.0327  1.1465  1.3054
 2487ETH     HC22379   5.825   3.026   1.957  0.8948  0.0257 -0.4565
 2487ETH     HC22380   5.916   3.085   1.817 -1.2046 -0.7163 -1.4506
 2487ETH     HC22381   6.022   3.146   2.025 -0.1524 -1.4087 -0.4318
 2487ETH     HC22382   5.965   3.299   1.961 -2.0480 -0.2620 -2.9871
 2487ETH     HC22383   5.871   3.211   2.084  0.5167 -2.4916  0.5616
 2488ETH     OH22384   5.376   4.144   2.372  0.2740  0.5678 -0.2749
 2488ETH     CH22385   5.295   4.213   2.464 -0.1595  0.3146 -0.4667
 2488ETH     CH22386   5.357   4.226   2.603  0.6892  0.1299 -0.8247
 2488ETH     HO22387   5.328   4.143   2.291 -2.5751 -0.2313  1.3808
 2488ETH     HC22388   5.293   4.304   2.404  0.1153  1.4377  1.1887
 2488ETH     HC22389   5.193   4.177   2.478 -0.4523  1.6050  0.8121
 2488ETH     HC22390   5.332   4.132   2.651  0.1668  0.5915 -0.1737
 2488ETH     HC22391   5.465   4.245   2.606  0.7650 -0.3017 -0.9057
 2488ETH     HC22392   5.295   4.296   2.659 -0.1940 -2.0640  0.9827
 2489ETH     OH22393   2.080   3.312   2.457 -0.4533 -0.2255 -0.0470
 2489ETH     CH22394   2.035   3.412   2.546 -0.7873 -0.1966 -0.2455
 2489ETH     CH22395   1.883   3.428   2.537 -0.7463  0.0878 -0.4354
 2489ETH     HO22396   2.158   3.278   2.497 -1.2613 -0.6308  1.2194
 2489ETH     HC22397   2.053   3.388   2.651 -0.0181  2.6483  0.3073
 2489ETH     HC22398   2.091   3.505   2.535  0.8798 -1.1161  0.2247
 2489ETH     HC22399   1.848   3.452   2.637  0.8532  0.9802 -0.0719
 2489ETH     HC22400   1.845   3.506   2.471 -0.6446  1.0604  0.6298
 2489ETH     HC22401   1.832   3.334   2.517  1.7999 -1.4477 -0.0190
 2490ETH     OH22402   1.208   0.034   6.116  0.1453 -0.6058  0.2947
 2490ETH     CH22403   1.337   0.048   6.062  0.0304  0.0661  0.1941
 2490ETH     CH22404   1.345  -0.016   5.923 -0.0843 -0.0418  0.2379
 2490ETH     HO22405   1.206   0.092   6.191 -1.3926 -0.5769  0.2446
 2490ETH     HC22406   1.360   0.153   6.043  2.1834 -0.4592 -0.2506
 2490ETH     HC22407   1.417   0.003   6.121  0.6647 -0.9344 -1.3889
 2490ETH     HC22408   1.277   0.024   5.848  0.2753 -0.0397 -0.0904
 2490ETH     HC22409   1.443  -0.012   5.876  0.1581 -1.7968  0.5462
 2490ETH     HC22410   1.335  -0.123   5.943 -0.7258 -0.0129  0.0697
 2491ETH     OH22411   5.898   3.003   3.526 -0.2778 -0.1694  0.4195
 2491ETH     CH22412   6.015   3.080   3.512 -0.2149 -0.3343  0.0083
 2491ETH     CH22413   6.023   3.177   3.630 -0.5841 -0.1059 -0.1556
 2491ETH     HO22414   5.901   2.941   3.598 -3.6937 -2.3019 -1.0941
 2491ETH     HC22415   6.107   3.024   3.500 -0.1618  0.1261 -1.7413
 2491ETH     HC22416   6.002   3.135   3.419 -2.0375 -0.7746 -0.0279
 2491ETH     HC22417   5.939   3.247   3.630 -1.8762 -1.6171 -0.5608
 2491ETH     HC22418   6.030   3.129   3.728  1.5895 -0.2524 -0.3671
 2491ETH     HC22419   6.110   3.240   3.609  0.2092 -1.0299  0.3596
 2492ETH     OH22420   5.884   0.184   3.100  0.3695  0.3123 -0.6586
 2492ETH     CH22421   5.867   0.045   3.087 -0.2254  0.3470 -0.2631
 2492ETH     CH22422   5.720   0.037   3.045 -0.3246  0.0267  0.1406
 2492ETH     HO22423   5.891   0.191   3.194 -3.8481  0.5327 -0.2637
 2492ETH     HC22424   5.933  -0.003   3.015 -0.7114 -1.3094  0.3548
 2492ETH     HC22425   5.878   0.001   3.186 -2.0704  2.1050  0.7610
 2492ETH     HC22426   5.680  -0.065   3.051 -1.7595  0.6311  1.0499
 2492ETH     HC22427   5.654   0.102   3.102  0.4864  0.9394  0.0403
 2492ETH     HC22428   5.708   0.074   2.943 -0.9387 -0.4451  0.0409
 2493ETH     OH22429   2.309   4.891   4.735 -0.0746  0.0448 -0.2381
 2493ETH     CH22430   2.323   4.779   4.821 -0.0895  0.2843  0.0771
 2493ETH     CH22431   2.458   4.768   4.892 -0.0540 -0.9941 -0.1837
 2493ETH     HO22432   2.245   4.955   4.762  0.5242  0.8408 -0.6811
 2493ETH     HC22433   2.235   4.769   4.883 -0.9585  0.6247 -1.0742
 2493ETH     HC22434   2.312   4.690   4.759 -0.3397  0.4799 -0.1639
 2493ETH     HC22435   2.459   4.689   4.967 -1.1686  0.3401  1.2505
 2493ETH     HC22436   2.544   4.752   4.826 -1.5857 -1.7150 -2.0776
 2493ETH     HC22437   2.470   4.864   4.941  0.1094 -0.5607 -1.0600
 2494ETH     OH22438   2.334   2.637   3.832  0.9883  0.2235 -0.2175
 2494ETH     CH22439   2.326   2.555   3.718  0.1983 -0.2519  0.1742
 2494ETH     CH22440   2.184   2.553   3.662  0.1740 -0.1921  0.2325
 2494ETH     HO22441   2.353   2.575   3.901 -1.9811  1.3785  1.7092
 2494ETH     HC22442   2.380   2.610   3.641  2.4298 -2.2952  0.2419
 2494ETH     HC22443   2.373   2.458   3.735 -0.7322 -1.1041 -1.8986
 2494ETH     HC22444   2.176   2.489   3.574 -0.0908  0.3306 -0.1307
 2494ETH     HC22445   2.121   2.498   3.732 -0.8875  1.7889  0.8731
 2494ETH     HC22446   2.135   2.651   3.660  2.5461  1.0062 -0.7464
 2495ETH     OH22447   0.079   4.330   0.335  0.4551  0.6788 -0.6387
 2495ETH     CH22448   0.034   4.204   0.289  0.1525  0.2730  0.7387
 2495ETH     CH22449  -0.097   4.217   0.212 -0.2904 -0.8676  1.2878
 2495ETH     HO22450   0.030   4.353   0.412  0.9897 -2.4227  0.7412
 2495ETH     HC22451   0.113   4.173   0.221 -0.6973  0.3175 -0.2775
 2495ETH     HC22452   0.035   4.117   0.355  0.0387 -1.5533 -1.6094
 2495ETH     HC22453  -0.130   4.123   0.169  2.0086  0.4290 -3.6963
 2495ETH     HC22454  -0.177   4.268   0.266 -0.2331  1.0641 -0.3814
 2495ETH     HC22455  -0.087   4.266   0.115 -2.7150 -1.8837  0.4736
 2496ETH     OH22456   1.806   5.215   3.972  0.5715  0.0877 -0.1072
 2496ETH     CH22457   1.760   5.203   3.839 -0.1541  0.3047  0.1194
 2496ETH     CH22458   1.876   5.181   3.742 -0.5739  0.0244 -0.3220
 2496ETH     HO22459   1.855   5.140   4.002  1.5844  0.5062 -0.6820
 2496ETH     HC22460   1.703   5.110   3.834  2.3613 -1.3292  0.8216
 2496ETH     HC22461   1.707   5.297   3.829 -0.5971 -0.1827 -2.4550
 2496ETH     HC22462   1.946   5.265   3.751  0.5674 -0.9385 -0.0923
 2496ETH     HC22463   1.927   5.085   3.744  1.1425  0.9188  0.1715
 2496ETH     HC22464   1.827   5.190   3.645 -0.2512 -0.7031 -0.5570
 2497ETH     OH22465   5.394   1.200   5.951  0.2814  0.4121  0.1931
 2497ETH     CH22466   5.337   1.183   6.079 -0.2555 -0.1989 -0.1264
 2497ETH     CH22467   5.285   1.318   6.130  0.0760  0.0785 -0.5225
 2497ETH     HO22468   5.444   1.120   5.941 -0.0095  0.4698 -1.8740
 2497ETH     HC22469   5.261   1.106   6.084 -0.5493  0.0718 -0.4060
 2497ETH     HC22470   5.418   1.149   6.144 -0.9883 -0.6500  0.5574
 2497ETH     HC22471   5.366   1.377   6.174  1.7687 -1.5191 -1.4024
 2497ETH     HC22472   5.234   1.375   6.052 -1.5545 -1.5238 -0.6361
 2497ETH     HC22473   5.213   1.284   6.204 -1.2995  0.8011 -1.5178
 2498ETH     OH22474   3.670   1.162   5.910 -0.2037 -0.3427  0.0432
 2498ETH     CH22475   3.616   1.276   5.846  0.4759 -0.2345 -0.3506
 2498ETH     CH22476   3.504   1.240   5.748  0.4389 -0.9024 -0.0685
 2498ETH     HO22477   3.722   1.204   5.977  2.3816 -0.4383 -1.7784
 2498ETH     HC22478   3.588   1.358   5.912  0.5092  2.1372 -3.1958
 2498ETH     HC22479   3.698   1.319   5.789 -0.5347  1.6976 -0.4052
 2498ETH     HC22480   3.535   1.155   5.688  2.8389 -0.6547  0.7558
 2498ETH     HC22481   3.407   1.221   5.794  0.9186  0.0190  1.3942
 2498ETH     HC22482   3.500   1.332   5.690  2.3899 -0.5679  0.2859
 2499ETH     OH22483   4.108   3.665   3.394 -0.1091 -0.0549 -0.1802
 2499ETH     CH22484   4.107   3.561   3.489  0.4118 -0.0204 -0.1358
 2499ETH     CH22485   4.167   3.433   3.430  0.5682 -0.1623  0.3246
 2499ETH     HO22486   4.193   3.706   3.389  0.5849 -1.4939 -0.4922
 2499ETH     HC22487   4.152   3.590   3.585  0.9666 -1.0861 -0.0600
 2499ETH     HC22488   3.999   3.551   3.488  0.2121  2.0195 -0.5165
 2499ETH     HC22489   4.177   3.356   3.506  0.8808  1.3653  1.8877
 2499ETH     HC22490   4.103   3.392   3.352 -0.2970 -0.1985  1.0442
 2499ETH     HC22491   4.263   3.447   3.380 -0.9591  1.4548 -2.2797
 2500ETH     OH22492   6.181   2.114   5.008 -0.3512  0.0126  0.0518
 2500ETH     CH22493   6.172   2.005   5.097 -0.5932  0.1502  0.1969
 2500ETH     CH22494   6.073   1.901   5.043 -0.9777  0.4315  0.3552
 2500ETH     HO22495   6.223   2.184   5.056  0.2753  0.1561 -0.7062
 2500ETH     HC22496   6.268   1.955   5.106 -2.5987 -3.8299  0.5518
 2500ETH     HC22497   6.155   2.042   5.198  4.9282 -1.4340  1.8940
 2500ETH     HC22498   5.977   1.940   5.010 -0.2266  0.7498 -1.5275
 2500ETH     HC22499   6.118   1.840   4.965 -1.8377  0.1466  0.0803
 2500ETH     HC22500   6.056   1.844   5.134 -2.7199  0.1431 -0.1390
 2501ETH     OH22501   6.054   4.335   3.782  0.0639  0.0395 -0.2670
 2501ETH     CH22502   5.920   4.376   3.796 -0.1759 -0.6918 -0.3946
 2501ETH     CH22503   5.860   4.295   3.911  0.5303 -0.4941  0.1161
 2501ETH     HO22504   6.098   4.400   3.729 -0.7879  0.1138 -0.8894
 2501ETH     HC22505   5.912   4.484   3.807  0.2648 -0.6571 -0.4202
 2501ETH     HC22506   5.879   4.352   3.697 -0.3333  4.2441 -1.6676
 2501ETH     HC22507   5.919   4.325   3.997  0.1548  1.4447 -0.2774
 2501ETH     HC22508   5.755   4.319   3.930  0.0935 -2.2476 -0.0027
 2501ETH     HC22509   5.872   4.189   3.892  1.8576 -0.2442 -0.4789
 2502ETH     OH22510   3.726   0.940   0.028  0.2104 -0.1925  0.1006
 2502ETH     CH22511   3.666   1.062  -0.009  0.1100 -0.0769  0.6435
 2502ETH     CH22512   3.547   1.071   0.086 -0.1235 -0.2097  0.3643
 2502ETH     HO22513   3.780   0.955   0.104  0.3192 -1.1188  0.2149
 2502ETH     HC22514   3.740   1.142  -0.004 -1.4148  1.2839  2.0090
 2502ETH     HC22515   3.631   1.061  -0.112 -1.2553  0.5516  1.0833
 2502ETH     HC22516   3.478   1.152   0.062 -0.0636  0.5576  2.6060
 2502ETH     HC22517   3.495   0.975   0.089  0.1879 -0.4683 -1.8410
 2502ETH     HC22518   3.579   1.084   0.190  0.7583  0.6794 -0.0172
 2503ETH     OH22519   1.228   5.251   4.364 -0.3031  0.5569 -0.2673
 2503ETH     CH22520   1.297   5.151   4.437  0.7026  0.5452 -1.2087
 2503ETH     CH22521   1.388   5.198   4.551 -0.0841 -0.5624 -0.1016
 2503ETH     HO22522   1.174   5.204   4.303  0.0938  0.7234 -0.7537
 2503ETH     HC22523   1.228   5.074   4.472 -0.3849  2.4617  1.0660
 2503ETH     HC22524   1.350   5.093   4.363 -0.2016 -2.5794  0.5024
 2503ETH     HC22525   1.481   5.239   4.512 -1.4791  0.5238 -2.4386
 2503ETH     HC22526   1.337   5.264   4.621 -3.8327 -2.5431 -0.8386
 2503ETH     HC22527   1.423   5.110   4.605 -1.8339 -0.9393  0.4504
 2504ETH     OH22528   4.981   5.619   3.068 -0.3025  0.4309 -0.3468
 2504ETH     CH22529   5.083   5.716   3.076 -0.0209  0.0736  0.3704
 2504ETH     CH22530   5.205   5.651   3.142  0.5503  0.5395 -0.2349
 2504ETH     HO22531   4.929   5.656   2.997 -0.9185  0.7430  0.2609
 2504ETH     HC22532   5.123   5.761   2.986 -3.2744  0.2239 -1.0717
 2504ETH     HC22533   5.054   5.797   3.144  0.2980  1.4999 -1.1727
 2504ETH     HC22534   5.171   5.586   3.222  0.5109  0.6080 -0.1955
 2504ETH     HC22535   5.257   5.586   3.072  0.8530 -0.1885  0.6631
 2504ETH     HC22536   5.288   5.708   3.184 -0.0937  0.9159  0.5385
 2505ETH     OH22537   0.104   1.254   0.076  0.1488 -0.2231  0.1443
 2505ETH     CH22538   0.098   1.256  -0.065  0.4336  0.2985  0.1367
 2505ETH     CH22539   0.188   1.370  -0.113  0.3221  0.3078 -0.0533
 2505ETH     HO22540   0.195   1.251   0.100  0.1714  0.9707  0.2384
 2505ETH     HC22541   0.126   1.157  -0.102  2.9546 -0.3099  3.4721
 2505ETH     HC22542  -0.005   1.279  -0.095 -0.4172 -0.8327  2.0994
 2505ETH     HC22543   0.163   1.469  -0.075 -2.8608  0.0056 -1.2436
 2505ETH     HC22544   0.293   1.350  -0.090 -0.1313 -1.4270  0.6128
 2505ETH     HC22545   0.187   1.387  -0.221  2.1487 -2.2844 -0.5300
 2506ETH     OH22546   5.052   2.341   0.029  0.4842  0.1337 -0.1683
 2506ETH     CH22547   5.057   2.472   0.079 -0.2694 -0.0012  0.2664
 2506ETH     CH22548   4.920   2.511   0.135 -0.3228 -0.2474  0.3060
 2506ETH     HO22549   5.142   2.322   0.007  0.5810  1.0129 -0.5335
 2506ETH     HC22550   5.135   2.497   0.152  1.2595  0.2588 -1.4401
 2506ETH     HC22551   5.083   2.544   0.002  1.2275  0.0382  0.7876
 2506ETH     HC22552   4.833   2.483   0.076 -1.0523  1.0786  0.7169
 2506ETH     HC22553   4.897   2.452   0.224 -1.9440  0.5017  0.4054
 2506ETH     HC22554   4.905   2.616   0.162 -0.7149  0.1302 -1.3794
 2507ETH     OH22555   4.649   2.238   1.757 -0.5047 -0.1264  0.0652
 2507ETH     CH22556   4.548   2.164   1.693 -0.3603  0.0319 -0.3481
 2507ETH     CH22557   4.485   2.269   1.601 -0.6209  0.0172 -0.1853
 2507ETH     HO22558   4.601   2.294   1.817 -0.0373 -0.6622  0.9497
 2507ETH     HC22559   4.597   2.080   1.645 -0.2972 -1.3979  2.1443
 2507ETH     HC22560   4.472   2.139   1.767  1.0298  1.1321  1.4974
 2507ETH     HC22561   4.432   2.352   1.648  1.2443  1.0292  0.1824
 2507ETH     HC22562   4.554   2.312   1.529 -2.0213 -0.8285 -2.0671
 2507ETH     HC22563   4.410   2.210   1.548 -1.3195  0.1075  0.6800
 2508ETH     OH22564   3.044   0.234   3.357 -0.4241 -0.0166  0.7010
 2508ETH     CH22565   3.034   0.101   3.312 -0.0385  0.2919 -0.3115
 2508ETH     CH22566   2.992   0.023   3.436 -0.0656  0.0631 -0.4652
 2508ETH     HO22567   3.122   0.246   3.409  1.1393 -2.4034 -0.9929
 2508ETH     HC22568   2.956   0.097   3.236 -0.0333 -0.3936 -0.2809
 2508ETH     HC22569   3.128   0.086   3.258  0.4429  0.8782  0.3574
 2508ETH     HC22570   3.081   0.017   3.498 -0.6206  1.4394  0.4962
 2508ETH     HC22571   2.919   0.077   3.497  2.0964  3.0291 -0.4301
 2508ETH     HC22572   2.943  -0.072   3.414 -0.3523  0.4165 -1.3446
 2509ETH     OH22573   4.775   2.478   5.396 -0.2145 -0.4350  0.4424
 2509ETH     CH22574   4.904   2.478   5.337 -0.4296 -0.3217 -0.0338
 2509ETH     CH22575   4.896   2.441   5.189  0.1570 -0.7992  0.0522
 2509ETH     HO22576   4.780   2.456   5.487  0.7927 -0.3485  0.4221
 2509ETH     HC22577   4.953   2.575   5.341  0.1401 -0.4709 -2.5457
 2509ETH     HC22578   4.958   2.402   5.393  1.2913 -0.6658 -2.1236
 2509ETH     HC22579   4.994   2.425   5.144  1.6125 -3.3116  3.8848
 2509ETH     HC22580   4.828   2.359   5.168 -1.7126  0.6555  0.3479
 2509ETH     HC22581   4.864   2.526   5.129  2.0124 -0.5017 -0.5669
 2510ETH     OH22582   2.721   2.879   1.159  0.2607  0.2079  0.0619
 2510ETH     CH22583   2.614   2.958   1.112 -0.2536 -0.3328  0.3198
 2510ETH     CH22584   2.584   2.908   0.971 -0.6094 -0.5510  0.4718
 2510ETH     HO22585   2.756   2.917   1.238 -0.2422  1.4820 -0.3088
 2510ETH     HC22586   2.520   2.943   1.164 -0.2986 -1.8389 -0.1710
 2510ETH     HC22587   2.638   3.064   1.112  0.2731 -0.4412 -1.4764
 2510ETH     HC22588   2.672   2.928   0.909 -1.0660  2.5223  0.7294
 2510ETH     HC22589   2.553   2.804   0.967 -1.0147 -0.4498  0.9781
 2510ETH     HC22590   2.504   2.962   0.920  0.2557  1.2416  0.9497
 2511ETH     OH22591   0.600   5.420   0.307  0.0814 -0.1272 -0.6574
 2511ETH     CH22592   0.631   5.434   0.444 -0.4812 -0.7147 -0.4648
 2511ETH     CH22593   0.776   5.391   0.470 -0.3565 -0.0869 -0.1122
 2511ETH     HO22594   0.624   5.334   0.274 -1.3157 -0.6099 -0.4759
 2511ETH     HC22595   0.614   5.537   0.475 -0.3589 -0.9598  0.4422
 2511ETH     HC22596   0.563   5.371   0.501 -0.2319  1.6248  2.5502
 2511ETH     HC22597   0.803   5.376   0.574 -0.5740  0.2651 -0.0057
 2511ETH     HC22598   0.811   5.303   0.416  1.5486 -0.2292  1.3331
 2511ETH     HC22599   0.853   5.463   0.442 -0.7736 -0.5681 -2.6120
 2512ETH     OH22600   1.623   4.771   5.779  0.0144  0.0170  0.0056
 2512ETH     CH22601   1.605   4.632   5.795  0.3322  0.0136  0.3339
 2512ETH     CH22602   1.717   4.550   5.734  0.1971  0.3103 -0.3197
 2512ETH     HO22603   1.707   4.802   5.808 -1.3629  1.4990  2.5921
 2512ETH     HC22604   1.607   4.635   5.904  3.0859  1.2719  0.2776
 2512ETH     HC22605   1.503   4.605   5.767  0.1920  1.5386 -0.6818
 2512ETH     HC22606   1.697   4.442   5.737  0.3179  0.2751 -0.7628
 2512ETH     HC22607   1.740   4.581   5.632 -1.1057  1.2456 -0.3328
 2512ETH     HC22608   1.801   4.569   5.801 -0.0321 -4.8998  1.6867
 2513ETH     OH22609   0.976   6.107   2.440 -0.0973 -0.2306  0.3860
 2513ETH     CH22610   1.016   6.069   2.311 -0.3497  0.3306  0.1410
 2513ETH     CH22611   0.972   5.925   2.282  0.1026  0.2132  0.0250
 2513ETH     HO22612   1.026   6.057   2.503 -1.5932  1.3749  2.9171
 2513ETH     HC22613   0.953   6.131   2.247  0.9421  1.4146 -0.1134
 2513ETH     HC22614   1.119   6.094   2.286 -0.2454  1.0159  1.2352
 2513ETH     HC22615   0.866   5.906   2.300 -0.2556  2.9855  1.1992
 2513ETH     HC22616   1.010   5.907   2.181  0.7584  2.5812 -0.1786
 2513ETH     HC22617   1.030   5.857   2.343  0.7562 -0.0974 -0.9248
 2514ETH     OH22618   4.382   0.541   3.030  0.6751 -0.1605 -0.0786
 2514ETH     CH22619   4.517   0.564   3.062  0.3128  0.7224  0.8671
 2514ETH     CH22620   4.596   0.563   2.931 -0.0950  0.2238  0.6233
 2514ETH     HO22621   4.338   0.524   3.112 -1.2622  1.3205 -0.7673
 2514ETH     HC22622   4.524   0.657   3.118  2.4826  1.6629 -0.8811
 2514ETH     HC22623   4.561   0.488   3.127  0.1404  0.0812  0.2367
 2514ETH     HC22624   4.699   0.597   2.938 -0.5355  1.2890  2.1468
 2514ETH     HC22625   4.603   0.459   2.900  0.8028  0.3796  0.2998
 2514ETH     HC22626   4.543   0.625   2.858  0.3801 -0.0096  0.0786
 2515ETH     OH22627   3.987   1.770   0.685 -0.1006 -0.2647  0.0330
 2515ETH     CH22628   4.019   1.721   0.813 -0.3375  0.5726  0.4171
 2515ETH     CH22629   4.009   1.807   0.940 -0.3935  0.8187  0.2454
 2515ETH     HO22630   3.897   1.751   0.665 -0.0250  0.2924 -0.8477
 2515ETH     HC22631   3.964   1.627   0.820 -0.6420  0.6387 -1.0377
 2515ETH     HC22632   4.125   1.699   0.803  0.1872  3.2721 -0.2297
 2515ETH     HC22633   3.910   1.852   0.934 -0.3182  0.9614  0.0841
 2515ETH     HC22634   4.006   1.748   1.031 -2.3300  0.1331 -0.2228
 2515ETH     HC22635   4.077   1.892   0.943  1.1114 -0.4302  2.3817
 2516ETH     OH22636   4.125   0.634   4.572  0.0390 -0.2930  0.0681
 2516ETH     CH22637   3.987   0.607   4.564  0.0242 -0.3632  0.5504
 2516ETH     CH22638   3.937   0.609   4.708 -0.3922  0.4391  0.3981
 2516ETH     HO22639   4.158   0.645   4.484 -1.7419 -1.3059 -0.7687
 2516ETH     HC22640   3.942   0.683   4.500 -0.1291 -0.8621  0.0549
 2516ETH     HC22641   3.962   0.511   4.516  0.7222 -0.4040  0.2682
 2516ETH     HC22642   3.981   0.688   4.769  2.2227  0.0657 -0.9445
 2516ETH     HC22643   3.830   0.622   4.695 -0.3155  1.0545  0.3637
 2516ETH     HC22644   3.963   0.510   4.747 -3.1107  0.1017  1.4293
 2517ETH     OH22645   1.417   2.455   4.614 -0.5238  0.0794  0.2247
 2517ETH     CH22646   1.482   2.513   4.724 -0.4110 -0.1893  0.3011
 2517ETH     CH22647   1.582   2.417   4.789 -0.3953 -0.1882  0.2779
 2517ETH     HO22648   1.324   2.466   4.630 -1.0926 -1.6329 -1.6936
 2517ETH     HC22649   1.524   2.609   4.694  1.3482 -1.2185 -0.5980
 2517ETH     HC22650   1.413   2.538   4.805 -0.1524 -2.8225  1.3899
 2517ETH     HC22651   1.604   2.445   4.891  0.7019 -0.2004  0.0557
 2517ETH     HC22652   1.530   2.325   4.816 -0.3301 -0.3207 -0.0366
 2517ETH     HC22653   1.667   2.391   4.725  0.0109 -1.0756  1.1640
 2518ETH     OH22654   2.202   1.883   6.025 -0.0956  0.2156  0.0554
 2518ETH     CH22655   2.336   1.927   6.025 -0.0633  0.1181 -0.2006
 2518ETH     CH22656   2.358   2.026   5.911  0.4713 -0.4573 -0.5932
 2518ETH     HO22657   2.170   1.889   6.114 -2.3533  1.4972 -0.7908
 2518ETH     HC22658   2.366   1.970   6.121 -1.4066  0.3005  0.1504
 2518ETH     HC22659   2.400   1.840   6.018 -0.6849 -0.4694  1.2525
 2518ETH     HC22660   2.291   2.111   5.924  0.0098 -1.0557  0.9570
 2518ETH     HC22661   2.460   2.063   5.922  0.0675  0.4544  0.1659
 2518ETH     HC22662   2.336   1.990   5.810 -0.7884  0.2524 -0.5841
 2519ETH     OH22663   2.418   1.806   1.136  0.1407  0.1658 -0.0570
 2519ETH     CH22664   2.398   1.674   1.090 -0.1554  0.2899 -0.2881
 2519ETH     CH22665   2.373   1.670   0.939  0.5908  0.4274 -0.4166
 2519ETH     HO22666   2.372   1.826   1.216  0.5022 -1.6714  0.6176
 2519ETH     HC22667   2.488   1.619   1.117 -0.0119  0.0561 -1.2306
 2519ETH     HC22668   2.313   1.630   1.142  0.2498  0.9837  1.0113
 2519ETH     HC22669   2.374   1.571   0.894  0.2455  0.0960  0.2996
 2519ETH     HC22670   2.267   1.688   0.922  0.7977  0.7518 -1.3500
 2519ETH     HC22671   2.427   1.746   0.881 -1.3968  0.1408 -2.6879
 2520ETH     OH22672   5.133   1.169   0.222  0.2454 -0.9191 -0.1024
 2520ETH     CH22673   4.992   1.163   0.217  0.2048  0.1077 -0.3815
 2520ETH     CH22674   4.938   1.285   0.142 -0.2940 -0.0808 -0.3327
 2520ETH     HO22675   5.160   1.079   0.218 -2.0401 -1.6509 -0.0344
 2520ETH     HC22676   4.947   1.070   0.181  1.8997 -1.2108  0.8108
 2520ETH     HC22677   4.947   1.163   0.316  1.4675 -0.0587  0.1964
 2520ETH     HC22678   4.972   1.372   0.199 -1.6748  0.9480 -1.0455
 2520ETH     HC22679   4.970   1.298   0.039  1.3265 -0.4720  0.1138
 2520ETH     HC22680   4.831   1.290   0.160 -0.2122 -1.6602  0.6654
 2521ETH     OH22681   0.146   0.387   5.317 -0.4488  0.7283  0.0652
 2521ETH     CH22682   0.009   0.351   5.323 -0.2394 -0.0280  0.3840
 2521ETH     CH22683  -0.071   0.376   5.195  0.3168 -0.3153 -0.0232
 2521ETH     HO22684   0.158   0.467   5.365 -0.8823  0.5537  0.4748
 2521ETH     HC22685  -0.006   0.244   5.340  0.6068 -0.9805 -4.1989
 2521ETH     HC22686  -0.031   0.415   5.401 -1.6936  1.1474 -1.2827
 2521ETH     HC22687  -0.173   0.344   5.215 -0.1864  1.9515  1.1097
 2521ETH     HC22688  -0.067   0.476   5.151 -0.8757  0.1854  0.9798
 2521ETH     HC22689  -0.039   0.313   5.112  1.2210  2.3485 -1.7503
 2522ETH     OH22690   1.568   2.587   2.824  0.0813  0.2316 -0.2189
 2522ETH     CH22691   1.597   2.695   2.910 -0.1146 -0.3936  0.6414
 2522ETH     CH22692   1.475   2.781   2.945  0.1349  0.1974  0.0680
 2522ETH     HO22693   1.532   2.525   2.886  1.3029  0.5240  0.8036
 2522ETH     HC22694   1.648   2.650   2.995  1.9711 -0.1980 -0.4667
 2522ETH     HC22695   1.662   2.777   2.878 -1.3097  0.4186  0.2717
 2522ETH     HC22696   1.392   2.713   2.962  0.6712 -0.2991  0.7510
 2522ETH     HC22697   1.493   2.838   3.036 -1.4962  2.4498 -0.9572
 2522ETH     HC22698   1.446   2.846   2.863 -0.3241 -0.5128 -0.3439
 2523ETH     OH22699   0.392   3.480   6.008 -0.1761  0.0825 -0.2721
 2523ETH     CH22700   0.386   3.413   5.884  0.0788 -0.0843 -0.1934
 2523ETH     CH22701   0.244   3.369   5.848  0.1221 -0.4824  0.1169
 2523ETH     HO22702   0.485   3.491   6.023 -0.2279  4.4715 -2.3024
 2523ETH     HC22703   0.432   3.476   5.808  1.5260 -0.2437  0.5241
 2523ETH     HC22704   0.442   3.320   5.892 -0.5151 -0.2437  2.9306
 2523ETH     HC22705   0.257   3.307   5.759 -3.0586 -1.6427  0.4134
 2523ETH     HC22706   0.217   3.309   5.935 -0.4097  0.5264  0.6572
 2523ETH     HC22707   0.174   3.450   5.830 -0.4692 -1.0574 -0.1746
 2524ETH     OH22708   2.693   6.264   0.426  0.2767  0.3446 -0.1904
 2524ETH     CH22709   2.797   6.236   0.335  0.3365 -0.4015  0.1001
 2524ETH     CH22710   2.878   6.120   0.392  0.2757 -0.4747  0.0351
 2524ETH     HO22711   2.629   6.199   0.400 -0.7461  1.6195 -0.8869
 2524ETH     HC22712   2.756   6.214   0.237  0.5539  4.2405 -1.1550
 2524ETH     HC22713   2.862   6.324   0.329  0.2526 -0.2616  1.1352
 2524ETH     HC22714   2.962   6.080   0.335 -0.3787 -0.9737 -0.6040
 2524ETH     HC22715   2.910   6.127   0.496 -0.7963  2.0395  0.2186
 2524ETH     HC22716   2.816   6.030   0.389  1.3255 -1.1711 -3.2911
 2525ETH     OH22717   5.458   3.605   3.220  0.0657  0.1792 -0.4808
 2525ETH     CH22718   5.394   3.501   3.150 -0.0806  0.6012 -0.9775
 2525ETH     CH22719   5.249   3.548   3.133  0.0301  1.3057 -0.0021
 2525ETH     HO22720   5.543   3.575   3.249  1.2654  2.3609 -1.5520
 2525ETH     HC22721   5.447   3.495   3.055  0.5838 -1.5945 -0.4922
 2525ETH     HC22722   5.398   3.416   3.218  2.3435  0.1606 -1.6455
 2525ETH     HC22723   5.190   3.472   3.082 -0.2087  1.5110 -0.0330
 2525ETH     HC22724   5.200   3.578   3.226 -0.1140 -1.9012  1.0198
 2525ETH     HC22725   5.239   3.641   3.077 -0.0595  1.2997  0.0047
 2526ETH     OH22726   1.021   4.796   5.460  0.3183  0.3492 -0.2865
 2526ETH     CH22727   1.141   4.822   5.391  0.6345 -0.0148  0.1222
 2526ETH     CH22728   1.136   4.971   5.355 -0.4309  0.0045  0.3225
 2526ETH     HO22729   1.020   4.847   5.539  0.3686 -1.0926  0.6751
 2526ETH     HC22730   1.223   4.799   5.459  1.0415  2.0334  0.3565
 2526ETH     HC22731   1.148   4.757   5.304  0.3034 -0.3459  0.3449
 2526ETH     HC22732   1.130   5.029   5.447 -0.5671  0.8250 -0.1990
 2526ETH     HC22733   1.224   5.002   5.298 -2.6894  1.2758 -2.5697
 2526ETH     HC22734   1.051   4.996   5.293 -0.3350  0.2998  0.3105
 2527ETH     OH22735   2.999   2.684   0.405 -0.1281 -0.7416 -0.3612
 2527ETH     CH22736   2.926   2.569   0.369 -0.4874 -0.5205 -0.3490
 2527ETH     CH22737   2.985   2.511   0.240 -0.0431 -0.2855 -0.2523
 2527ETH     HO22738   2.961   2.714   0.487 -0.7784  0.4652 -1.0862
 2527ETH     HC22739   2.936   2.487   0.440  0.5706 -1.0483 -1.0945
 2527ETH     HC22740   2.818   2.583   0.361 -0.6004  0.1168  2.0664
 2527ETH     HC22741   2.999   2.594   0.172  1.6355  1.0141  1.6152
 2527ETH     HC22742   3.081   2.459   0.250  0.4150  0.9767  2.4763
 2527ETH     HC22743   2.921   2.439   0.190  0.0837  0.1803 -1.0883
 2528ETH     OH22744   0.601   4.829   1.515  0.0741 -0.5278 -0.2466
 2528ETH     CH22745   0.522   4.761   1.609 -0.3792  0.3643  0.0204
 2528ETH     CH22746   0.539   4.817   1.751  0.2669 -0.0478  0.1055
 2528ETH     HO22747   0.578   4.797   1.429  2.2666  1.0809 -1.4923
 2528ETH     HC22748   0.416   4.753   1.582 -0.6443  3.4671 -0.0496
 2528ETH     HC22749   0.559   4.659   1.601 -1.8432 -0.1741 -0.1388
 2528ETH     HC22750   0.540   4.926   1.752  0.9897 -0.0065 -1.9618
 2528ETH     HC22751   0.463   4.781   1.820  1.5317  1.9649  2.6375
 2528ETH     HC22752   0.642   4.790   1.775  1.5686  1.9513 -2.9349
 2529ETH     OH22753   5.199   2.620   5.572 -0.5199 -0.0878  0.0963
 2529ETH     CH22754   5.178   2.596   5.709  0.2378 -0.1088  0.2134
 2529ETH     CH22755   5.172   2.724   5.792 -0.9474 -0.2374  0.3419
 2529ETH     HO22756   5.148   2.693   5.539  0.2918  0.1408 -0.6740
 2529ETH     HC22757   5.078   2.553   5.712 -0.0355  0.5734  1.0009
 2529ETH     HC22758   5.247   2.528   5.759  0.4055  0.2486  0.4717
 2529ETH     HC22759   5.161   2.702   5.898  0.7020  1.4719  0.8986
 2529ETH     HC22760   5.265   2.780   5.783 -0.9630 -0.0558  1.2188
 2529ETH     HC22761   5.097   2.795   5.758 -0.1022 -0.0739 -1.2170
 2530ETH     OH22762   2.018   0.356   5.365 -0.0082 -0.2444  0.5582
 2530ETH     CH22763   1.961   0.233   5.403  0.9998 -0.9096 -0.0356
 2530ETH     CH22764   1.906   0.157   5.283 -0.2378  0.0233 -0.0704
 2530ETH     HO22765   1.963   0.404   5.306  0.3504  1.8305  1.8507
 2530ETH     HC22766   2.033   0.167   5.452  3.6655  1.9175 -0.0345
 2530ETH     HC22767   1.872   0.247   5.465  1.2116 -0.0169  0.0699
 2530ETH     HC22768   1.877   0.056   5.311  1.2220 -0.5448 -0.5465
 2530ETH     HC22769   1.805   0.185   5.252 -0.8689 -1.1393  0.8727
 2530ETH     HC22770   1.964   0.158   5.191 -1.8507  0.4321 -1.1081
 2531ETH     OH22771   3.606   4.973   4.925  0.4431 -0.2461 -0.2397
 2531ETH     CH22772   3.650   4.844   4.959  0.1632 -0.2203  0.2346
 2531ETH     CH22773   3.797   4.845   5.002  0.1758  0.1244  0.1855
 2531ETH     HO22774   3.631   4.983   4.835  0.6219  4.0084  0.1525
 2531ETH     HC22775   3.580   4.797   5.028  0.1027  0.8346  0.9093
 2531ETH     HC22776   3.640   4.784   4.868 -2.0065 -0.0616  0.3542
 2531ETH     HC22777   3.851   4.751   5.000  2.2209  1.2886 -0.3995
 2531ETH     HC22778   3.854   4.900   4.927  0.2171 -0.9425 -0.5778
 2531ETH     HC22779   3.813   4.884   5.103  1.0940 -0.8355  0.4213
 2532ETH     OH22780   0.893   5.529   5.740  0.1716  0.4165  0.1285
 2532ETH     CH22781   0.966   5.488   5.627  0.1552  0.4155  0.1179
 2532ETH     CH22782   0.917   5.351   5.579  0.5194  0.3486 -0.0678
 2532ETH     HO22783   0.802   5.505   5.727  0.9263 -2.6274  0.1073
 2532ETH     HC22784   0.958   5.559   5.544  2.5124  0.4281 -0.1202
 2532ETH     HC22785   1.072   5.479   5.650  0.2569 -0.1417 -0.5319
 2532ETH     HC22786   0.904   5.281   5.661 -0.2123  1.3849  0.7182
 2532ETH     HC22787   0.829   5.370   5.517  1.6407 -2.1260 -2.5462
 2532ETH     HC22788   0.995   5.319   5.510  0.0106 -0.5611 -0.2218
 2533ETH     OH22789   5.542   4.030   5.365  0.0424 -0.1593 -0.0985
 2533ETH     CH22790   5.530   4.132   5.462 -0.4214  0.1840 -0.5118
 2533ETH     CH22791   5.381   4.163   5.477 -0.2635  0.5090  0.4342
 2533ETH     HO22792   5.632   4.027   5.335  0.0573 -0.6312 -0.0069
 2533ETH     HC22793   5.577   4.092   5.552 -1.6933  2.0325  1.0104
 2533ETH     HC22794   5.592   4.217   5.435  0.7085 -0.7090 -0.7939
 2533ETH     HC22795   5.354   4.194   5.376  0.8947  0.6719  0.1693
 2533ETH     HC22796   5.330   4.080   5.524  3.8683 -2.5589 -0.2393
 2533ETH     HC22797   5.359   4.244   5.547 -0.8806 -1.1431  2.1841
 2534ETH     OH22798   5.648   5.827   4.155 -0.3068  0.5683  0.4947
 2534ETH     CH22799   5.621   5.689   4.148  0.4719  0.4430 -0.1044
 2534ETH     CH22800   5.535   5.665   4.024 -0.1467 -0.2226  0.4495
 2534ETH     HO22801   5.710   5.845   4.224  3.1289 -2.5714 -1.5795
 2534ETH     HC22802   5.712   5.632   4.131 -0.1660 -1.1188  1.5169
 2534ETH     HC22803   5.574   5.660   4.242  0.1694  0.0633 -0.3707
 2534ETH     HC22804   5.427   5.683   4.020  0.3637  2.7603 -0.5627
 2534ETH     HC22805   5.583   5.711   3.938 -1.0531 -0.4292 -0.1741
 2534ETH     HC22806   5.530   5.556   4.015 -0.8082 -0.1976  0.5053
 2535ETH     OH22807   1.690   2.756   2.602  0.6342  0.8182  0.1998
 2535ETH     CH22808   1.605   2.820   2.510 -0.2544  0.3736  0.7099
 2535ETH     CH22809   1.497   2.721   2.465 -0.0641  0.1830  0.6720
 2535ETH     HO22810   1.640   2.690   2.647 -0.6485  1.7668  0.1936
 2535ETH     HC22811   1.671   2.845   2.427 -0.1810  3.3694  1.6470
 2535ETH     HC22812   1.564   2.908   2.558  0.0185  1.1211 -0.3948
 2535ETH     HC22813   1.431   2.702   2.550 -0.4514  0.7652  0.5021
 2535ETH     HC22814   1.442   2.754   2.377 -1.1181 -0.8969  0.9028
 2535ETH     HC22815   1.542   2.629   2.426  1.3109  0.9236  0.4945
 2536ETH     OH22816   5.473   0.504   0.237 -0.3337  0.4468  0.1245
 2536ETH     CH22817   5.462   0.484   0.376 -0.2476 -1.1735 -0.0976
 2536ETH     CH22818   5.349   0.562   0.442  0.4255  0.2863 -0.6592
 2536ETH     HO22819   5.459   0.595   0.215  0.2423 -0.0029 -2.2144
 2536ETH     HC22820   5.450   0.377   0.393 -0.8030 -0.9236  1.1556
 2536ETH     HC22821   5.560   0.501   0.421  0.2757 -0.8512 -1.3414
 2536ETH     HC22822   5.357   0.668   0.416  1.3241  0.3375 -0.1740
 2536ETH     HC22823   5.250   0.526   0.414  0.2692  1.2877 -1.4160
 2536ETH     HC22824   5.362   0.559   0.551  0.4662 -1.7284 -0.7021
 2537ETH     OH22825   2.732   5.290   6.285  0.6435  0.0226 -0.1491
 2537ETH     CH22826   2.701   5.398   6.371  0.3030  0.1115 -0.3810
 2537ETH     CH22827   2.758   5.381   6.512 -0.5212  0.0824 -0.0499
 2537ETH     HO22828   2.701   5.329   6.205  0.4460  0.2053  0.0146
 2537ETH     HC22829   2.742   5.490   6.328  0.3016  0.5538  0.5414
 2537ETH     HC22830   2.598   5.431   6.385  0.9839  1.9674  0.3768
 2537ETH     HC22831   2.858   5.337   6.507 -0.5833 -0.1271  0.5172
 2537ETH     HC22832   2.754   5.477   6.563  0.1858 -0.2857  0.7004
 2537ETH     HC22833   2.689   5.312   6.561 -1.9959  0.4394 -1.5861
 2538ETH     OH22834   4.216   3.986   5.158 -0.0534 -0.1008  0.3116
 2538ETH     CH22835   4.206   4.126   5.176 -0.1025 -0.0655  0.0012
 2538ETH     CH22836   4.200   4.161   5.324 -0.6363 -0.5011  0.0833
 2538ETH     HO22837   4.306   3.965   5.176  0.5936  1.3699 -1.0208
 2538ETH     HC22838   4.282   4.186   5.126 -0.2920  0.2798  0.1231
 2538ETH     HC22839   4.120   4.165   5.122  1.1470  0.4813 -1.6519
 2538ETH     HC22840   4.109   4.129   5.377 -1.8953  0.1942 -1.6213
 2538ETH     HC22841   4.279   4.104   5.372 -0.0472 -0.8832 -1.3295
 2538ETH     HC22842   4.222   4.267   5.338  0.1110 -0.7792  1.0242
 2539ETH     OH22843   2.212   4.100   2.353  0.1275 -0.3869  0.0976
 2539ETH     CH22844   2.276   4.131   2.231 -0.0619 -0.3772  0.0007
 2539ETH     CH22845   2.378   4.244   2.244 -0.9775  0.4596  0.0551
 2539ETH     HO22846   2.164   4.019   2.342  0.6233 -0.6315 -0.2998
 2539ETH     HC22847   2.332   4.039   2.216  0.1798 -0.1540 -0.4659
 2539ETH     HC22848   2.203   4.136   2.150 -1.2362 -0.2446  1.0572
 2539ETH     HC22849   2.420   4.281   2.151  1.3854  1.1292  1.3401
 2539ETH     HC22850   2.334   4.329   2.295 -2.3295 -1.8083  2.8619
 2539ETH     HC22851   2.468   4.216   2.300 -0.0687 -0.9424 -2.0360
 2540ETH     OH22852   4.427   3.148   4.583  0.4538  0.0250 -0.6204
 2540ETH     CH22853   4.523   3.135   4.685  0.1333 -0.7428 -0.4110
 2540ETH     CH22854   4.464   3.069   4.810 -0.4843  0.5759  0.0144
 2540ETH     HO22855   4.467   3.092   4.519  1.3577 -0.0794  0.0213
 2540ETH     HC22856   4.608   3.081   4.643 -0.6278 -0.2520 -2.6256
 2540ETH     HC22857   4.563   3.233   4.713  3.2276 -1.5528 -1.7775
 2540ETH     HC22858   4.540   3.057   4.888 -0.9169 -0.3187  0.3056
 2540ETH     HC22859   4.388   3.129   4.859  0.4428  1.2674  0.6469
 2540ETH     HC22860   4.428   2.967   4.795 -1.7747  0.6471  2.4878
 2541ETH     OH22861   3.398   2.472   2.077 -0.4419 -0.5850  0.2971
 2541ETH     CH22862   3.512   2.439   2.001 -0.6012 -0.0224 -0.1962
 2541ETH     CH22863   3.524   2.287   1.992 -0.1589 -0.0297  0.4323
 2541ETH     HO22864   3.374   2.561   2.053 -1.2958 -1.0740 -0.7086
 2541ETH     HC22865   3.494   2.484   1.904 -1.1732  0.2613  0.0330
 2541ETH     HC22866   3.601   2.492   2.034  0.9735  0.7106 -5.2103
 2541ETH     HC22867   3.598   2.254   1.920 -2.7232 -3.1423 -0.8962
 2541ETH     HC22868   3.542   2.237   2.087  3.7764 -0.3334 -0.4133
 2541ETH     HC22869   3.428   2.244   1.963  0.9215 -1.9009 -0.4490
 2542ETH     OH22870   1.263   5.402   0.929  0.2411 -0.0151  0.0076
 2542ETH     CH22871   1.286   5.464   0.804 -0.3034 -0.3155 -0.2426
 2542ETH     CH22872   1.405   5.560   0.804 -0.2195 -0.4175  0.5610
 2542ETH     HO22873   1.225   5.472   0.980 -0.7300  0.6404 -1.5636
 2542ETH     HC22874   1.298   5.387   0.728 -2.2632 -1.4953  0.6001
 2542ETH     HC22875   1.195   5.519   0.778  0.6660  0.9412 -0.9982
 2542ETH     HC22876   1.384   5.651   0.860 -2.1320  1.2055 -2.6766
 2542ETH     HC22877   1.480   5.504   0.861 -0.1211 -0.7449  0.1117
 2542ETH     HC22878   1.438   5.580   0.703 -0.9513  0.0131  0.4092
 2543ETH     OH22879   1.365   4.364   0.329 -0.1156  0.7558  0.1556
 2543ETH     CH22880   1.264   4.298   0.255  0.5822 -0.0418 -0.0848
 2543ETH     CH22881   1.130   4.371   0.264  0.3403 -0.4959 -0.0040
 2543ETH     HO22882   1.348   4.342   0.419  2.2205 -0.4279  0.3318
 2543ETH     HC22883   1.293   4.280   0.152  1.2292  0.1965  0.0523
 2543ETH     HC22884   1.256   4.198   0.297 -2.2637 -0.1314 -0.7450
 2543ETH     HC22885   1.060   4.331   0.190 -0.4241  1.0343 -0.1275
 2543ETH     HC22886   1.075   4.378   0.358 -0.5884 -0.1101 -0.5714
 2543ETH     HC22887   1.145   4.474   0.230 -0.4008 -0.4202 -0.0998
 2544ETH     OH22888   2.187   2.848   3.934  0.7675 -0.6161  0.4791
 2544ETH     CH22889   2.278   2.928   4.006  0.0003  0.9922 -0.2922
 2544ETH     CH22890   2.353   3.009   3.901  0.0695  0.9164 -0.3023
 2544ETH     HO22891   2.228   2.782   3.881  1.0073 -1.0614  1.2063
 2544ETH     HC22892   2.229   2.998   4.074  0.8004  1.5238 -0.2603
 2544ETH     HC22893   2.332   2.869   4.081  0.5883  1.4627 -0.3462
 2544ETH     HC22894   2.430   2.945   3.859  0.3846 -0.0266  1.6433
 2544ETH     HC22895   2.290   3.056   3.826  0.3593  1.7552 -0.0336
 2544ETH     HC22896   2.406   3.094   3.945  1.1320  0.4953 -0.7459
 2545ETH     OH22897   6.193   2.747   6.233 -0.0152  0.3047  0.1186
 2545ETH     CH22898   6.310   2.673   6.258 -0.0881 -0.0027 -0.4349
 2545ETH     CH22899   6.436   2.756   6.285 -0.0443 -0.2841  0.2300
 2545ETH     HO22900   6.116   2.693   6.242 -1.8263  2.7172 -0.1714
 2545ETH     HC22901   6.292   2.612   6.346  0.1256 -0.6147 -0.8136
 2545ETH     HC22902   6.315   2.605   6.173 -0.5104 -1.9468  1.0923
 2545ETH     HC22903   6.454   2.802   6.188 -2.6924 -0.7146 -0.4996
 2545ETH     HC22904   6.419   2.823   6.369  2.4864 -0.7204  1.1341
 2545ETH     HC22905   6.524   2.698   6.314  0.5299 -0.7026 -2.2533
 2546ETH     OH22906   2.484   5.839   0.473  0.1713 -0.0290 -0.9430
 2546ETH     CH22907   2.346   5.837   0.500  0.3390  0.1005 -0.0748
 2546ETH     CH22908   2.309   5.693   0.539 -0.0274  0.1306 -0.3076
 2546ETH     HO22909   2.502   5.922   0.431 -3.2455  2.3243  1.9565
 2546ETH     HC22910   2.314   5.901   0.582 -0.9373 -1.3413  0.5953
 2546ETH     HC22911   2.297   5.852   0.404  0.4694  0.2495 -0.1155
 2546ETH     HC22912   2.365   5.663   0.627 -0.9663  0.1198  0.2962
 2546ETH     HC22913   2.204   5.695   0.567 -0.4891 -1.3938 -1.8447
 2546ETH     HC22914   2.324   5.614   0.465 -2.1322  0.6266 -1.2969
 2547ETH     OH22915   2.479   5.247   5.861 -0.3985 -0.4367  0.9703
 2547ETH     CH22916   2.354   5.247   5.796  0.2557  0.2373 -0.3043
 2547ETH     CH22917   2.313   5.103   5.766 -0.0269  0.4092 -0.7381
 2547ETH     HO22918   2.542   5.233   5.792 -0.8607  2.3077 -0.0808
 2547ETH     HC22919   2.276   5.299   5.851  0.0274 -1.8185  1.3878
 2547ETH     HC22920   2.372   5.295   5.700  0.0339 -1.9404 -1.4668
 2547ETH     HC22921   2.321   5.033   5.849  0.8366 -1.5186 -2.3999
 2547ETH     HC22922   2.212   5.107   5.726 -1.1719  1.0723  2.0825
 2547ETH     HC22923   2.377   5.057   5.691 -0.2021  0.7386 -1.0879
 2548ETH     OH22924   4.173   4.167   3.704  0.4306 -0.6409  0.4444
 2548ETH     CH22925   4.261   4.087   3.627  0.1647 -0.2405 -0.2797
 2548ETH     CH22926   4.354   4.194   3.569 -0.0096  0.0929  0.0485
 2548ETH     HO22927   4.126   4.228   3.650 -2.4420 -0.9016  2.5444
 2548ETH     HC22928   4.313   4.018   3.694 -1.1089  1.0020  2.0688
 2548ETH     HC22929   4.209   4.028   3.552  1.3027 -0.4431 -0.9086
 2548ETH     HC22930   4.313   4.265   3.498  2.3604 -1.4976 -3.0885
 2548ETH     HC22931   4.412   4.246   3.645  2.5661 -1.2182 -0.9423
 2548ETH     HC22932   4.431   4.143   3.510  0.2004  2.1155 -1.4817
 2549ETH     OH22933   3.017   1.899   0.885 -0.0407 -0.1329 -0.5652
 2549ETH     CH22934   3.141   1.960   0.912 -0.1236 -0.0391 -0.3982
 2549ETH     CH22935   3.122   2.111   0.928  0.4063 -0.0106 -0.0276
 2549ETH     HO22936   2.963   1.903   0.962 -1.5943  2.2142 -1.7273
 2549ETH     HC22937   3.192   1.921   1.000 -0.3474  0.4237 -0.0632
 2549ETH     HC22938   3.212   1.936   0.833 -0.2545 -0.0516 -0.5133
 2549ETH     HC22939   3.101   2.168   0.837 -0.9888 -1.4137 -0.6099
 2549ETH     HC22940   3.036   2.141   0.988  0.9792  0.5452  0.5225
 2549ETH     HC22941   3.206   2.167   0.969  0.4985  0.9596 -1.5122
 2550ETH     OH22942   0.993   2.079   0.761 -0.2264 -0.7205 -0.6705
 2550ETH     CH22943   0.994   2.004   0.880  0.1127  0.0283 -0.1969
 2550ETH     CH22944   1.094   2.074   0.973  0.0255  0.6375 -0.5595
 2550ETH     HO22945   0.986   2.014   0.693  0.0732 -1.2546 -0.1843
 2550ETH     HC22946   0.897   1.992   0.928 -1.3289 -3.7283 -3.7762
 2550ETH     HC22947   1.034   1.908   0.849 -0.2834 -0.1739 -0.0890
 2550ETH     HC22948   1.191   2.091   0.927  0.2965  0.2487 -0.1371
 2550ETH     HC22949   1.057   2.172   1.001 -1.6948 -0.2130  0.2230
 2550ETH     HC22950   1.120   2.011   1.058 -0.5786  2.6857  1.1820
 2551ETH     OH22951   0.336   5.343   2.118  0.1896  0.3122 -0.1875
 2551ETH     CH22952   0.237   5.274   2.045  0.2293  0.0772 -0.0194
 2551ETH     CH22953   0.245   5.124   2.076 -0.2347  0.0964  0.2043
 2551ETH     HO22954   0.318   5.327   2.210 -0.8163  3.5210  0.2237
 2551ETH     HC22955   0.143   5.321   2.074 -1.3270 -2.0487 -1.4322
 2551ETH     HC22956   0.243   5.303   1.940 -0.3881 -0.5221 -0.2269
 2551ETH     HC22957   0.144   5.086   2.069 -0.3988  0.7605 -1.2991
 2551ETH     HC22958   0.304   5.066   2.004 -1.5884 -1.0399 -0.0061
 2551ETH     HC22959   0.279   5.101   2.177 -0.5861 -2.6958 -0.2696
 2552ETH     OH22960   4.613   2.677   2.081 -0.0676 -0.1406 -0.7145
 2552ETH     CH22961   4.705   2.577   2.117 -0.0646  0.1130  0.0089
 2552ETH     CH22962   4.835   2.597   2.039 -0.0132  0.2806  0.1371
 2552ETH     HO22963   4.554   2.686   2.155  0.1517  1.9062 -0.7564
 2552ETH     HC22964   4.707   2.578   2.225 -3.9824  2.8409  0.1360
 2552ETH     HC22965   4.662   2.486   2.073 -1.1690 -0.9479  3.1463
 2552ETH     HC22966   4.882   2.693   2.060  2.8070 -1.3392  1.5030
 2552ETH     HC22967   4.897   2.512   2.068  1.1971  0.4931 -1.7250
 2552ETH     HC22968   4.818   2.581   1.932 -0.1192 -0.5282  0.2688
 2553ETH     OH22969   0.008   1.412   2.303  0.3120  0.3688  0.5155
 2553ETH     CH22970  -0.035   1.487   2.191  0.3427  0.0902  0.3163
 2553ETH     CH22971   0.081   1.549   2.113  0.5816 -0.3630  0.3070
 2553ETH     HO22972  -0.039   1.330   2.300  0.8360  0.0589  0.7114
 2553ETH     HC22973  -0.075   1.415   2.120 -0.2447  0.6433  0.0848
 2553ETH     HC22974  -0.108   1.562   2.223  0.0922 -0.4383  0.9903
 2553ETH     HC22975   0.138   1.616   2.177  0.0684  1.3036 -0.9142
 2553ETH     HC22976   0.151   1.472   2.082  0.1101 -0.5992 -0.1841
 2553ETH     HC22977   0.047   1.609   2.028  2.0406  0.5059  0.3118
 2554ETH     OH22978   3.411   5.542   4.776  0.0581 -0.4140  0.1624
 2554ETH     CH22979   3.350   5.642   4.854 -0.2106 -0.2066 -0.3130
 2554ETH     CH22980   3.458   5.706   4.941 -0.3256 -0.1424 -0.2161
 2554ETH     HO22981   3.344   5.495   4.729  0.7798 -2.5747  1.2211
 2554ETH     HC22982   3.303   5.699   4.774  1.3976  1.4082 -0.1334
 2554ETH     HC22983   3.270   5.587   4.904 -0.8968 -0.8145 -2.0521
 2554ETH     HC22984   3.515   5.768   4.872 -1.4356  1.6203  0.4058
 2554ETH     HC22985   3.409   5.770   5.014  0.1685 -1.0005  0.8945
 2554ETH     HC22986   3.523   5.645   5.004  2.1485  1.4416 -1.1642
 2555ETH     OH22987   1.897   0.736   5.681 -0.1885 -0.0862  0.6580
 2555ETH     CH22988   1.834   0.659   5.581  0.4053  0.0633  0.1635
 2555ETH     CH22989   1.704   0.727   5.538  0.2005 -0.5031 -0.1205
 2555ETH     HO22990   1.934   0.675   5.743 -0.8830 -0.8259  0.3543
 2555ETH     HC22991   1.905   0.646   5.500 -0.3604  0.1935 -0.5302
 2555ETH     HC22992   1.796   0.561   5.608 -0.0554  0.7337  2.0415
 2555ETH     HC22993   1.633   0.701   5.617 -1.1665  1.7268 -0.5787
 2555ETH     HC22994   1.705   0.836   5.547  0.0122 -0.5853  1.0291
 2555ETH     HC22995   1.673   0.708   5.436  1.5628 -1.0255 -0.4500
 2556ETH     OH22996   1.711   0.465   2.128 -0.3315 -0.1814 -0.9094
 2556ETH     CH22997   1.713   0.401   2.253 -0.2571  0.2784 -0.6756
 2556ETH     CH22998   1.841   0.445   2.324 -0.3753  0.2798 -0.4615
 2556ETH     HO22999   1.627   0.445   2.088 -0.0887  0.5364 -1.7899
 2556ETH     HC23000   1.629   0.437   2.313 -0.4317 -0.9061 -0.1907
 2556ETH     HC23001   1.713   0.293   2.239 -4.8711  0.5043 -3.1685
 2556ETH     HC23002   1.846   0.400   2.423 -0.9844  1.7925  0.2575
 2556ETH     HC23003   1.939   0.434   2.277  0.3461  0.3204  0.9839
 2556ETH     HC23004   1.831   0.549   2.355  1.5488  1.9570 -5.0188
 2557ETH     OH23005   4.380   1.836   4.346  0.4222 -0.1627  0.3662
 2557ETH     CH23006   4.422   1.794   4.218 -0.3415 -0.0425  0.0756
 2557ETH     CH23007   4.533   1.690   4.236  0.3566  0.7009  0.0848
 2557ETH     HO23008   4.441   1.807   4.412 -0.2270 -0.4916  0.8235
 2557ETH     HC23009   4.347   1.775   4.141  0.2429  2.6071 -1.1831
 2557ETH     HC23010   4.472   1.883   4.179  3.7688 -1.2712  2.2340
 2557ETH     HC23011   4.623   1.733   4.279  0.8454  1.1351 -1.3394
 2557ETH     HC23012   4.519   1.608   4.306  4.6175  1.8279  2.4267
 2557ETH     HC23013   4.567   1.651   4.140  0.1632  1.4220 -0.2844
 2558ETH     OH23014   3.855   5.836   0.058 -0.0646 -0.2280 -0.3466
 2558ETH     CH23015   3.962   5.770  -0.007  0.2419  0.1641 -0.2437
 2558ETH     CH23016   3.905   5.633  -0.044  0.5407 -0.1221  0.3640
 2558ETH     HO23017   3.890   5.887   0.129 -3.0044  1.1182  0.1971
 2558ETH     HC23018   3.991   5.829  -0.095 -0.5751 -0.5877 -1.0360
 2558ETH     HC23019   4.047   5.767   0.060  0.7895  0.3525 -0.9232
 2558ETH     HC23020   3.982   5.583  -0.104  0.4615 -0.4327  0.5186
 2558ETH     HC23021   3.901   5.572   0.046  2.7516  3.4048  3.0323
 2558ETH     HC23022   3.820   5.635  -0.112 -1.2520 -1.4231  2.5119
 2559ETH     OH23023   2.739   4.910   3.111 -0.5630  0.1815 -0.0927
 2559ETH     CH23024   2.833   4.964   3.021 -0.2152  0.0638  0.1985
 2559ETH     CH23025   2.813   5.109   2.977 -0.2938 -0.0826 -0.2565
 2559ETH     HO23026   2.775   4.917   3.198 -0.6475 -1.8613  0.1440
 2559ETH     HC23027   2.935   4.949   3.056 -0.5214 -0.6178  0.8002
 2559ETH     HC23028   2.829   4.902   2.931  2.4510  0.0247  0.0661
 2559ETH     HC23029   2.831   5.181   3.057  0.8460 -1.4948  0.7767
 2559ETH     HC23030   2.886   5.134   2.901 -0.1983  1.3943  0.2963
 2559ETH     HC23031   2.714   5.120   2.932 -1.0467  0.9974  1.5845
 2560ETH     OH23032   2.948   1.258   5.346 -0.0042  0.4682  0.0135
 2560ETH     CH23033   3.021   1.155   5.409 -0.3530  0.1447 -0.1064
 2560ETH     CH23034   3.078   1.056   5.308  0.4539  0.2587  0.2346
 2560ETH     HO23035   2.967   1.272   5.254 -2.1763  1.9723 -0.2475
 2560ETH     HC23036   3.100   1.209   5.462 -0.4285 -0.3631  0.5229
 2560ETH     HC23037   2.961   1.105   5.485  0.1819  1.4939  1.2239
 2560ETH     HC23038   2.998   0.990   5.276  0.1220  0.2498  1.0868
 2560ETH     HC23039   3.105   1.104   5.213  0.8137  1.1409  0.7703
 2560ETH     HC23040   3.152   0.988   5.349 -0.2802  0.0373  1.2085
 2561ETH     OH23041   2.911   1.310   5.079  0.7367  0.6621 -0.4175
 2561ETH     CH23042   2.871   1.227   4.973  0.0174  0.1331  0.2598
 2561ETH     CH23043   2.860   1.081   5.018 -0.1159 -0.1821 -0.7839
 2561ETH     HO23044   2.937   1.397   5.055 -1.1461  0.7289 -2.3107
 2561ETH     HC23045   2.774   1.261   4.935  0.7968  0.2809 -1.6381
 2561ETH     HC23046   2.953   1.234   4.901  1.0003  1.6929  1.4975
 2561ETH     HC23047   2.773   1.065   5.081  1.4699  0.2007  1.5646
 2561ETH     HC23048   2.847   1.030   4.922 -2.3295  0.9594 -1.1198
 2561ETH     HC23049   2.950   1.037   5.059 -0.2463  0.9879  0.7994
 2562ETH     OH23050   3.809   3.779   0.268  0.2081 -0.4244  0.3703
 2562ETH     CH23051   3.871   3.904   0.247 -0.0183 -0.3529  0.1297
 2562ETH     CH23052   3.795   4.022   0.307 -0.2035 -0.2803 -0.2479
 2562ETH     HO23053   3.735   3.770   0.210  0.7150 -0.7161 -0.2331
 2562ETH     HC23054   3.969   3.902   0.294  0.2805  0.4557 -0.4349
 2562ETH     HC23055   3.896   3.914   0.141  1.0131  0.4266  0.4453
 2562ETH     HC23056   3.822   4.120   0.267 -1.1293 -0.3128 -0.9806
 2562ETH     HC23057   3.687   4.013   0.295 -0.1264 -1.4593 -0.1165
 2562ETH     HC23058   3.809   4.026   0.415  0.1192  0.9141 -0.3311
 2563ETH     OH23059   3.244   0.259   1.392  0.8616  0.1996  0.2837
 2563ETH     CH23060   3.227   0.128   1.343 -0.2652  0.6607 -0.5911
 2563ETH     CH23061   3.088   0.123   1.281 -0.3725 -0.8174 -0.2529
 2563ETH     HO23062   3.270   0.308   1.316 -2.6785  0.1761 -1.0344
 2563ETH     HC23063   3.309   0.098   1.278 -0.0745  0.9815 -0.4998
 2563ETH     HC23064   3.222   0.072   1.437  1.1823  2.3441  0.5327
 2563ETH     HC23065   3.005   0.154   1.344 -0.1511  2.3535 -1.4200
 2563ETH     HC23066   3.086   0.206   1.210  0.8142  1.0327  1.8224
 2563ETH     HC23067   3.076   0.028   1.228  0.6555 -1.4712  0.6700
 2564ETH     OH23068   1.508   4.615   1.185 -0.2959  0.0160 -0.0793
 2564ETH     CH23069   1.625   4.644   1.113  0.1008 -0.0172  0.5485
 2564ETH     CH23070   1.596   4.728   0.988  0.4684 -0.3404  0.2427
 2564ETH     HO23071   1.530   4.550   1.250 -0.3981 -2.2061 -2.1941
 2564ETH     HC23072   1.694   4.685   1.187 -0.3095  0.7911  0.4937
 2564ETH     HC23073   1.672   4.550   1.083 -1.5487 -0.4110 -0.8811
 2564ETH     HC23074   1.575   4.834   1.006  1.9587  0.3385 -1.7768
 2564ETH     HC23075   1.679   4.729   0.917  1.7313  0.5250  1.6892
 2564ETH     HC23076   1.513   4.690   0.929  1.8511 -3.0553 -0.0023
 2565ETH     OH23077   0.694   4.208   0.365 -0.4668 -0.4700  0.2815
 2565ETH     CH23078   0.559   4.232   0.330 -0.2100  0.0580 -0.3650
 2565ETH     CH23079   0.468   4.220   0.452 -0.1118  0.1850 -0.2792
 2565ETH     HO23080   0.703   4.119   0.395  1.4493 -0.0233  1.1004
 2565ETH     HC23081   0.539   4.327   0.279  0.9767  1.6303  1.9907
 2565ETH     HC23082   0.522   4.160   0.257  1.3542  0.3412 -1.4514
 2565ETH     HC23083   0.478   4.294   0.532  0.5214  1.7699 -1.8041
 2565ETH     HC23084   0.364   4.199   0.428 -0.5523  1.7326  0.2070
 2565ETH     HC23085   0.504   4.133   0.507  0.7064 -0.0601 -1.1924
 2566ETH     OH23086   2.819   5.053   6.198  0.1044 -0.0016 -0.1362
 2566ETH     CH23087   2.763   5.010   6.076 -0.4692  0.0861  0.0943
 2566ETH     CH23088   2.764   4.857   6.075 -1.0094  0.0845 -0.1253
 2566ETH     HO23089   2.793   5.143   6.212  2.1575  0.9541 -2.3056
 2566ETH     HC23090   2.661   5.048   6.067  1.1840  4.7565 -0.2586
 2566ETH     HC23091   2.825   5.053   5.998 -1.6573  0.2787 -0.7493
 2566ETH     HC23092   2.726   4.820   5.980  1.1208 -0.4754 -0.7743
 2566ETH     HC23093   2.869   4.828   6.075 -0.9245  0.3798  1.0776
 2566ETH     HC23094   2.708   4.813   6.158  0.6866  0.5845  1.3032
 2567ETH     OH23095   1.663   0.785   0.358 -0.2960 -1.0179  0.0681
 2567ETH     CH23096   1.630   0.892   0.443 -0.6502 -1.0370 -0.0441
 2567ETH     CH23097   1.643   0.853   0.590  0.3669  0.0830  0.1701
 2567ETH     HO23098   1.684   0.816   0.272 -2.1469 -1.5878 -0.6186
 2567ETH     HC23099   1.715   0.956   0.420 -1.0414 -1.0789 -1.6967
 2567ETH     HC23100   1.542   0.946   0.407 -0.7210 -0.9014  0.3238
 2567ETH     HC23101   1.558   0.792   0.621 -0.9255  1.2598 -0.9634
 2567ETH     HC23102   1.742   0.809   0.601 -0.0994 -1.5341 -1.8796
 2567ETH     HC23103   1.635   0.941   0.653 -1.7727 -0.6553  0.9800
 2568ETH     OH23104   1.029   0.399   1.282 -0.3473 -0.4829  0.8397
 2568ETH     CH23105   0.922   0.371   1.194 -0.0933  0.0932  0.3436
 2568ETH     CH23106   0.899   0.222   1.216  1.2424 -0.2122 -0.3091
 2568ETH     HO23107   1.107   0.379   1.232 -0.8502 -1.1184  0.2989
 2568ETH     HC23108   0.842   0.440   1.221  0.1372  0.2170  0.7195
 2568ETH     HC23109   0.953   0.401   1.094  1.5905  0.9040  1.0964
 2568ETH     HC23110   0.988   0.162   1.237 -0.3087 -2.7396 -0.6773
 2568ETH     HC23111   0.819   0.211   1.290 -0.5389  0.6962 -2.0738
 2568ETH     HC23112   0.874   0.170   1.124 -0.3180  1.0498 -0.6094
   6.29167   6.29167   6.29167
