Ethanol_AA
    9
    1ETH      O    1   4.088   3.995   4.010
    1ETH      C    2   3.857   3.957   3.953
    1ETH      C    3   4.001   3.908   3.943
    1ETH      H    4   3.848   4.057   3.906
    1ETH      H    5   3.790   3.886   3.902
    1ETH      H    6   3.828   3.965   4.060
    1ETH      H    7   4.031   3.899   3.835
    1ETH      H    8   4.009   3.807   3.989
    1ETH      H    9   4.099   4.075   3.952
   7.90000   7.90000   7.90000
