Ethanol_UA
9
    1ETH  O        1  -0.145  -0.022  -0.056
    1ETH  C        2   0.091  -0.012  -0.013
    1ETH  C        3  -0.047   0.042   0.021
    1ETH  H        4   0.096  -0.121   0.010
    1ETH  H        5   0.168   0.041   0.046
    1ETH  H        6   0.112   0.003  -0.121
    1ETH  H        7  -0.068   0.028   0.130
    1ETH  H        8  -0.050   0.151  -0.001
    1ETH  H        9  -0.159  -0.111  -0.016
   0.00000   0.00000   0.00000