Ethanol
    9
    1EOH      O    1   3.912   4.087   3.977
    1EOH      C    2   3.881   3.948   3.976
    1EOH      C    3   4.018   3.895   3.940
    1EOH      H    4   3.929   4.112   3.889
    1EOH      H    5   3.807   3.922   3.899
    1EOH      H    6   3.842   3.923   4.074
    1EOH      H    7   4.028   3.880   3.833
    1EOH      H    8   4.048   3.805   3.995
    1EOH      H    9   4.086   3.976   3.967
   7.90000   7.90000   7.90000
