Ethanol
10277
    1EOH      O    1   3.989   3.906   4.049
    1EOH      C    2   3.983   3.964   3.920
    1EOH      C    3   3.887   4.084   3.919
    1EOH      H    4   3.919   3.839   4.053
    1EOH      H    5   3.950   3.888   3.848
    1EOH      H    6   4.083   3.995   3.890
    1EOH      H    7   3.786   4.054   3.946
    1EOH      H    8   3.883   4.130   3.820
    1EOH      H    9   3.920   4.160   3.990
    2EOH      O   10   0.317   0.676   3.221
    2EOH      C   11   0.448   0.622   3.241
    2EOH      C   12   0.492   0.548   3.113
    2EOH      H   13   0.318   0.730   3.143
    3EOH      O   14   7.094   3.696   2.278
    3EOH      C   15   7.234   3.724   2.291
    3EOH      C   16   7.282   3.804   2.169
    3EOH      H   17   7.058   3.758   2.217
    4EOH      O   18   6.618   1.219   4.214
    4EOH      C   19   6.548   1.181   4.333
    4EOH      C   20   6.489   1.306   4.400
    4EOH      H   21   6.555   1.228   4.144
    5EOH      O   22   6.966   2.165   0.856
    5EOH      C   23   6.833   2.215   0.874
    5EOH      C   24   6.792   2.201   1.022
    5EOH      H   25   7.025   2.238   0.854
    6EOH      O   26   5.974   7.619   0.855
    6EOH      C   27   5.933   7.756   0.841
    6EOH      C   28   5.971   7.833   0.969
    6EOH      H   29   6.063   7.611   0.822
    7EOH      O   30   3.601   1.763   0.536
    7EOH      C   31   3.726   1.827   0.510
    7EOH      C   32   3.774   1.789   0.369
    7EOH      H   33   3.533   1.810   0.490
    8EOH      O   34   6.246   0.432   1.293
    8EOH      C   35   6.272   0.523   1.400
    8EOH      C   36   6.272   0.667   1.346
    8EOH      H   37   6.171   0.380   1.319
    9EOH      O   38   0.227   1.274   5.779
    9EOH      C   39   0.114   1.187   5.769
    9EOH      C   40  -0.003   1.265   5.706
    9EOH      H   41   0.305   1.220   5.784
   10EOH      O   42   1.027   0.188   1.393
   10EOH      C   43   1.100   0.310   1.412
   10EOH      C   44   1.162   0.311   1.553
   10EOH      H   45   1.088   0.116   1.394
   11EOH      O   46   6.753   6.929   5.175
   11EOH      C   47   6.705   6.995   5.292
   11EOH      C   48   6.552   7.014   5.284
   11EOH      H   49   6.844   6.912   5.189
   12EOH      O   50   3.154   2.337   0.358
   12EOH      C   51   3.227   2.414   0.262
   12EOH      C   52   3.318   2.514   0.336
   12EOH      H   53   3.216   2.280   0.402
   13EOH      O   54   4.156   1.744   2.899
   13EOH      C   55   4.167   1.871   2.963
   13EOH      C   56   4.069   1.970   2.898
   13EOH      H   57   4.092   1.692   2.945
   14EOH      O   58   4.655   7.307   1.078
   14EOH      C   59   4.729   7.194   1.032
   14EOH      C   60   4.699   7.170   0.883
   14EOH      H   61   4.601   7.279   1.151
   15EOH      O   62   5.307   4.445   2.582
   15EOH      C   63   5.270   4.492   2.453
   15EOH      C   64   5.289   4.644   2.446
   15EOH      H   65   5.367   4.508   2.621
   16EOH      O   66   2.838   3.717   4.679
   16EOH      C   67   2.844   3.622   4.572
   16EOH      C   68   2.990   3.579   4.550
   16EOH      H   69   2.833   3.670   4.760
   17EOH      O   70   4.195   4.410   4.526
   17EOH      C   71   4.239   4.508   4.432
   17EOH      C   72   4.365   4.580   4.486
   17EOH      H   73   4.108   4.433   4.553
   18EOH      O   74   2.637   5.937   1.369
   18EOH      C   75   2.711   5.842   1.292
   18EOH      C   76   2.693   5.872   1.142
   18EOH      H   77   2.681   6.021   1.364
   19EOH      O   78   0.808   7.689   0.949
   19EOH      C   79   0.810   7.815   0.881
   19EOH      C   80   0.682   7.893   0.914
   19EOH      H   81   0.890   7.645   0.936
   20EOH      O   82   7.147   1.450   5.160
   20EOH      C   83   7.267   1.447   5.238
   20EOH      C   84   7.364   1.341   5.182
   20EOH      H   85   7.100   1.529   5.180
   21EOH      O   86   7.719   2.499   7.232
   21EOH      C   87   7.611   2.566   7.298
   21EOH      C   88   7.494   2.587   7.200
   21EOH      H   89   7.683   2.421   7.193
   22EOH      O   90   0.931   0.539   5.312
   22EOH      C   91   0.876   0.651   5.242
   22EOH      C   92   0.760   0.604   5.153
   22EOH      H   93   0.959   0.476   5.247
   23EOH      O   94   0.854   4.224   2.703
   23EOH      C   95   0.905   4.126   2.613
   23EOH      C   96   0.984   4.019   2.690
   23EOH      H   97   0.796   4.181   2.764
   24EOH      O   98   6.251   0.687   4.182
   24EOH      C   99   6.304   0.572   4.249
   24EOH      C  100   6.412   0.505   4.161
   24EOH      H  101   6.208   0.740   4.247
   25EOH      O  102   5.883   0.338   5.040
   25EOH      C  103   6.013   0.337   5.099
   25EOH      C  104   6.016   0.432   5.220
   25EOH      H  105   5.827   0.283   5.093
   26EOH      O  106   0.843   3.255   6.798
   26EOH      C  107   0.954   3.209   6.875
   26EOH      C  108   1.084   3.234   6.796
   26EOH      H  109   0.826   3.345   6.820
   27EOH      O  110   3.065   4.016   3.279
   27EOH      C  111   2.992   4.044   3.399
   27EOH      C  112   3.067   3.984   3.519
   27EOH      H  113   3.152   4.053   3.288
   28EOH      O  114   0.909   0.948   1.810
   28EOH      C  115   1.027   1.019   1.772
   28EOH      C  116   1.063   0.985   1.627
   28EOH      H  117   0.933   0.857   1.822
   29EOH      O  118   3.421   1.873   6.461
   29EOH      C  119   3.481   1.815   6.345
   29EOH      C  120   3.520   1.669   6.377
   29EOH      H  121   3.440   1.817   6.535
   30EOH      O  122   0.030   7.387   0.419
   30EOH      C  123   0.086   7.256   0.409
   30EOH      C  124   0.031   7.166   0.521
   30EOH      H  125  -0.063   7.381   0.404
   31EOH      O  126   5.191   4.301   6.936
   31EOH      C  127   5.246   4.424   6.890
   31EOH      C  128   5.135   4.530   6.882
   31EOH      H  129   5.157   4.314   7.023
   32EOH      O  130   7.854   1.383   7.384
   32EOH      C  131   7.819   1.512   7.333
   32EOH      C  132   7.702   1.567   7.417
   32EOH      H  133   7.912   1.342   7.321
   33EOH      O  134   5.917   7.760   2.233
   33EOH      C  135   5.817   7.779   2.333
   33EOH      C  136   5.681   7.730   2.282
   33EOH      H  137   6.000   7.752   2.277
   34EOH      O  138   7.348   2.266   2.185
   34EOH      C  139   7.484   2.288   2.225
   34EOH      C  140   7.486   2.358   2.362
   34EOH      H  141   7.309   2.203   2.244
   35EOH      O  142   3.987   0.076   7.345
   35EOH      C  143   3.888  -0.024   7.317
   35EOH      C  144   3.755   0.014   7.385
   35EOH      H  145   4.066   0.050   7.301
   36EOH      O  146   5.243   1.635   1.203
   36EOH      C  147   5.309   1.689   1.318
   36EOH      C  148   5.458   1.652   1.315
   36EOH      H  149   5.251   1.696   1.131
   37EOH      O  150   2.369   3.938   0.206
   37EOH      C  151   2.409   3.923   0.070
   37EOH      C  152   2.328   3.811   0.003
   37EOH      H  153   2.305   4.008   0.211
   38EOH      O  154   1.813   6.834   0.666
   38EOH      C  155   1.903   6.868   0.773
   38EOH      C  156   2.038   6.800   0.748
   38EOH      H  157   1.845   6.876   0.587
   39EOH      O  158   1.805   1.501   5.799
   39EOH      C  159   1.822   1.396   5.704
   39EOH      C  160   1.891   1.453   5.579
   39EOH      H  161   1.890   1.537   5.819
   40EOH      O  162   0.823   4.772   7.357
   40EOH      C  163   0.689   4.723   7.355
   40EOH      C  164   0.672   4.616   7.465
   40EOH      H  165   0.842   4.803   7.444
   41EOH      O  166   1.303   2.962   1.370
   41EOH      C  167   1.326   2.970   1.229
   41EOH      C  168   1.465   2.913   1.197
   41EOH      H  169   1.316   2.872   1.396
   42EOH      O  170   2.401   5.457   0.447
   42EOH      C  171   2.344   5.502   0.324
   42EOH      C  172   2.280   5.640   0.344
   42EOH      H  173   2.479   5.509   0.463
   43EOH      O  174   4.218   0.298   7.336
   43EOH      C  175   4.205   0.412   7.251
   43EOH      C  176   4.326   0.423   7.156
   43EOH      H  177   4.132   0.275   7.367
   44EOH      O  178   5.929   6.674   4.800
   44EOH      C  179   5.944   6.583   4.910
   44EOH      C  180   6.005   6.451   4.860
   44EOH      H  181   6.015   6.693   4.766
   45EOH      O  182   6.495   0.538   4.609
   45EOH      C  183   6.461   0.657   4.681
   45EOH      C  184   6.346   0.729   4.608
   45EOH      H  185   6.481   0.465   4.666
   46EOH      O  186   7.647   3.223   7.616
   46EOH      C  187   7.693   3.356   7.642
   46EOH      C  188   7.571   3.447   7.665
   46EOH      H  189   7.696   3.163   7.670
   47EOH      O  190   2.373   2.036   0.812
   47EOH      C  191   2.477   1.944   0.848
   47EOH      C  192   2.490   1.834   0.741
   47EOH      H  193   2.411   2.097   0.750
   48EOH      O  194   5.895   7.128   3.824
   48EOH      C  195   5.985   7.042   3.753
   48EOH      C  196   6.052   6.946   3.853
   48EOH      H  197   5.822   7.076   3.856
   49EOH      O  198   4.099   0.317   4.033
   49EOH      C  199   4.216   0.324   3.952
   49EOH      C  200   4.329   0.390   4.033
   49EOH      H  201   4.041   0.252   3.996
   50EOH      O  202   5.937   6.558   7.625
   50EOH      C  203   5.835   6.654   7.596
   50EOH      C  204   5.701   6.581   7.574
   50EOH      H  205   6.020   6.599   7.610
   51EOH      O  206   2.314   3.203   4.631
   51EOH      C  207   2.305   3.066   4.672
   51EOH      C  208   2.365   3.051   4.814
   51EOH      H  209   2.248   3.217   4.565
   52EOH      O  210   0.257   4.247   6.691
   52EOH      C  211   0.142   4.178   6.640
   52EOH      C  212   0.024   4.200   6.736
   52EOH      H  213   0.241   4.340   6.684
   53EOH      O  214   1.175   1.955   0.157
   53EOH      C  215   1.271   1.867   0.216
   53EOH      C  216   1.396   1.857   0.127
   53EOH      H  217   1.110   1.972   0.223
   54EOH      O  218   6.552   3.176   6.545
   54EOH      C  219   6.482   3.101   6.645
   54EOH      C  220   6.582   3.021   6.730
   54EOH      H  221   6.492   3.236   6.505
   55EOH      O  222   5.964   3.041   1.003
   55EOH      C  223   5.904   3.171   0.993
   55EOH      C  224   5.799   3.184   1.104
   55EOH      H  225   6.008   3.037   1.087
   56EOH      O  226   1.385   2.777   0.150
   56EOH      C  227   1.494   2.708   0.089
   56EOH      C  228   1.552   2.605   0.187
   56EOH      H  229   1.318   2.714   0.171
   57EOH      O  230   7.748   7.712   6.890
   57EOH      C  231   7.693   7.597   6.955
   57EOH      C  232   7.639   7.638   7.094
   57EOH      H  233   7.678   7.774   6.875
   58EOH      O  234   2.358   7.299   2.626
   58EOH      C  235   2.474   7.374   2.589
   58EOH      C  236   2.574   7.379   2.705
   58EOH      H  237   2.303   7.291   2.549
   59EOH      O  238   3.329   6.560   1.293
   59EOH      C  239   3.465   6.523   1.320
   59EOH      C  240   3.475   6.464   1.462
   59EOH      H  241   3.332   6.627   1.226
   60EOH      O  242   7.884   7.751   7.629
   60EOH      C  243   7.784   7.839   7.681
   60EOH      C  244   7.794   7.843   7.835
   60EOH      H  245   7.969   7.790   7.645
   61EOH      O  246   5.442   6.048   2.295
   61EOH      C  247   5.345   6.008   2.197
   61EOH      C  248   5.205   6.013   2.259
   61EOH      H  249   5.526   6.058   2.253
   62EOH      O  250   3.537   3.564   0.571
   62EOH      C  251   3.657   3.624   0.622
   62EOH      C  252   3.686   3.754   0.545
   62EOH      H  253   3.463   3.608   0.610
   63EOH      O  254   3.494   1.697   3.691
   63EOH      C  255   3.455   1.741   3.821
   63EOH      C  256   3.550   1.851   3.870
   63EOH      H  257   3.476   1.768   3.631
   64EOH      O  258   6.875   7.062   1.778
   64EOH      C  259   7.017   7.051   1.772
   64EOH      C  260   7.063   7.078   1.628
   64EOH      H  261   6.853   7.151   1.756
   65EOH      O  262   6.861   1.210   5.551
   65EOH      C  263   6.903   1.115   5.453
   65EOH      C  264   6.947   1.189   5.325
   65EOH      H  265   6.841   1.291   5.505
   66EOH      O  266   0.655   5.734   0.843
   66EOH      C  267   0.791   5.777   0.851
   66EOH      C  268   0.860   5.710   0.972
   66EOH      H  269   0.614   5.779   0.771
   67EOH      O  270   2.364   0.940   1.079
   67EOH      C  271   2.502   0.902   1.094
   67EOH      C  272   2.593   1.015   1.042
   67EOH      H  273   2.340   0.991   1.155
   68EOH      O  274   6.744   0.555   0.769
   68EOH      C  275   6.874   0.612   0.784
   68EOH      C  276   6.964   0.567   0.668
   68EOH      H  277   6.695   0.607   0.707
   69EOH      O  278   1.400   0.855   1.549
   69EOH      C  279   1.446   0.977   1.490
   69EOH      C  280   1.486   0.949   1.344
   69EOH      H  281   1.310   0.866   1.575
   70EOH      O  282   6.415   2.216   2.833
   70EOH      C  283   6.438   2.114   2.735
   70EOH      C  284   6.493   2.178   2.607
   70EOH      H  285   6.492   2.271   2.837
   71EOH      O  286   1.957   2.901   1.115
   71EOH      C  287   2.090   2.885   1.065
   71EOH      C  288   2.087   2.815   0.928
   71EOH      H  289   1.909   2.957   1.056
   72EOH      O  290   7.715   0.155   4.288
   72EOH      C  291   7.675   0.025   4.334
   72EOH      C  292   7.773  -0.081   4.283
   72EOH      H  293   7.795   0.179   4.333
   73EOH      O  294   1.736   3.751   4.180
   73EOH      C  295   1.844   3.687   4.249
   73EOH      C  296   1.897   3.777   4.361
   73EOH      H  297   1.656   3.742   4.230
   74EOH      O  298   4.931   5.710   6.283
   74EOH      C  299   4.991   5.789   6.180
   74EOH      C  300   5.054   5.916   6.242
   74EOH      H  301   4.999   5.682   6.342
   75EOH      O  302   7.416   4.885   6.553
   75EOH      C  303   7.300   4.956   6.597
   75EOH      C  304   7.228   4.873   6.706
   75EOH      H  305   7.485   4.901   6.616
   76EOH      O  306   6.802   5.850   5.459
   76EOH      C  307   6.721   5.831   5.576
   76EOH      C  308   6.772   5.924   5.688
   76EOH      H  309   6.791   5.940   5.433
   77EOH      O  310   7.766   6.048   6.952
   77EOH      C  311   7.649   5.969   6.936
   77EOH      C  312   7.555   5.990   7.057
   77EOH      H  313   7.744   6.138   6.933
   78EOH      O  314   0.692   2.022   1.469
   78EOH      C  315   0.654   2.129   1.383
   78EOH      C  316   0.777   2.173   1.301
   78EOH      H  317   0.702   1.945   1.414
   79EOH      O  318   1.362   0.116   4.443
   79EOH      C  319   1.479   0.121   4.525
   79EOH      C  320   1.580   0.221   4.465
   79EOH      H  321   1.300   0.058   4.484
   80EOH      O  322   6.133   6.575   1.045
   80EOH      C  323   6.231   6.678   1.028
   80EOH      C  324   6.329   6.673   1.147
   80EOH      H  325   6.178   6.492   1.041
   81EOH      O  326   6.594   6.938   3.072
   81EOH      C  327   6.542   6.875   2.955
   81EOH      C  328   6.490   6.734   2.991
   81EOH      H  329   6.528   6.938   3.139
   82EOH      O  330   0.951   6.403   0.630
   82EOH      C  331   0.889   6.382   0.503
   82EOH      C  332   0.947   6.480   0.399
   82EOH      H  333   1.044   6.394   0.620
   83EOH      O  334   6.240   7.871   6.523
   83EOH      C  335   6.382   7.864   6.526
   83EOH      C  336   6.432   7.773   6.412
   83EOH      H  337   6.214   7.931   6.455
   84EOH      O  338   3.845   3.310   0.462
   84EOH      C  339   3.823   3.248   0.589
   84EOH      C  340   3.767   3.106   0.567
   84EOH      H  341   3.892   3.249   0.407
   85EOH      O  342   2.990   1.384   7.693
   85EOH      C  343   2.873   1.376   7.775
   85EOH      C  344   2.820   1.232   7.777
   85EOH      H  345   3.064   1.402   7.749
   86EOH      O  346   0.502   6.205   7.485
   86EOH      C  347   0.527   6.083   7.414
   86EOH      C  348   0.393   6.012   7.385
   86EOH      H  349   0.457   6.263   7.426
   87EOH      O  350   3.136   3.428   1.720
   87EOH      C  351   3.109   3.362   1.844
   87EOH      C  352   3.090   3.212   1.816
   87EOH      H  353   3.221   3.397   1.690
   88EOH      O  354   6.804   2.999   1.854
   88EOH      C  355   6.831   2.860   1.837
   88EOH      C  356   6.760   2.780   1.948
   88EOH      H  357   6.725   3.021   1.806
   89EOH      O  358   0.078   3.073   3.621
   89EOH      C  359   0.130   3.188   3.688
   89EOH      C  360   0.277   3.208   3.649
   89EOH      H  361   0.095   3.084   3.528
   90EOH      O  362   0.439   4.528   7.193
   90EOH      C  363   0.299   4.500   7.205
   90EOH      C  364   0.251   4.423   7.080
   90EOH      H  365   0.487   4.449   7.212
   91EOH      O  366   2.332   4.443   5.413
   91EOH      C  367   2.345   4.319   5.483
   91EOH      C  368   2.217   4.235   5.467
   91EOH      H  369   2.316   4.425   5.321
   92EOH      O  370   0.895   1.906   1.616
   92EOH      C  371   0.832   1.778   1.630
   92EOH      C  372   0.928   1.680   1.698
   92EOH      H  373   0.829   1.967   1.588
   93EOH      O  374   2.842   7.207   2.295
   93EOH      C  375   2.739   7.153   2.379
   93EOH      C  376   2.607   7.150   2.300
   93EOH      H  377   2.924   7.187   2.337
   94EOH      O  378   5.945   0.924   1.379
   94EOH      C  379   6.026   0.946   1.264
   94EOH      C  380   5.936   0.959   1.140
   94EOH      H  381   5.898   1.004   1.398
   95EOH      O  382   5.429   1.822   3.190
   95EOH      C  383   5.400   1.961   3.208
   95EOH      C  384   5.416   1.998   3.356
   95EOH      H  385   5.522   1.810   3.193
   96EOH      O  386   1.828   6.506   0.350
   96EOH      C  387   1.686   6.498   0.365
   96EOH      C  388   1.633   6.375   0.289
   96EOH      H  389   1.866   6.448   0.414
   97EOH      O  390   4.022   2.187   3.225
   97EOH      C  391   4.014   2.053   3.276
   97EOH      C  392   3.867   2.008   3.286
   97EOH      H  393   4.009   2.184   3.131
   98EOH      O  394   0.685   2.744   6.259
   98EOH      C  395   0.783   2.832   6.313
   98EOH      C  396   0.727   2.900   6.440
   98EOH      H  397   0.676   2.669   6.316
   99EOH      O  398   3.753   0.959   0.572
   99EOH      C  399   3.667   0.908   0.673
   99EOH      C  400   3.524   0.894   0.617
   99EOH      H  401   3.784   0.886   0.520
  100EOH      O  402   3.234   5.235   1.297
  100EOH      C  403   3.276   5.169   1.416
  100EOH      C  404   3.399   5.242   1.475
  100EOH      H  405   3.202   5.320   1.323
  101EOH      O  406   7.545   3.010   2.082
  101EOH      C  407   7.600   2.901   2.157
  101EOH      C  408   7.587   2.930   2.308
  101EOH      H  409   7.457   3.024   2.113
  102EOH      O  410   3.853   4.231   6.941
  102EOH      C  411   3.859   4.153   7.061
  102EOH      C  412   3.730   4.069   7.073
  102EOH      H  413   3.857   4.172   6.868
  103EOH      O  414   7.338   3.941   4.237
  103EOH      C  415   7.417   3.929   4.356
  103EOH      C  416   7.361   4.020   4.466
  103EOH      H  417   7.263   3.884   4.244
  104EOH      O  418   1.093   2.679   2.240
  104EOH      C  419   1.027   2.655   2.115
  104EOH      C  420   0.935   2.774   2.084
  104EOH      H  421   1.174   2.630   2.239
  105EOH      O  422   0.995   2.128   0.440
  105EOH      C  423   0.888   2.136   0.345
  105EOH      C  424   0.795   2.253   0.382
  105EOH      H  425   0.957   2.139   0.525
  106EOH      O  426   7.758   0.643   1.507
  106EOH      C  427   7.664   0.746   1.538
  106EOH      C  428   7.562   0.760   1.423
  106EOH      H  429   7.804   0.668   1.428
  107EOH      O  430   2.809   7.707   5.725
  107EOH      C  431   2.684   7.683   5.659
  107EOH      C  432   2.654   7.798   5.561
  107EOH      H  433   2.876   7.710   5.659
  108EOH      O  434   4.338   7.710   6.672
  108EOH      C  435   4.342   7.677   6.812
  108EOH      C  436   4.199   7.668   6.869
  108EOH      H  437   4.315   7.632   6.624
  109EOH      O  438   1.630   3.013   2.816
  109EOH      C  439   1.681   2.880   2.828
  109EOH      C  440   1.687   2.843   2.977
  109EOH      H  441   1.551   3.016   2.868
  110EOH      O  442   1.925   1.416   1.424
  110EOH      C  443   1.894   1.554   1.449
  110EOH      C  444   2.021   1.627   1.497
  110EOH      H  445   1.992   1.412   1.358
  111EOH      O  446   2.685   4.480   5.471
  111EOH      C  447   2.770   4.479   5.356
  111EOH      C  448   2.819   4.336   5.332
  111EOH      H  449   2.597   4.457   5.442
  112EOH      O  450   1.048   3.383   3.943
  112EOH      C  451   1.028   3.497   3.859
  112EOH      C  452   0.877   3.515   3.831
  112EOH      H  453   1.134   3.389   3.981
  113EOH      O  454   3.023   3.109   1.099
  113EOH      C  455   3.108   3.000   1.135
  113EOH      C  456   3.121   2.906   1.015
  113EOH      H  457   2.990   3.149   1.178
  114EOH      O  458   7.179   4.331   3.004
  114EOH      C  459   7.208   4.213   2.929
  114EOH      C  460   7.079   4.160   2.863
  114EOH      H  461   7.190   4.311   3.096
  115EOH      O  462   7.675   5.426   7.066
  115EOH      C  463   7.580   5.491   7.151
  115EOH      C  464   7.448   5.511   7.074
  115EOH      H  465   7.661   5.333   7.070
  116EOH      O  466   0.408   3.360   5.007
  116EOH      C  467   0.416   3.384   4.867
  116EOH      C  468   0.419   3.536   4.842
  116EOH      H  469   0.491   3.326   5.037
  117EOH      O  470   7.367   6.997   3.148
  117EOH      C  471   7.389   7.135   3.178
  117EOH      C  472   7.484   7.146   3.299
  117EOH      H  473   7.309   6.992   3.073
  118EOH      O  474   3.081   6.442   3.653
  118EOH      C  475   2.941   6.460   3.629
  118EOH      C  476   2.873   6.506   3.758
  118EOH      H  477   3.118   6.524   3.682
  119EOH      O  478   2.631   5.470   5.906
  119EOH      C  479   2.733   5.456   5.807
  119EOH      C  480   2.686   5.522   5.676
  119EOH      H  481   2.633   5.558   5.938
  120EOH      O  482   1.178   5.973   5.808
  120EOH      C  483   1.102   5.865   5.863
  120EOH      C  484   0.956   5.911   5.887
  120EOH      H  485   1.148   5.988   5.719
  121EOH      O  486   0.506   5.960   5.739
  121EOH      C  487   0.423   6.069   5.700
  121EOH      C  488   0.309   6.017   5.610
  121EOH      H  489   0.479   5.930   5.825
  122EOH      O  490   4.538   5.854   2.870
  122EOH      C  491   4.546   5.711   2.870
  122EOH      C  492   4.562   5.664   2.725
  122EOH      H  493   4.625   5.887   2.853
  123EOH      O  494   4.530   1.379   7.441
  123EOH      C  495   4.484   1.255   7.495
  123EOH      C  496   4.574   1.140   7.448
  123EOH      H  497   4.464   1.444   7.458
  124EOH      O  498   1.530   4.816   5.734
  124EOH      C  499   1.494   4.810   5.872
  124EOH      C  500   1.398   4.926   5.905
  124EOH      H  501   1.578   4.737   5.712
  125EOH      O  502   2.341   6.409   0.488
  125EOH      C  503   2.333   6.425   0.347
  125EOH      C  504   2.322   6.575   0.312
  125EOH      H  505   2.417   6.457   0.518
  126EOH      O  506   3.576   2.972   0.303
  126EOH      C  507   3.492   2.883   0.378
  126EOH      C  508   3.579   2.778   0.449
  126EOH      H  509   3.534   3.056   0.299
  127EOH      O  510   7.458   3.679   6.892
  127EOH      C  511   7.405   3.789   6.818
  127EOH      C  512   7.447   3.921   6.885
  127EOH      H  513   7.497   3.618   6.830
  128EOH      O  514   1.507   0.156   6.190
  128EOH      C  515   1.620   0.244   6.189
  128EOH      C  516   1.734   0.183   6.273
  128EOH      H  517   1.533   0.073   6.153
  129EOH      O  518   1.824   2.452   0.928
  129EOH      C  519   1.827   2.487   1.067
  129EOH      C  520   1.772   2.369   1.149
  129EOH      H  521   1.883   2.380   0.913
  130EOH      O  522   2.273   7.409   3.310
  130EOH      C  523   2.189   7.460   3.206
  130EOH      C  524   2.271   7.482   3.078
  130EOH      H  525   2.274   7.315   3.303
  131EOH      O  526   5.873   1.187   3.735
  131EOH      C  527   5.981   1.096   3.711
  131EOH      C  528   6.021   1.031   3.844
  131EOH      H  529   5.796   1.136   3.754
  132EOH      O  530   6.129   0.076   7.145
  132EOH      C  531   6.210   0.139   7.045
  132EOH      C  532   6.354   0.156   7.098
  132EOH      H  533   6.153  -0.015   7.148
  133EOH      O  534   6.103   4.737   4.410
  133EOH      C  535   6.034   4.728   4.535
  133EOH      C  536   5.910   4.818   4.532
  133EOH      H  537   6.052   4.691   4.345
  134EOH      O  538   5.512   4.489   3.523
  134EOH      C  539   5.438   4.600   3.574
  134EOH      C  540   5.303   4.609   3.499
  134EOH      H  541   5.544   4.438   3.596
  135EOH      O  542   2.870   1.840   4.135
  135EOH      C  543   2.958   1.815   4.244
  135EOH      C  544   2.986   1.946   4.320
  135EOH      H  545   2.850   1.757   4.093
  136EOH      O  546   1.384   5.544   7.760
  136EOH      C  547   1.289   5.473   7.680
  136EOH      C  548   1.150   5.483   7.747
  136EOH      H  549   1.377   5.637   7.741
  137EOH      O  550   4.374   5.880   0.581
  137EOH      C  551   4.390   5.785   0.475
  137EOH      C  552   4.504   5.830   0.382
  137EOH      H  553   4.445   5.868   0.642
  138EOH      O  554   3.987   7.012   6.023
  138EOH      C  555   3.947   7.034   6.159
  138EOH      C  556   4.002   6.920   6.247
  138EOH      H  557   4.076   7.040   6.014
  139EOH      O  558   2.150   3.757   2.422
  139EOH      C  559   2.248   3.701   2.334
  139EOH      C  560   2.325   3.814   2.264
  139EOH      H  561   2.193   3.779   2.503
  140EOH      O  562   7.496   0.095   1.934
  140EOH      C  563   7.522   0.217   2.004
  140EOH      C  564   7.421   0.230   2.120
  140EOH      H  565   7.537   0.098   1.849
  141EOH      O  566   3.772   2.118   0.220
  141EOH      C  567   3.674   2.097   0.118
  141EOH      C  568   3.536   2.143   0.169
  141EOH      H  569   3.794   2.210   0.222
  142EOH      O  570   7.773   3.766   1.065
  142EOH      C  571   7.874   3.707   1.148
  142EOH      C  572   7.973   3.632   1.057
  142EOH      H  573   7.769   3.858   1.085
  143EOH      O  574   2.414   2.964   7.810
  143EOH      C  575   2.466   3.018   7.932
  143EOH      C  576   2.504   3.165   7.912
  143EOH      H  577   2.390   2.874   7.825
  144EOH      O  578   6.692   1.193   5.964
  144EOH      C  579   6.557   1.185   5.919
  144EOH      C  580   6.538   1.268   5.790
  144EOH      H  581   6.750   1.158   5.898
  145EOH      O  582   4.118   7.402   1.157
  145EOH      C  583   4.121   7.437   1.019
  145EOH      C  584   4.000   7.374   0.948
  145EOH      H  585   4.045   7.446   1.198
  146EOH      O  586   3.028   1.443   2.229
  146EOH      C  587   3.154   1.511   2.234
  146EOH      C  588   3.263   1.430   2.161
  146EOH      H  589   3.002   1.436   2.138
  147EOH      O  590   7.262   0.623   7.065
  147EOH      C  591   7.223   0.517   7.153
  147EOH      C  592   7.082   0.469   7.116
  147EOH      H  593   7.355   0.636   7.073
  148EOH      O  594   4.011   5.740   2.515
  148EOH      C  595   4.001   5.869   2.455
  148EOH      C  596   3.884   5.947   2.518
  148EOH      H  597   4.050   5.682   2.451
  149EOH      O  598   4.709   0.943   5.048
  149EOH      C  599   4.802   0.901   4.948
  149EOH      C  600   4.783   0.990   4.823
  149EOH      H  601   4.730   1.031   5.073
  150EOH      O  602   6.307   0.973   5.655
  150EOH      C  603   6.423   0.905   5.704
  150EOH      C  604   6.399   0.867   5.851
  150EOH      H  605   6.331   1.064   5.645
  151EOH      O  606   3.067   4.500   3.541
  151EOH      C  607   3.087   4.364   3.580
  151EOH      C  608   3.022   4.340   3.718
  151EOH      H  609   2.974   4.517   3.539
  152EOH      O  610   3.856   2.441   5.835
  152EOH      C  611   3.944   2.418   5.946
  152EOH      C  612   3.926   2.274   5.996
  152EOH      H  613   3.898   2.410   5.756
  153EOH      O  614   4.743   3.385   1.027
  153EOH      C  615   4.865   3.457   1.046
  153EOH      C  616   4.906   3.523   0.913
  153EOH      H  617   4.676   3.446   1.001
  154EOH      O  618   7.451   3.807   0.402
  154EOH      C  619   7.324   3.818   0.337
  154EOH      C  620   7.265   3.959   0.361
  154EOH      H  621   7.497   3.734   0.362
  155EOH      O  622   0.843   4.868   1.437
  155EOH      C  623   0.982   4.876   1.469
  155EOH      C  624   1.030   4.738   1.519
  155EOH      H  625   0.837   4.826   1.352
  156EOH      O  626   0.583   2.737   3.878
  156EOH      C  627   0.512   2.840   3.948
  156EOH      C  628   0.514   2.810   4.099
  156EOH      H  629   0.675   2.747   3.899
  157EOH      O  630   3.424   1.297   7.754
  157EOH      C  631   3.447   1.410   7.839
  157EOH      C  632   3.316   1.447   7.911
  157EOH      H  633   3.504   1.276   7.709
  158EOH      O  634   3.472   5.434   5.664
  158EOH      C  635   3.500   5.303   5.716
  158EOH      C  636   3.438   5.289   5.856
  158EOH      H  637   3.514   5.440   5.579
  159EOH      O  638   4.760   5.665   4.178
  159EOH      C  639   4.875   5.586   4.148
  159EOH      C  640   4.863   5.450   4.218
  159EOH      H  641   4.753   5.733   4.112
  160EOH      O  642   0.616   3.534   0.966
  160EOH      C  643   0.723   3.584   0.886
  160EOH      C  644   0.759   3.481   0.778
  160EOH      H  645   0.539   3.526   0.911
  161EOH      O  646   6.572   7.635   4.480
  161EOH      C  647   6.484   7.670   4.372
  161EOH      C  648   6.523   7.809   4.319
  161EOH      H  649   6.660   7.636   4.445
  162EOH      O  650   4.882   1.886   7.408
  162EOH      C  651   4.924   2.021   7.384
  162EOH      C  652   4.888   2.063   7.241
  162EOH      H  653   4.795   1.874   7.371
  163EOH      O  654   2.616   1.664   0.321
  163EOH      C  655   2.676   1.790   0.290
  163EOH      C  656   2.804   1.808   0.375
  163EOH      H  657   2.661   1.597   0.272
  164EOH      O  658   6.464   7.430   2.837
  164EOH      C  659   6.395   7.333   2.916
  164EOH      C  660   6.243   7.346   2.894
  164EOH      H  661   6.478   7.394   2.751
  165EOH      O  662   4.151   4.140   7.796
  165EOH      C  663   4.190   4.276   7.815
  165EOH      C  664   4.235   4.299   7.961
  165EOH      H  665   4.222   4.085   7.827
  166EOH      O  666   4.097   7.886   1.885
  166EOH      C  667   4.156   7.777   1.957
  166EOH      C  668   4.210   7.673   1.857
  166EOH      H  669   4.010   7.901   1.919
  167EOH      O  670   0.148   3.399   7.754
  167EOH      C  671   0.285   3.360   7.772
  167EOH      C  672   0.293   3.207   7.787
  167EOH      H  673   0.113   3.344   7.686
  168EOH      O  674   7.539   1.603   3.380
  168EOH      C  675   7.619   1.706   3.437
  168EOH      C  676   7.674   1.796   3.325
  168EOH      H  677   7.451   1.633   3.370
  169EOH      O  678   6.944   4.261   4.042
  169EOH      C  679   7.086   4.247   4.030
  169EOH      C  680   7.148   4.225   4.169
  169EOH      H  681   6.911   4.184   4.086
  170EOH      O  682   3.898   4.026   2.163
  170EOH      C  683   4.040   4.043   2.156
  170EOH      C  684   4.079   4.082   2.012
  170EOH      H  685   3.858   4.111   2.167
  171EOH      O  686   7.886   2.803   3.407
  171EOH      C  687   8.013   2.751   3.447
  171EOH      C  688   8.125   2.849   3.406
  171EOH      H  689   7.847   2.841   3.484
  172EOH      O  690   3.494   6.972   4.044
  172EOH      C  691   3.611   6.926   4.113
  172EOH      C  692   3.585   6.926   4.265
  172EOH      H  693   3.426   6.908   4.057
  173EOH      O  694   1.358   2.634   3.199
  173EOH      C  695   1.424   2.529   3.269
  173EOH      C  696   1.320   2.443   3.344
  173EOH      H  697   1.313   2.597   3.125
  174EOH      O  698   5.314   3.904   4.795
  174EOH      C  699   5.338   4.041   4.828
  174EOH      C  700   5.237   4.129   4.752
  174EOH      H  701   5.230   3.879   4.830
  175EOH      O  702   0.295   6.331   1.768
  175EOH      C  703   0.407   6.290   1.847
  175EOH      C  704   0.475   6.168   1.782
  175EOH      H  705   0.327   6.364   1.686
  176EOH      O  706   4.727   1.881   4.388
  176EOH      C  707   4.684   1.747   4.363
  176EOH      C  708   4.609   1.694   4.487
  176EOH      H  709   4.651   1.935   4.400
  177EOH      O  710   3.744   2.359   1.631
  177EOH      C  711   3.829   2.467   1.592
  177EOH      C  712   3.976   2.430   1.619
  177EOH      H  713   3.767   2.284   1.579
  178EOH      O  714   2.105   7.057   6.613
  178EOH      C  715   2.057   7.189   6.637
  178EOH      C  716   1.927   7.210   6.559
  178EOH      H  717   2.038   6.997   6.645
  179EOH      O  718   5.346   6.859   0.009
  179EOH      C  719   5.220   6.798  -0.021
  179EOH      C  720   5.227   6.648   0.016
  179EOH      H  721   5.350   6.875   0.102
  180EOH      O  722   6.881   6.342   7.207
  180EOH      C  723   6.825   6.466   7.252
  180EOH      C  724   6.677   6.473   7.209
  180EOH      H  725   6.843   6.273   7.259
  181EOH      O  726   7.422   2.998   5.666
  181EOH      C  727   7.378   2.874   5.610
  181EOH      C  728   7.498   2.802   5.544
  181EOH      H  729   7.484   2.978   5.734
  182EOH      O  730   1.493   6.951   7.142
  182EOH      C  731   1.422   6.914   7.024
  182EOH      C  732   1.342   6.785   7.049
  182EOH      H  733   1.486   7.045   7.150
  183EOH      O  734   0.976   6.467   3.301
  183EOH      C  735   0.955   6.334   3.252
  183EOH      C  736   0.855   6.335   3.134
  183EOH      H  737   0.991   6.523   3.226
  184EOH      O  738   0.284   0.037   1.581
  184EOH      C  739   0.297   0.055   1.722
  184EOH      C  740   0.227   0.185   1.765
  184EOH      H  741   0.194   0.014   1.561
  185EOH      O  742   2.966   1.762   2.375
  185EOH      C  743   2.898   1.800   2.255
  185EOH      C  744   3.001   1.859   2.156
  185EOH      H  745   2.930   1.680   2.404
  186EOH      O  746   3.168   0.379   2.952
  186EOH      C  747   3.167   0.246   2.897
  186EOH      C  748   3.293   0.172   2.945
  186EOH      H  749   3.127   0.375   3.037
  187EOH      O  750   3.934   1.559   0.629
  187EOH      C  751   3.989   1.443   0.566
  187EOH      C  752   3.987   1.325   0.665
  187EOH      H  753   3.840   1.548   0.630
  188EOH      O  754   3.128   7.190   1.999
  188EOH      C  755   3.007   7.146   1.936
  188EOH      C  756   2.948   7.029   2.017
  188EOH      H  757   3.149   7.276   1.965
  189EOH      O  758   6.367   0.076   5.106
  189EOH      C  759   6.246   0.000   5.111
  189EOH      C  760   6.183  -0.003   4.970
  189EOH      H  761   6.433   0.023   5.064
  190EOH      O  762   5.057   0.481   6.972
  190EOH      C  763   5.126   0.560   7.069
  190EOH      C  764   5.213   0.664   6.996
  190EOH      H  765   4.965   0.484   6.993
  191EOH      O  766   6.978   6.853   6.230
  191EOH      C  767   7.064   6.968   6.226
  191EOH      C  768   7.089   7.008   6.079
  191EOH      H  769   6.897   6.876   6.188
  192EOH      O  770   5.862   3.445   1.309
  192EOH      C  771   6.003   3.450   1.285
  192EOH      C  772   6.073   3.327   1.347
  192EOH      H  773   5.822   3.498   1.242
  193EOH      O  774   5.887   1.147   5.596
  193EOH      C  775   6.016   1.100   5.557
  193EOH      C  776   6.008   1.029   5.421
  193EOH      H  777   5.875   1.233   5.559
  194EOH      O  778   7.770   7.750   1.479
  194EOH      C  779   7.830   7.860   1.548
  194EOH      C  780   7.854   7.975   1.448
  194EOH      H  781   7.704   7.784   1.421
  195EOH      O  782   4.678   4.085   6.932
  195EOH      C  783   4.756   4.201   6.963
  195EOH      C  784   4.681   4.328   6.918
  195EOH      H  785   4.597   4.087   6.981
  196EOH      O  786   1.857   6.034   1.921
  196EOH      C  787   1.882   6.174   1.926
  196EOH      C  788   2.033   6.198   1.943
  196EOH      H  789   1.875   6.002   1.834
  197EOH      O  790   3.715   6.842   7.406
  197EOH      C  791   3.791   6.964   7.412
  197EOH      C  792   3.919   6.940   7.495
  197EOH      H  793   3.769   6.775   7.367
  198EOH      O  794   6.971   4.445   1.707
  198EOH      C  795   6.900   4.527   1.800
  198EOH      C  796   6.990   4.643   1.846
  198EOH      H  797   7.012   4.501   1.643
  199EOH      O  798   2.524   6.677   3.597
  199EOH      C  799   2.495   6.582   3.700
  199EOH      C  800   2.458   6.655   3.830
  199EOH      H  801   2.537   6.630   3.517
  200EOH      O  802   4.341   6.189   4.196
  200EOH      C  803   4.218   6.164   4.127
  200EOH      C  804   4.247   6.151   3.976
  200EOH      H  805   4.405   6.125   4.169
  201EOH      O  806   3.439   3.112   1.937
  201EOH      C  807   3.353   3.038   2.024
  201EOH      C  808   3.350   3.107   2.162
  201EOH      H  809   3.453   3.060   1.858
  202EOH      O  810   5.433   0.495   3.076
  202EOH      C  811   5.471   0.563   3.197
  202EOH      C  812   5.578   0.668   3.163
  202EOH      H  813   5.380   0.553   3.024
  203EOH      O  814   4.752   6.190   7.583
  203EOH      C  815   4.710   6.060   7.624
  203EOH      C  816   4.704   6.056   7.778
  203EOH      H  817   4.675   6.245   7.573
  204EOH      O  818   6.258   3.016   6.868
  204EOH      C  819   6.164   2.936   6.797
  204EOH      C  820   6.216   2.792   6.784
  204EOH      H  821   6.226   3.105   6.871
  205EOH      O  822   7.310   7.528   5.332
  205EOH      C  823   7.221   7.626   5.279
  205EOH      C  824   7.272   7.767   5.311
  205EOH      H  825   7.396   7.542   5.294
  206EOH      O  826   0.726   1.864   6.774
  206EOH      C  827   0.738   1.979   6.859
  206EOH      C  828   0.663   2.096   6.792
  206EOH      H  829   0.634   1.843   6.766
  207EOH      O  830   0.535   3.645   2.188
  207EOH      C  831   0.491   3.700   2.063
  207EOH      C  832   0.356   3.772   2.085
  207EOH      H  833   0.552   3.716   2.247
  208EOH      O  834   7.113   3.937   5.334
  208EOH      C  835   7.009   3.852   5.383
  208EOH      C  836   7.067   3.715   5.421
  208EOH      H  837   7.172   3.953   5.406
  209EOH      O  838   2.136   6.661   5.734
  209EOH      C  839   2.067   6.539   5.706
  209EOH      C  840   1.916   6.569   5.696
  209EOH      H  841   2.101   6.728   5.678
  210EOH      O  842   6.038   1.225   2.486
  210EOH      C  843   6.155   1.164   2.541
  210EOH      C  844   6.241   1.272   2.609
  210EOH      H  845   5.995   1.272   2.555
  211EOH      O  846   3.028   7.524   3.772
  211EOH      C  847   3.113   7.607   3.692
  211EOH      C  848   3.256   7.602   3.748
  211EOH      H  849   3.038   7.434   3.743
  212EOH      O  850   1.868   7.000   5.551
  212EOH      C  851   1.767   7.064   5.630
  212EOH      C  852   1.739   7.205   5.573
  212EOH      H  853   1.853   6.907   5.556
  213EOH      O  854   0.929   0.756   2.536
  213EOH      C  855   0.838   0.649   2.564
  213EOH      C  856   0.756   0.682   2.690
  213EOH      H  857   0.878   0.830   2.507
  214EOH      O  858   0.184   1.003   3.371
  214EOH      C  859   0.299   0.992   3.286
  214EOH      C  860   0.427   1.026   3.364
  214EOH      H  861   0.200   0.950   3.447
  215EOH      O  862   4.964   1.330   0.532
  215EOH      C  863   4.829   1.371   0.554
  215EOH      C  864   4.757   1.387   0.419
  215EOH      H  865   4.963   1.241   0.501
  216EOH      O  866   3.514   0.275   6.428
  216EOH      C  867   3.544   0.210   6.552
  216EOH      C  868   3.556   0.316   6.663
  216EOH      H  869   3.428   0.313   6.435
  217EOH      O  870   7.405   4.906   3.596
  217EOH      C  871   7.267   4.943   3.581
  217EOH      C  872   7.181   4.815   3.582
  217EOH      H  873   7.412   4.853   3.674
  218EOH      O  874   5.327   1.122   5.167
  218EOH      C  875   5.201   1.141   5.101
  218EOH      C  876   5.098   1.196   5.201
  218EOH      H  877   5.362   1.208   5.185
  219EOH      O  878   5.574   7.300   0.631
  219EOH      C  879   5.498   7.246   0.522
  219EOH      C  880   5.593   7.201   0.410
  219EOH      H  881   5.631   7.233   0.664
  220EOH      O  882   5.109   0.558   7.488
  220EOH      C  883   5.112   0.701   7.493
  220EOH      C  884   4.978   0.756   7.441
  220EOH      H  885   5.043   0.527   7.548
  221EOH      O  886   2.718   1.313   3.938
  221EOH      C  887   2.586   1.263   3.961
  221EOH      C  888   2.503   1.278   3.832
  221EOH      H  889   2.763   1.253   3.879
  222EOH      O  890   4.650   6.260   4.229
  222EOH      C  891   4.653   6.403   4.222
  222EOH      C  892   4.597   6.449   4.086
  222EOH      H  893   4.677   6.235   4.316
  223EOH      O  894   6.310   0.227   0.660
  223EOH      C  895   6.273   0.221   0.798
  223EOH      C  896   6.225   0.360   0.843
  223EOH      H  897   6.265   0.300   0.622
  224EOH      O  898   5.727   1.361   4.330
  224EOH      C  899   5.605   1.422   4.374
  224EOH      C  900   5.504   1.424   4.257
  224EOH      H  901   5.709   1.270   4.314
  225EOH      O  902   5.903   0.456   3.965
  225EOH      C  903   5.919   0.569   4.052
  225EOH      C  904   5.963   0.691   3.969
  225EOH      H  905   5.862   0.386   4.014
  226EOH      O  906   4.393   5.272   3.268
  226EOH      C  907   4.261   5.225   3.293
  226EOH      C  908   4.166   5.270   3.181
  226EOH      H  909   4.452   5.200   3.285
  227EOH      O  910   0.427   6.949   0.399
  227EOH      C  911   0.442   6.836   0.486
  227EOH      C  912   0.393   6.709   0.414
  227EOH      H  913   0.491   6.941   0.330
  228EOH      O  914   1.010   7.535   0.941
  228EOH      C  915   0.998   7.421   0.856
  228EOH      C  916   1.127   7.337   0.862
  228EOH      H  917   1.039   7.504   1.026
  229EOH      O  918   4.924   3.049   4.919
  229EOH      C  919   4.925   3.043   5.062
  229EOH      C  920   5.031   2.941   5.109
  229EOH      H  921   5.006   3.088   4.890
  230EOH      O  922   4.504   6.729   0.333
  230EOH      C  923   4.474   6.675   0.204
  230EOH      C  924   4.388   6.549   0.221
  230EOH      H  925   4.494   6.823   0.328
  231EOH      O  926   5.929   5.751   1.044
  231EOH      C  927   5.830   5.695   1.131
  231EOH      C  928   5.882   5.697   1.277
  231EOH      H  929   5.990   5.801   1.097
  232EOH      O  930   4.556   6.140   3.681
  232EOH      C  931   4.442   6.118   3.597
  232EOH      C  932   4.336   6.226   3.625
  232EOH      H  933   4.607   6.210   3.645
  233EOH      O  934   2.897   0.188   5.569
  233EOH      C  935   2.911   0.191   5.711
  233EOH      C  936   3.052   0.243   5.747
  233EOH      H  937   2.890   0.277   5.539
  234EOH      O  938   6.714   1.569   7.388
  234EOH      C  939   6.811   1.637   7.310
  234EOH      C  940   6.932   1.672   7.399
  234EOH      H  941   6.741   1.479   7.398
  235EOH      O  942   0.190   7.589   2.252
  235EOH      C  943   0.132   7.719   2.266
  235EOH      C  944   0.242   7.826   2.275
  235EOH      H  945   0.242   7.588   2.174
  236EOH      O  946   6.206   4.775   7.800
  236EOH      C  947   6.145   4.855   7.902
  236EOH      C  948   6.017   4.919   7.846
  236EOH      H  949   6.299   4.780   7.812
  237EOH      O  950   0.913   5.107   1.757
  237EOH      C  951   0.900   5.118   1.899
  237EOH      C  952   0.831   5.251   1.933
  237EOH      H  953   0.838   5.061   1.722
  238EOH      O  954   7.795   5.197   0.280
  238EOH      C  955   7.722   5.106   0.363
  238EOH      C  956   7.574   5.108   0.319
  238EOH      H  957   7.886   5.194   0.307
  239EOH      O  958   7.686   4.791   3.518
  239EOH      C  959   7.675   4.751   3.381
  239EOH      C  960   7.539   4.680   3.363
  239EOH      H  961   7.618   4.855   3.535
  240EOH      O  962   2.260   1.832   7.759
  240EOH      C  963   2.165   1.889   7.849
  240EOH      C  964   2.083   1.997   7.775
  240EOH      H  965   2.214   1.790   7.688
  241EOH      O  966   2.057   5.706   2.020
  241EOH      C  967   2.031   5.575   1.969
  241EOH      C  968   2.165   5.505   1.941
  241EOH      H  969   2.081   5.699   2.111
  242EOH      O  970   4.117   4.263   6.255
  242EOH      C  971   4.171   4.259   6.122
  242EOH      C  972   4.325   4.260   6.128
  242EOH      H  973   4.028   4.232   6.252
  243EOH      O  974   7.336   0.613   5.487
  243EOH      C  975   7.298   0.543   5.368
  243EOH      C  976   7.148   0.569   5.340
  243EOH      H  977   7.316   0.704   5.475
  244EOH      O  978   5.504   6.069   1.351
  244EOH      C  979   5.632   6.018   1.313
  244EOH      C  980   5.649   6.030   1.161
  244EOH      H  981   5.501   6.160   1.326
  245EOH      O  982   2.373   2.406   3.301
  245EOH      C  983   2.460   2.297   3.332
  245EOH      C  984   2.435   2.251   3.477
  245EOH      H  985   2.284   2.374   3.299
  246EOH      O  986   4.756   6.750   3.119
  246EOH      C  987   4.707   6.616   3.114
  246EOH      C  988   4.822   6.519   3.145
  246EOH      H  989   4.785   6.766   3.207
  247EOH      O  990   2.832   7.030   2.767
  247EOH      C  991   2.904   6.908   2.749
  247EOH      C  992   2.996   6.882   2.870
  247EOH      H  993   2.775   7.020   2.841
  248EOH      O  994   3.895   3.728   2.595
  248EOH      C  995   3.760   3.728   2.642
  248EOH      C  996   3.736   3.852   2.730
  248EOH      H  997   3.896   3.766   2.509
  249EOH      O  998   5.097   4.955   0.913
  249EOH      C  999   5.210   4.939   0.827
  249EOH      C 1000   5.292   5.069   0.827
  249EOH      H 1001   5.130   4.967   1.001
  250EOH      O 1002   7.467   0.529   2.500
  250EOH      C 1003   7.351   0.493   2.575
  250EOH      C 1004   7.377   0.518   2.725
  250EOH      H 1005   7.478   0.623   2.501
  251EOH      O 1006   1.734   3.193   2.663
  251EOH      C 1007   1.875   3.207   2.685
  251EOH      C 1008   1.901   3.275   2.820
  251EOH      H 1009   1.701   3.127   2.723
  252EOH      O 1010   6.901   7.453   0.378
  252EOH      C 1011   7.016   7.409   0.451
  252EOH      C 1012   7.025   7.256   0.446
  252EOH      H 1013   6.906   7.418   0.291
  253EOH      O 1014   6.873   6.349   6.068
  253EOH      C 1015   6.751   6.274   6.070
  253EOH      C 1016   6.783   6.124   6.067
  253EOH      H 1017   6.924   6.325   6.144
  254EOH      O 1018   4.236   0.455   2.534
  254EOH      C 1019   4.157   0.483   2.649
  254EOH      C 1020   4.097   0.352   2.705
  254EOH      H 1021   4.326   0.444   2.561
  255EOH      O 1022   7.718   7.277   1.070
  255EOH      C 1023   7.779   7.227   0.951
  255EOH      C 1024   7.684   7.126   0.884
  255EOH      H 1025   7.672   7.357   1.048
  256EOH      O 1026   3.169   5.122   3.447
  256EOH      C 1027   3.284   5.050   3.400
  256EOH      C 1028   3.378   5.023   3.518
  256EOH      H 1029   3.102   5.060   3.470
  257EOH      O 1030   1.108   0.259   2.411
  257EOH      C 1031   1.227   0.180   2.410
  257EOH      C 1032   1.348   0.273   2.435
  257EOH      H 1033   1.036   0.209   2.375
  258EOH      O 1034   6.971   0.453   2.144
  258EOH      C 1035   7.042   0.421   2.264
  258EOH      C 1036   6.941   0.370   2.368
  258EOH      H 1037   7.013   0.407   2.073
  259EOH      O 1038   4.805   1.602   2.695
  259EOH      C 1039   4.777   1.569   2.559
  259EOH      C 1040   4.748   1.418   2.549
  259EOH      H 1041   4.757   1.543   2.751
  260EOH      O 1042   2.460   0.721   7.880
  260EOH      C 1043   2.579   0.685   7.810
  260EOH      C 1044   2.542   0.599   7.687
  260EOH      H 1045   2.409   0.778   7.825
  261EOH      O 1046   0.071   4.544   0.936
  261EOH      C 1047  -0.062   4.499   0.959
  261EOH      C 1048  -0.126   4.583   1.072
  261EOH      H 1049   0.067   4.621   0.880
  262EOH      O 1050   1.470   5.822   2.048
  262EOH      C 1051   1.568   5.902   1.981
  262EOH      C 1052   1.552   5.886   1.828
  262EOH      H 1053   1.387   5.837   2.006
  263EOH      O 1054   1.262   6.283   5.480
  263EOH      C 1055   1.384   6.274   5.406
  263EOH      C 1056   1.375   6.363   5.281
  263EOH      H 1057   1.243   6.374   5.496
  264EOH      O 1058   0.621   7.026   0.129
  264EOH      C 1059   0.709   7.138   0.134
  264EOH      C 1060   0.723   7.201  -0.006
  264EOH      H 1061   0.552   7.046   0.067
  265EOH      O 1062   4.582   7.243   1.922
  265EOH      C 1063   4.690   7.310   1.989
  265EOH      C 1064   4.754   7.216   2.093
  265EOH      H 1065   4.564   7.291   1.843
  266EOH      O 1066   6.547   1.954   5.358
  266EOH      C 1067   6.518   1.929   5.220
  266EOH      C 1068   6.646   1.941   5.137
  266EOH      H 1069   6.465   1.968   5.403
  267EOH      O 1070   5.096   6.272   5.845
  267EOH      C 1071   5.090   6.131   5.865
  267EOH      C 1072   5.233   6.074   5.876
  267EOH      H 1073   5.134   6.311   5.923
  268EOH      O 1074   6.001   1.629   1.095
  268EOH      C 1075   5.873   1.692   1.089
  268EOH      C 1076   5.886   1.838   1.138
  268EOH      H 1077   6.060   1.676   1.038
  269EOH      O 1078   4.432   1.764   7.603
  269EOH      C 1079   4.558   1.796   7.545
  269EOH      C 1080   4.537   1.886   7.422
  269EOH      H 1081   4.403   1.838   7.654
  270EOH      O 1082   0.748   7.382   4.438
  270EOH      C 1083   0.757   7.523   4.415
  270EOH      C 1084   0.757   7.598   4.549
  270EOH      H 1085   0.727   7.341   4.356
  271EOH      O 1086   0.776   1.140   7.102
  271EOH      C 1087   0.847   1.224   7.011
  271EOH      C 1088   0.997   1.220   7.045
  271EOH      H 1089   0.803   1.050   7.087
  272EOH      O 1090   3.902   1.603   2.004
  272EOH      C 1091   4.016   1.566   1.926
  272EOH      C 1092   3.971   1.499   1.795
  272EOH      H 1093   3.861   1.678   1.963
  273EOH      O 1094   2.821   2.923   3.056
  273EOH      C 1095   2.882   2.796   3.034
  273EOH      C 1096   2.960   2.754   3.160
  273EOH      H 1097   2.744   2.911   3.109
  274EOH      O 1098   1.345   3.960   2.732
  274EOH      C 1099   1.404   3.838   2.686
  274EOH      C 1100   1.494   3.777   2.795
  274EOH      H 1101   1.305   3.945   2.817
  275EOH      O 1102   5.548   1.738   2.064
  275EOH      C 1103   5.664   1.772   2.139
  275EOH      C 1104   5.784   1.794   2.045
  275EOH      H 1105   5.516   1.815   2.020
  276EOH      O 1106   0.844   5.236   6.014
  276EOH      C 1107   0.910   5.109   6.019
  276EOH      C 1108   0.834   5.016   6.114
  276EOH      H 1109   0.757   5.223   5.980
  277EOH      O 1110   5.627   5.332   0.457
  277EOH      C 1111   5.533   5.417   0.524
  277EOH      C 1112   5.481   5.524   0.426
  277EOH      H 1113   5.583   5.290   0.385
  278EOH      O 1114   4.923   0.111   4.054
  278EOH      C 1115   4.790   0.110   4.002
  278EOH      C 1116   4.710   0.227   4.063
  278EOH      H 1117   4.964   0.193   4.032
  279EOH      O 1118   3.325   1.652   1.379
  279EOH      C 1119   3.466   1.675   1.373
  279EOH      C 1120   3.506   1.779   1.479
  279EOH      H 1121   3.307   1.601   1.457
  280EOH      O 1122   6.813   7.027   2.392
  280EOH      C 1123   6.846   6.901   2.333
  280EOH      C 1124   6.773   6.886   2.198
  280EOH      H 1125   6.874   7.091   2.359
  281EOH      O 1126   3.855   0.473   0.015
  281EOH      C 1127   3.751   0.476  -0.083
  281EOH      C 1128   3.811   0.444  -0.222
  281EOH      H 1129   3.895   0.387   0.011
  282EOH      O 1130   0.646   5.205   6.445
  282EOH      C 1131   0.510   5.196   6.401
  282EOH      C 1132   0.419   5.167   6.521
  282EOH      H 1133   0.656   5.284   6.496
  283EOH      O 1134   2.411   7.476   6.147
  283EOH      C 1135   2.457   7.577   6.238
  283EOH      C 1136   2.338   7.632   6.317
  283EOH      H 1137   2.393   7.397   6.196
  284EOH      O 1138   2.321   3.240   3.804
  284EOH      C 1139   2.352   3.101   3.789
  284EOH      C 1140   2.264   3.019   3.885
  284EOH      H 1141   2.234   3.254   3.771
  285EOH      O 1142   3.108   1.670   5.691
  285EOH      C 1143   3.229   1.594   5.682
  285EOH      C 1144   3.343   1.682   5.628
  285EOH      H 1145   3.124   1.742   5.750
  286EOH      O 1146   3.482   3.451   7.447
  286EOH      C 1147   3.409   3.480   7.328
  286EOH      C 1148   3.331   3.612   7.346
  286EOH      H 1149   3.571   3.431   7.424
  287EOH      O 1150   6.475   1.459   6.600
  287EOH      C 1151   6.573   1.419   6.505
  287EOH      C 1152   6.651   1.543   6.457
  287EOH      H 1153   6.520   1.485   6.679
  288EOH      O 1154   0.409   4.793   1.012
  288EOH      C 1155   0.514   4.698   0.993
  288EOH      C 1156   0.515   4.598   1.110
  288EOH      H 1157   0.327   4.745   1.015
  289EOH      O 1158   4.690   2.269   7.470
  289EOH      C 1159   4.562   2.329   7.490
  289EOH      C 1160   4.504   2.370   7.353
  289EOH      H 1161   4.680   2.198   7.408
  290EOH      O 1162   2.616   6.675   4.378
  290EOH      C 1163   2.498   6.619   4.436
  290EOH      C 1164   2.374   6.672   4.360
  290EOH      H 1165   2.691   6.642   4.424
  291EOH      O 1166   2.550   2.193   5.033
  291EOH      C 1167   2.526   2.141   5.164
  291EOH      C 1168   2.637   2.191   5.259
  291EOH      H 1169   2.553   2.288   5.038
  292EOH      O 1170   4.989   4.489   7.222
  292EOH      C 1171   5.054   4.595   7.293
  292EOH      C 1172   5.036   4.727   7.215
  292EOH      H 1173   4.897   4.507   7.222
  293EOH      O 1174   3.834   0.754   2.803
  293EOH      C 1175   3.728   0.793   2.891
  293EOH      C 1176   3.663   0.922   2.838
  293EOH      H 1177   3.850   0.662   2.816
  294EOH      O 1178   3.456   0.900   4.127
  294EOH      C 1179   3.397   0.820   4.024
  294EOH      C 1180   3.248   0.798   4.056
  294EOH      H 1181   3.410   0.983   4.131
  295EOH      O 1182   3.332   6.617   7.203
  295EOH      C 1183   3.211   6.633   7.279
  295EOH      C 1184   3.105   6.706   7.194
  295EOH      H 1185   3.334   6.528   7.174
  296EOH      O 1186   1.746   7.476   0.132
  296EOH      C 1187   1.711   7.550   0.014
  296EOH      C 1188   1.712   7.456  -0.107
  296EOH      H 1189   1.695   7.397   0.132
  297EOH      O 1190   7.801   7.896   3.074
  297EOH      C 1191   7.781   8.025   3.016
  297EOH      C 1192   7.916   8.085   2.975
  297EOH      H 1193   7.840   7.840   3.008
  298EOH      O 1194   0.226   5.320   5.765
  298EOH      C 1195   0.309   5.371   5.870
  298EOH      C 1196   0.384   5.496   5.821
  298EOH      H 1197   0.213   5.228   5.780
  299EOH      O 1198   6.162   2.141   3.927
  299EOH      C 1199   6.290   2.111   3.982
  299EOH      C 1200   6.310   2.192   4.112
  299EOH      H 1201   6.097   2.100   3.980
  300EOH      O 1202   0.301   3.448   3.059
  300EOH      C 1203   0.205   3.441   2.953
  300EOH      C 1204   0.086   3.533   2.987
  300EOH      H 1205   0.334   3.536   3.063
  301EOH      O 1206   6.715   4.776   3.827
  301EOH      C 1207   6.639   4.897   3.819
  301EOH      C 1208   6.567   4.922   3.953
  301EOH      H 1209   6.791   4.792   3.881
  302EOH      O 1210   6.021   5.733   5.666
  302EOH      C 1211   6.159   5.771   5.668
  302EOH      C 1212   6.218   5.757   5.527
  302EOH      H 1213   5.977   5.788   5.603
  303EOH      O 1214   4.523   4.045   5.159
  303EOH      C 1215   4.631   3.997   5.238
  303EOH      C 1216   4.737   3.932   5.147
  303EOH      H 1217   4.469   4.100   5.213
  304EOH      O 1218   2.826   4.521   5.967
  304EOH      C 1219   2.781   4.656   5.960
  304EOH      C 1220   2.902   4.749   5.938
  304EOH      H 1221   2.876   4.503   5.889
  305EOH      O 1222   4.715   1.219   2.203
  305EOH      C 1223   4.818   1.273   2.121
  305EOH      C 1224   4.864   1.409   2.175
  305EOH      H 1225   4.735   1.127   2.218
  306EOH      O 1226   0.030   7.374   7.400
  306EOH      C 1227  -0.060   7.284   7.334
  306EOH      C 1228  -0.164   7.233   7.435
  306EOH      H 1229  -0.016   7.455   7.417
  307EOH      O 1230   0.539   4.360   3.617
  307EOH      C 1231   0.614   4.254   3.556
  307EOH      C 1232   0.682   4.169   3.666
  307EOH      H 1233   0.475   4.321   3.675
  308EOH      O 1234   2.425   6.014   5.712
  308EOH      C 1235   2.458   5.923   5.817
  308EOH      C 1236   2.607   5.885   5.807
  308EOH      H 1237   2.482   6.088   5.719
  309EOH      O 1238   3.375   1.960   4.829
  309EOH      C 1239   3.286   2.064   4.871
  309EOH      C 1240   3.262   2.160   4.752
  309EOH      H 1241   3.323   1.894   4.787
  310EOH      O 1242   5.185   3.827   3.595
  310EOH      C 1243   5.215   3.839   3.456
  310EOH      C 1244   5.109   3.762   3.375
  310EOH      H 1245   5.226   3.899   3.640
  311EOH      O 1246   2.023   6.584   0.129
  311EOH      C 1247   1.922   6.614   0.031
  311EOH      C 1248   1.983   6.615  -0.110
  311EOH      H 1249   1.977   6.554   0.206
  312EOH      O 1250   7.430   6.409   6.892
  312EOH      C 1251   7.338   6.312   6.843
  312EOH      C 1252   7.274   6.239   6.963
  312EOH      H 1253   7.381   6.475   6.938
  313EOH      O 1254   6.633   4.499   7.614
  313EOH      C 1255   6.750   4.422   7.587
  313EOH      C 1256   6.797   4.448   7.442
  313EOH      H 1257   6.661   4.586   7.639
  314EOH      O 1258   3.099   0.819   1.508
  314EOH      C 1259   3.116   0.927   1.599
  314EOH      C 1260   3.177   0.876   1.731
  314EOH      H 1261   3.182   0.775   1.498
  315EOH      O 1262   5.260   6.716   4.166
  315EOH      C 1263   5.329   6.668   4.282
  315EOH      C 1264   5.476   6.640   4.246
  315EOH      H 1265   5.295   6.801   4.146
  316EOH      O 1266   1.582   6.089   0.498
  316EOH      C 1267   1.678   6.125   0.598
  316EOH      C 1268   1.609   6.213   0.704
  316EOH      H 1269   1.532   6.017   0.532
  317EOH      O 1270   4.366   2.466   2.605
  317EOH      C 1271   4.379   2.518   2.738
  317EOH      C 1272   4.239   2.555   2.792
  317EOH      H 1273   4.329   2.379   2.610
  318EOH      O 1274   5.304   7.613   0.354
  318EOH      C 1275   5.347   7.620   0.490
  318EOH      C 1276   5.323   7.762   0.545
  318EOH      H 1277   5.211   7.631   0.352
  319EOH      O 1278   1.488   3.293   5.548
  319EOH      C 1279   1.457   3.375   5.436
  319EOH      C 1280   1.542   3.504   5.441
  319EOH      H 1281   1.570   3.249   5.531
  320EOH      O 1282   3.582   6.873   3.346
  320EOH      C 1283   3.683   6.778   3.379
  320EOH      C 1284   3.820   6.831   3.333
  320EOH      H 1285   3.583   6.942   3.411
  321EOH      O 1286   5.885   3.484   6.644
  321EOH      C 1287   5.869   3.342   6.637
  321EOH      C 1288   5.852   3.285   6.779
  321EOH      H 1289   5.882   3.519   6.557
  322EOH      O 1290   4.623   7.309   5.972
  322EOH      C 1291   4.748   7.379   5.958
  322EOH      C 1292   4.750   7.457   5.826
  322EOH      H 1293   4.630   7.253   6.047
  323EOH      O 1294   6.053   0.004   0.263
  323EOH      C 1295   5.996   0.085   0.366
  323EOH      C 1296   5.850   0.119   0.330
  323EOH      H 1297   6.026  -0.085   0.277
  324EOH      O 1298   5.471   4.085   2.223
  324EOH      C 1299   5.591   4.126   2.288
  324EOH      C 1300   5.692   4.180   2.185
  324EOH      H 1301   5.441   4.158   2.170
  325EOH      O 1302   1.330   0.628   0.285
  325EOH      C 1303   1.442   0.596   0.368
  325EOH      C 1304   1.553   0.700   0.344
  325EOH      H 1305   1.300   0.715   0.308
  326EOH      O 1306   3.309   0.577   3.747
  326EOH      C 1307   3.166   0.565   3.749
  326EOH      C 1308   3.124   0.477   3.868
  326EOH      H 1309   3.332   0.655   3.794
  327EOH      O 1310   2.197   4.339   3.985
  327EOH      C 1311   2.076   4.401   3.940
  327EOH      C 1312   2.107   4.497   3.824
  327EOH      H 1313   2.244   4.401   4.038
  328EOH      O 1314   5.377   3.035   0.732
  328EOH      C 1315   5.262   3.091   0.669
  328EOH      C 1316   5.283   3.093   0.516
  328EOH      H 1317   5.366   2.942   0.741
  329EOH      O 1318   2.458   3.505   4.638
  329EOH      C 1319   2.401   3.607   4.721
  329EOH      C 1320   2.248   3.590   4.726
  329EOH      H 1321   2.427   3.421   4.667
  330EOH      O 1322   0.739   2.253   4.972
  330EOH      C 1323   0.855   2.185   4.925
  330EOH      C 1324   0.960   2.177   5.038
  330EOH      H 1325   0.695   2.197   5.034
  331EOH      O 1326   0.236   4.935   0.720
  331EOH      C 1327   0.174   5.054   0.671
  331EOH      C 1328   0.149   5.150   0.788
  331EOH      H 1329   0.328   4.952   0.735
  332EOH      O 1330   6.767   3.878   2.406
  332EOH      C 1331   6.818   3.949   2.293
  332EOH      C 1332   6.902   4.068   2.343
  332EOH      H 1333   6.830   3.812   2.432
  333EOH      O 1334   6.190   3.424   5.815
  333EOH      C 1335   6.258   3.336   5.725
  333EOH      C 1336   6.253   3.192   5.780
  333EOH      H 1337   6.097   3.414   5.803
  334EOH      O 1338   5.774   2.250   2.720
  334EOH      C 1339   5.775   2.391   2.693
  334EOH      C 1340   5.845   2.465   2.808
  334EOH      H 1341   5.864   2.223   2.731
  335EOH      O 1342   1.355   5.214   0.455
  335EOH      C 1343   1.439   5.126   0.531
  335EOH      C 1344   1.471   5.192   0.667
  335EOH      H 1345   1.365   5.192   0.364
  336EOH      O 1346   6.151   0.646   1.682
  336EOH      C 1347   6.094   0.611   1.809
  336EOH      C 1348   5.978   0.708   1.841
  336EOH      H 1349   6.084   0.630   1.617
  337EOH      O 1350   2.105   1.330   3.668
  337EOH      C 1351   2.139   1.463   3.628
  337EOH      C 1352   2.211   1.534   3.744
  337EOH      H 1353   2.166   1.270   3.629
  338EOH      O 1354   1.371   4.378   1.970
  338EOH      C 1355   1.343   4.511   2.012
  338EOH      C 1356   1.372   4.526   2.162
  338EOH      H 1357   1.462   4.373   1.944
  339EOH      O 1358   2.237   5.383   4.938
  339EOH      C 1359   2.321   5.268   4.920
  339EOH      C 1360   2.325   5.233   4.770
  339EOH      H 1361   2.288   5.458   4.912
  340EOH      O 1362   7.575   3.613   0.297
  340EOH      C 1363   7.560   3.477   0.338
  340EOH      C 1364   7.428   3.460   0.415
  340EOH      H 1365   7.632   3.614   0.222
  341EOH      O 1366   2.726   6.789   5.401
  341EOH      C 1367   2.662   6.912   5.365
  341EOH      C 1368   2.721   7.027   5.450
  341EOH      H 1369   2.818   6.797   5.382
  342EOH      O 1370   3.976   5.695   1.971
  342EOH      C 1371   3.944   5.722   2.107
  342EOH      C 1372   3.929   5.590   2.184
  342EOH      H 1373   4.050   5.637   1.968
  343EOH      O 1374   6.090   0.184   3.645
  343EOH      C 1375   6.119   0.247   3.770
  343EOH      C 1376   6.183   0.385   3.747
  343EOH      H 1377   6.007   0.219   3.615
  344EOH      O 1378   1.059   3.661   1.086
  344EOH      C 1379   1.016   3.540   1.150
  344EOH      C 1380   1.054   3.420   1.061
  344EOH      H 1381   1.154   3.664   1.089
  345EOH      O 1382   0.188   6.574   1.517
  345EOH      C 1383   0.157   6.711   1.491
  345EOH      C 1384   0.050   6.719   1.380
  345EOH      H 1385   0.110   6.532   1.550
  346EOH      O 1386   3.219   7.403   1.894
  346EOH      C 1387   3.209   7.487   1.779
  346EOH      C 1388   3.303   7.608   1.794
  346EOH      H 1389   3.309   7.374   1.901
  347EOH      O 1390   1.960   3.401   7.615
  347EOH      C 1391   1.872   3.289   7.628
  347EOH      C 1392   1.902   3.187   7.516
  347EOH      H 1393   2.049   3.371   7.629
  348EOH      O 1394   0.544   0.820   5.925
  348EOH      C 1395   0.586   0.947   5.975
  348EOH      C 1396   0.696   0.927   6.081
  348EOH      H 1397   0.612   0.788   5.867
  349EOH      O 1398   4.973   7.023   7.471
  349EOH      C 1399   4.897   7.134   7.425
  349EOH      C 1400   4.782   7.163   7.524
  349EOH      H 1401   5.032   7.053   7.539
  350EOH      O 1402   2.717   3.250   4.060
  350EOH      C 1403   2.806   3.284   4.167
  350EOH      C 1404   2.864   3.425   4.146
  350EOH      H 1405   2.676   3.330   4.031
  351EOH      O 1406   7.887   3.366   0.301
  351EOH      C 1407   7.998   3.288   0.256
  351EOH      C 1408   7.948   3.151   0.206
  351EOH      H 1409   7.827   3.374   0.227
  352EOH      O 1410   3.598   1.769   7.558
  352EOH      C 1411   3.720   1.709   7.512
  352EOH      C 1412   3.799   1.652   7.631
  352EOH      H 1413   3.551   1.702   7.607
  353EOH      O 1414   2.320   4.141   3.883
  353EOH      C 1415   2.319   4.144   3.741
  353EOH      C 1416   2.220   4.038   3.688
  353EOH      H 1417   2.268   4.213   3.915
  354EOH      O 1418   7.676   5.659   0.464
  354EOH      C 1419   7.675   5.517   0.476
  354EOH      C 1420   7.818   5.464   0.461
  354EOH      H 1421   7.764   5.690   0.477
  355EOH      O 1422   3.409   6.070   2.237
  355EOH      C 1423   3.281   6.026   2.284
  355EOH      C 1424   3.201   6.146   2.336
  355EOH      H 1425   3.397   6.124   2.161
  356EOH      O 1426   1.738   5.139   0.408
  356EOH      C 1427   1.795   5.023   0.469
  356EOH      C 1428   1.818   4.916   0.361
  356EOH      H 1429   1.713   5.200   0.477
  357EOH      O 1430   1.958   4.161   2.106
  357EOH      C 1431   1.969   4.045   2.190
  357EOH      C 1432   1.985   3.920   2.102
  357EOH      H 1433   2.041   4.175   2.063
  358EOH      O 1434   4.768   0.648   6.983
  358EOH      C 1435   4.725   0.678   6.850
  358EOH      C 1436   4.589   0.752   6.855
  358EOH      H 1437   4.747   0.723   7.037
  359EOH      O 1438   7.882   0.156   2.437
  359EOH      C 1439   7.757   0.156   2.368
  359EOH      C 1440   7.691   0.294   2.383
  359EOH      H 1441   7.933   0.227   2.400
  360EOH      O 1442   5.307   0.644   2.910
  360EOH      C 1443   5.210   0.569   2.837
  360EOH      C 1444   5.115   0.497   2.935
  360EOH      H 1445   5.348   0.703   2.849
  361EOH      O 1446   0.126   6.296   5.370
  361EOH      C 1447  -0.007   6.252   5.339
  361EOH      C 1448  -0.107   6.365   5.370
  361EOH      H 1449   0.187   6.237   5.329
  362EOH      O 1450   0.815   5.203   0.830
  362EOH      C 1451   0.859   5.339   0.826
  362EOH      C 1452   0.797   5.410   0.704
  362EOH      H 1453   0.722   5.202   0.851
  363EOH      O 1454   2.993   2.353   1.751
  363EOH      C 1455   2.924   2.301   1.865
  363EOH      C 1456   2.819   2.198   1.818
  363EOH      H 1457   3.048   2.284   1.716
  364EOH      O 1458   7.101   5.859   0.307
  364EOH      C 1459   7.194   5.772   0.242
  364EOH      C 1460   7.309   5.736   0.338
  364EOH      H 1461   7.034   5.807   0.350
  365EOH      O 1462   7.022   3.584   4.404
  365EOH      C 1463   7.031   3.673   4.516
  365EOH      C 1464   6.937   3.626   4.628
  365EOH      H 1465   7.106   3.543   4.395
  366EOH      O 1466   1.455   2.471   2.105
  366EOH      C 1467   1.415   2.599   2.057
  366EOH      C 1468   1.408   2.697   2.176
  366EOH      H 1469   1.546   2.477   2.132
  367EOH      O 1470   6.332   6.407   3.970
  367EOH      C 1471   6.410   6.352   3.863
  367EOH      C 1472   6.351   6.395   3.728
  367EOH      H 1473   6.346   6.500   3.974
  368EOH      O 1474   1.018   6.975   4.770
  368EOH      C 1475   1.121   6.903   4.703
  368EOH      C 1476   1.208   6.829   4.807
  368EOH      H 1477   0.966   7.019   4.704
  369EOH      O 1478   4.781   0.995   3.265
  369EOH      C 1479   4.750   1.124   3.211
  369EOH      C 1480   4.867   1.219   3.239
  369EOH      H 1481   4.875   0.985   3.262
  370EOH      O 1482   0.569   7.205   1.008
  370EOH      C 1483   0.534   7.083   1.074
  370EOH      C 1484   0.500   6.976   0.968
  370EOH      H 1485   0.655   7.230   1.037
  371EOH      O 1486   5.223   0.408   0.676
  371EOH      C 1487   5.114   0.499   0.690
  371EOH      C 1488   5.082   0.564   0.554
  371EOH      H 1489   5.193   0.337   0.621
  372EOH      O 1490   3.646   7.673   0.656
  372EOH      C 1491   3.685   7.797   0.716
  372EOH      C 1492   3.601   7.911   0.654
  372EOH      H 1493   3.694   7.604   0.699
  373EOH      O 1494   4.057   7.321   6.881
  373EOH      C 1495   3.945   7.340   6.794
  373EOH      C 1496   3.914   7.206   6.723
  373EOH      H 1497   4.028   7.271   6.955
  374EOH      O 1498   7.511   5.618   3.287
  374EOH      C 1499   7.635   5.644   3.354
  374EOH      C 1500   7.691   5.515   3.416
  374EOH      H 1501   7.528   5.557   3.216
  375EOH      O 1502   1.649   0.640   3.621
  375EOH      C 1503   1.755   0.656   3.526
  375EOH      C 1504   1.745   0.548   3.417
  375EOH      H 1505   1.569   0.673   3.583
  376EOH      O 1506   3.553   0.857   4.502
  376EOH      C 1507   3.617   0.740   4.450
  376EOH      C 1508   3.563   0.614   4.521
  376EOH      H 1509   3.591   0.930   4.455
  377EOH      O 1510   2.340   7.275   5.410
  377EOH      C 1511   2.414   7.368   5.490
  377EOH      C 1512   2.485   7.469   5.398
  377EOH      H 1513   2.286   7.223   5.468
  378EOH      O 1514   0.364   2.092   2.269
  378EOH      C 1515   0.291   2.091   2.393
  378EOH      C 1516   0.160   2.170   2.375
  378EOH      H 1517   0.334   2.019   2.218
  379EOH      O 1518   0.976   0.582   0.542
  379EOH      C 1519   0.913   0.685   0.465
  379EOH      C 1520   1.020   0.780   0.409
  379EOH      H 1521   1.020   0.523   0.483
  380EOH      O 1522   2.761   0.392   1.798
  380EOH      C 1523   2.765   0.254   1.761
  380EOH      C 1524   2.900   0.193   1.804
  380EOH      H 1525   2.753   0.397   1.892
  381EOH      O 1526   7.047   4.759   7.410
  381EOH      C 1527   7.120   4.805   7.524
  381EOH      C 1528   7.260   4.739   7.526
  381EOH      H 1529   7.093   4.788   7.332
  382EOH      O 1530   5.748   3.152   4.267
  382EOH      C 1531   5.820   3.217   4.162
  382EOH      C 1532   5.941   3.291   4.222
  382EOH      H 1533   5.811   3.113   4.324
  383EOH      O 1534   1.220   3.583   4.963
  383EOH      C 1535   1.228   3.628   4.828
  383EOH      C 1536   1.375   3.619   4.781
  383EOH      H 1537   1.226   3.489   4.963
  384EOH      O 1538   2.909   4.100   2.202
  384EOH      C 1539   2.873   3.974   2.145
  384EOH      C 1540   2.778   3.998   2.026
  384EOH      H 1541   2.921   4.089   2.295
  385EOH      O 1542   6.114   0.759   7.676
  385EOH      C 1543   6.045   0.645   7.727
  385EOH      C 1544   6.026   0.661   7.879
  385EOH      H 1545   6.055   0.811   7.624
  386EOH      O 1546   4.225   5.683   7.754
  386EOH      C 1547   4.330   5.610   7.818
  386EOH      C 1548   4.452   5.702   7.835
  386EOH      H 1549   4.205   5.759   7.807
  387EOH      O 1550   3.806   2.876   0.795
  387EOH      C 1551   3.910   2.808   0.866
  387EOH      C 1552   4.029   2.786   0.770
  387EOH      H 1553   3.808   2.967   0.818
  388EOH      O 1554   1.623   6.595   7.795
  388EOH      C 1555   1.558   6.722   7.783
  388EOH      C 1556   1.410   6.697   7.748
  388EOH      H 1557   1.569   6.539   7.849
  389EOH      O 1558   4.757   3.006   3.270
  389EOH      C 1559   4.791   2.869   3.247
  389EOH      C 1560   4.662   2.784   3.240
  389EOH      H 1561   4.753   3.051   3.187
  390EOH      O 1562   0.123   3.022   2.749
  390EOH      C 1563  -0.014   2.990   2.727
  390EOH      C 1564  -0.070   2.917   2.851
  390EOH      H 1565   0.127   3.092   2.812
  391EOH      O 1566   3.590   0.794   5.010
  391EOH      C 1567   3.643   0.718   4.901
  391EOH      C 1568   3.747   0.802   4.826
  391EOH      H 1569   3.661   0.821   5.065
  392EOH      O 1570   2.770   6.184   1.375
  392EOH      C 1571   2.721   6.319   1.375
  392EOH      C 1572   2.758   6.388   1.508
  392EOH      H 1573   2.864   6.189   1.382
  393EOH      O 1574   6.921   6.978   6.850
  393EOH      C 1575   6.961   7.052   6.966
  393EOH      C 1576   7.000   6.954   7.078
  393EOH      H 1577   6.972   7.009   6.776
  394EOH      O 1578   0.211   3.780   4.506
  394EOH      C 1579   0.278   3.906   4.518
  394EOH      C 1580   0.393   3.894   4.620
  394EOH      H 1581   0.134   3.793   4.453
  395EOH      O 1582   7.420   6.430   2.765
  395EOH      C 1583   7.380   6.372   2.889
  395EOH      C 1584   7.496   6.289   2.948
  395EOH      H 1585   7.472   6.507   2.785
  396EOH      O 1586   6.786   2.607   6.008
  396EOH      C 1587   6.645   2.587   6.013
  396EOH      C 1588   6.607   2.530   6.151
  396EOH      H 1589   6.812   2.647   6.089
  397EOH      O 1590   4.250   4.598   5.372
  397EOH      C 1591   4.153   4.681   5.438
  397EOH      C 1592   4.227   4.782   5.528
  397EOH      H 1593   4.306   4.656   5.324
  398EOH      O 1594   6.697   4.926   6.367
  398EOH      C 1595   6.650   4.892   6.498
  398EOH      C 1596   6.645   4.739   6.512
  398EOH      H 1597   6.701   5.020   6.360
  399EOH      O 1598   6.749   1.604   4.003
  399EOH      C 1599   6.833   1.703   3.944
  399EOH      C 1600   6.803   1.841   4.007
  399EOH      H 1601   6.784   1.581   4.088
  400EOH      O 1602   0.612   1.266   3.956
  400EOH      C 1603   0.506   1.172   3.942
  400EOH      C 1604   0.461   1.124   4.081
  400EOH      H 1605   0.583   1.338   4.010
  401EOH      O 1606   4.182   2.535   5.229
  401EOH      C 1607   4.107   2.632   5.156
  401EOH      C 1608   4.050   2.738   5.253
  401EOH      H 1609   4.271   2.567   5.236
  402EOH      O 1610   1.782   4.427   0.432
  402EOH      C 1611   1.740   4.321   0.518
  402EOH      C 1612   1.761   4.185   0.447
  402EOH      H 1613   1.871   4.449   0.453
  403EOH      O 1614   0.351   5.101   3.699
  403EOH      C 1615   0.285   4.984   3.650
  403EOH      C 1616   0.190   5.020   3.535
  403EOH      H 1617   0.409   5.074   3.769
  404EOH      O 1618   3.872   4.170   6.251
  404EOH      C 1619   3.862   4.029   6.233
  404EOH      C 1620   3.771   3.969   6.342
  404EOH      H 1621   3.785   4.206   6.242
  405EOH      O 1622   0.269   6.650   3.677
  405EOH      C 1623   0.376   6.558   3.656
  405EOH      C 1624   0.425   6.570   3.510
  405EOH      H 1625   0.305   6.736   3.690
  406EOH      O 1626   3.665   6.080   5.581
  406EOH      C 1627   3.547   6.122   5.651
  406EOH      C 1628   3.584   6.163   5.794
  406EOH      H 1629   3.708   6.158   5.547
  407EOH      O 1630   0.185   1.102   2.390
  407EOH      C 1631   0.313   1.054   2.432
  407EOH      C 1632   0.292   0.936   2.529
  407EOH      H 1633   0.199   1.153   2.311
  408EOH      O 1634   2.396   4.671   6.338
  408EOH      C 1635   2.334   4.654   6.210
  408EOH      C 1636   2.392   4.529   6.141
  408EOH      H 1637   2.353   4.614   6.400
  409EOH      O 1638   2.295   3.406   4.248
  409EOH      C 1639   2.203   3.316   4.312
  409EOH      C 1640   2.219   3.175   4.252
  409EOH      H 1641   2.383   3.379   4.268
  410EOH      O 1642   1.771   5.085   4.024
  410EOH      C 1643   1.908   5.074   3.986
  410EOH      C 1644   1.996   5.068   4.113
  410EOH      H 1645   1.746   5.003   4.064
  411EOH      O 1646   2.609   4.255   3.313
  411EOH      C 1647   2.598   4.366   3.402
  411EOH      C 1648   2.668   4.489   3.341
  411EOH      H 1649   2.558   4.273   3.235
  412EOH      O 1650   5.348   6.917   4.535
  412EOH      C 1651   5.249   7.019   4.548
  412EOH      C 1652   5.257   7.116   4.429
  412EOH      H 1653   5.336   6.854   4.605
  413EOH      O 1654   1.751   5.161   0.154
  413EOH      C 1655   1.635   5.232   0.112
  413EOH      C 1656   1.512   5.142   0.137
  413EOH      H 1657   1.749   5.155   0.249
  414EOH      O 1658   4.535   7.338   3.945
  414EOH      C 1659   4.413   7.345   3.871
  414EOH      C 1660   4.405   7.480   3.798
  414EOH      H 1661   4.607   7.337   3.883
  415EOH      O 1662   7.055   4.948   0.939
  415EOH      C 1663   7.110   4.819   0.965
  415EOH      C 1664   7.224   4.791   0.865
  415EOH      H 1665   7.121   5.012   0.960
  416EOH      O 1666   0.681   2.931   7.620
  416EOH      C 1667   0.616   2.927   7.492
  416EOH      C 1668   0.561   2.785   7.466
  416EOH      H 1669   0.620   2.967   7.683
  417EOH      O 1670   5.894   0.335   1.771
  417EOH      C 1671   5.811   0.320   1.655
  417EOH      C 1672   5.865   0.205   1.567
  417EOH      H 1673   5.839   0.331   1.848
  418EOH      O 1674   6.969   7.813   4.953
  418EOH      C 1675   6.965   7.691   5.027
  418EOH      C 1676   6.866   7.707   5.144
  418EOH      H 1677   6.882   7.828   4.920
  419EOH      O 1678   1.786   4.841   6.053
  419EOH      C 1679   1.901   4.895   5.987
  419EOH      C 1680   1.912   5.046   6.017
  419EOH      H 1681   1.806   4.832   6.145
  420EOH      O 1682   0.392   4.949   0.407
  420EOH      C 1683   0.518   4.883   0.410
  420EOH      C 1684   0.606   4.933   0.293
  420EOH      H 1685   0.408   5.042   0.415
  421EOH      O 1686   0.345   5.031   5.822
  421EOH      C 1687   0.449   5.033   5.724
  421EOH      C 1688   0.583   5.068   5.791
  421EOH      H 1689   0.283   4.964   5.797
  422EOH      O 1690   2.635   5.902   2.126
  422EOH      C 1691   2.590   5.784   2.059
  422EOH      C 1692   2.632   5.786   1.911
  422EOH      H 1693   2.725   5.917   2.100
  423EOH      O 1694   7.838   4.214   2.396
  423EOH      C 1695   7.935   4.263   2.303
  423EOH      C 1696   8.058   4.315   2.379
  423EOH      H 1697   7.820   4.124   2.375
  424EOH      O 1698   3.474   2.418   4.514
  424EOH      C 1699   3.370   2.501   4.463
  424EOH      C 1700   3.278   2.545   4.579
  424EOH      H 1701   3.539   2.472   4.556
  425EOH      O 1702   5.982   2.751   6.523
  425EOH      C 1703   5.896   2.864   6.527
  425EOH      C 1704   5.806   2.862   6.402
  425EOH      H 1705   5.929   2.673   6.519
  426EOH      O 1706   7.475   7.377   2.628
  426EOH      C 1707   7.512   7.296   2.740
  426EOH      C 1708   7.392   7.209   2.782
  426EOH      H 1709   7.482   7.325   2.549
  427EOH      O 1710   7.349   6.443   0.061
  427EOH      C 1711   7.270   6.438   0.180
  427EOH      C 1712   7.132   6.500   0.156
  427EOH      H 1713   7.300   6.399  -0.007
  428EOH      O 1714   7.831   5.302   6.259
  428EOH      C 1715   7.910   5.340   6.146
  428EOH      C 1716   7.847   5.282   6.018
  428EOH      H 1717   7.744   5.337   6.248
  429EOH      O 1718   2.953   0.177   2.319
  429EOH      C 1719   3.086   0.167   2.268
  429EOH      C 1720   3.088   0.219   2.123
  429EOH      H 1721   2.911   0.252   2.279
  430EOH      O 1722   7.187   3.997   6.647
  430EOH      C 1723   7.143   4.112   6.721
  430EOH      C 1724   7.257   4.215   6.728
  430EOH      H 1725   7.202   4.025   6.557
  431EOH      O 1726   6.320   0.681   0.957
  431EOH      C 1727   6.189   0.727   0.925
  431EOH      C 1728   6.084   0.649   1.006
  431EOH      H 1729   6.347   0.721   1.038
  432EOH      O 1730   3.454   4.643   4.372
  432EOH      C 1731   3.428   4.546   4.269
  432EOH      C 1732   3.277   4.544   4.241
  432EOH      H 1733   3.547   4.643   4.388
  433EOH      O 1734   2.899   7.505   5.166
  433EOH      C 1735   2.944   7.416   5.064
  433EOH      C 1736   3.018   7.297   5.129
  433EOH      H 1737   2.849   7.456   5.229
  434EOH      O 1738   2.182   2.106   6.755
  434EOH      C 1739   2.276   2.053   6.661
  434EOH      C 1740   2.294   1.903   6.689
  434EOH      H 1741   2.096   2.098   6.717
  435EOH      O 1742   2.250   1.602   4.540
  435EOH      C 1743   2.166   1.509   4.609
  435EOH      C 1744   2.027   1.504   4.543
  435EOH      H 1745   2.274   1.565   4.456
  436EOH      O 1746   1.198   2.921   1.969
  436EOH      C 1747   1.307   3.013   1.965
  436EOH      C 1748   1.419   2.954   1.877
  436EOH      H 1749   1.131   2.958   2.025
  437EOH      O 1750   5.512   7.337   2.650
  437EOH      C 1751   5.461   7.466   2.684
  437EOH      C 1752   5.531   7.573   2.597
  437EOH      H 1753   5.506   7.327   2.556
  438EOH      O 1754   3.404   1.147   3.029
  438EOH      C 1755   3.302   1.180   2.935
  438EOH      C 1756   3.343   1.123   2.798
  438EOH      H 1757   3.487   1.158   2.985
  439EOH      O 1758   0.558   3.402   4.302
  439EOH      C 1759   0.553   3.542   4.271
  439EOH      C 1760   0.614   3.622   4.387
  439EOH      H 1761   0.649   3.374   4.301
  440EOH      O 1762   7.216   5.612   4.114
  440EOH      C 1763   7.230   5.580   4.253
  440EOH      C 1764   7.181   5.700   4.336
  440EOH      H 1765   7.124   5.619   4.094
  441EOH      O 1766   5.858   7.706   4.833
  441EOH      C 1767   5.867   7.572   4.883
  441EOH      C 1768   5.741   7.494   4.843
  441EOH      H 1769   5.883   7.705   4.742
  442EOH      O 1770   3.141   3.917   0.231
  442EOH      C 1771   3.093   3.924   0.366
  442EOH      C 1772   3.019   4.058   0.387
  442EOH      H 1773   3.072   3.945   0.173
  443EOH      O 1774   4.377   1.355   0.576
  443EOH      C 1775   4.394   1.492   0.538
  443EOH      C 1776   4.430   1.575   0.662
  443EOH      H 1777   4.457   1.326   0.616
  444EOH      O 1778   7.035   6.495   4.262
  444EOH      C 1779   7.104   6.594   4.185
  444EOH      C 1780   7.219   6.653   4.269
  444EOH      H 1781   6.957   6.471   4.214
  445EOH      O 1782   6.437   5.191   7.443
  445EOH      C 1783   6.409   5.330   7.429
  445EOH      C 1784   6.382   5.363   7.280
  445EOH      H 1785   6.369   5.143   7.398
  446EOH      O 1786   6.042   4.142   0.527
  446EOH      C 1787   5.957   4.213   0.618
  446EOH      C 1788   5.859   4.299   0.537
  446EOH      H 1789   6.107   4.095   0.577
  447EOH      O 1790   1.362   0.006   7.022
  447EOH      C 1791   1.281   0.123   7.033
  447EOH      C 1792   1.180   0.105   7.148
  447EOH      H 1793   1.435   0.025   6.965
  448EOH      O 1794   6.747   0.694   2.736
  448EOH      C 1795   6.884   0.704   2.775
  448EOH      C 1796   6.975   0.712   2.651
  448EOH      H 1797   6.725   0.771   2.686
  449EOH      O 1798   0.848   3.682   4.879
  449EOH      C 1799   0.807   3.597   4.772
  449EOH      C 1800   0.811   3.450   4.818
  449EOH      H 1801   0.790   3.669   4.952
  450EOH      O 1802   3.207   0.410   6.969
  450EOH      C 1803   3.345   0.373   6.968
  450EOH      C 1804   3.427   0.471   7.054
  450EOH      H 1805   3.180   0.425   7.059
  451EOH      O 1806   7.469   3.430   7.297
  451EOH      C 1807   7.350   3.392   7.228
  451EOH      C 1808   7.378   3.381   7.077
  451EOH      H 1809   7.537   3.367   7.277
  452EOH      O 1810   3.597   5.753   4.066
  452EOH      C 1811   3.536   5.623   4.063
  452EOH      C 1812   3.570   5.547   4.192
  452EOH      H 1813   3.555   5.805   4.133
  453EOH      O 1814   2.602   1.420   7.500
  453EOH      C 1815   2.708   1.502   7.450
  453EOH      C 1816   2.808   1.412   7.375
  453EOH      H 1817   2.548   1.396   7.426
  454EOH      O 1818   7.509   2.729   2.810
  454EOH      C 1819   7.566   2.615   2.875
  454EOH      C 1820   7.683   2.559   2.791
  454EOH      H 1821   7.447   2.769   2.869
  455EOH      O 1822   3.843   0.066   1.892
  455EOH      C 1823   3.712   0.092   1.942
  455EOH      C 1824   3.676   0.239   1.917
  455EOH      H 1825   3.839   0.076   1.798
  456EOH      O 1826   7.067   4.615   6.420
  456EOH      C 1827   7.015   4.702   6.319
  456EOH      C 1828   7.019   4.847   6.370
  456EOH      H 1829   7.154   4.645   6.443
  457EOH      O 1830   5.317   2.524   5.048
  457EOH      C 1831   5.396   2.432   4.973
  457EOH      C 1832   5.442   2.317   5.065
  457EOH      H 1833   5.231   2.485   5.059
  458EOH      O 1834   3.091   2.910   2.477
  458EOH      C 1835   3.047   2.812   2.384
  458EOH      C 1836   3.033   2.877   2.245
  458EOH      H 1837   3.165   2.875   2.525
  459EOH      O 1838   5.958   5.852   5.235
  459EOH      C 1839   5.923   5.751   5.140
  459EOH      C 1840   5.832   5.811   5.031
  459EOH      H 1841   6.016   5.913   5.192
  460EOH      O 1842   0.826   4.461   2.426
  460EOH      C 1843   0.880   4.456   2.294
  460EOH      C 1844   1.033   4.452   2.303
  460EOH      H 1845   0.841   4.377   2.468
  461EOH      O 1846   4.603   3.020   2.353
  461EOH      C 1847   4.660   3.013   2.222
  461EOH      C 1848   4.721   3.149   2.183
  461EOH      H 1849   4.582   2.933   2.381
  462EOH      O 1850   3.509   0.278   5.025
  462EOH      C 1851   3.450   0.148   5.039
  462EOH      C 1852   3.357   0.121   4.919
  462EOH      H 1853   3.579   0.271   4.961
  463EOH      O 1854   3.206   6.378   5.511
  463EOH      C 1855   3.203   6.237   5.535
  463EOH      C 1856   3.141   6.209   5.673
  463EOH      H 1857   3.118   6.410   5.526
  464EOH      O 1858   5.276   7.102   1.338
  464EOH      C 1859   5.218   7.092   1.207
  464EOH      C 1860   5.295   6.987   1.125
  464EOH      H 1861   5.266   7.018   1.381
  465EOH      O 1862   5.038   5.385   0.533
  465EOH      C 1863   5.075   5.247   0.520
  465EOH      C 1864   5.152   5.229   0.388
  465EOH      H 1865   5.108   5.431   0.577
  466EOH      O 1866   1.758   6.127   5.196
  466EOH      C 1867   1.820   6.006   5.238
  466EOH      C 1868   1.960   5.997   5.175
  466EOH      H 1869   1.816   6.198   5.218
  467EOH      O 1870   3.260   4.117   2.854
  467EOH      C 1871   3.237   4.126   2.995
  467EOH      C 1872   3.125   4.228   3.022
  467EOH      H 1873   3.184   4.077   2.814
  468EOH      O 1874   0.496   4.473   0.075
  468EOH      C 1875   0.378   4.461  -0.005
  468EOH      C 1876   0.254   4.476   0.085
  468EOH      H 1877   0.524   4.563   0.075
  469EOH      O 1878   6.455   3.111   4.012
  469EOH      C 1879   6.527   3.022   4.097
  469EOH      C 1880   6.484   3.039   4.243
  469EOH      H 1881   6.367   3.079   4.004
  470EOH      O 1882   7.437   5.773   6.190
  470EOH      C 1883   7.545   5.857   6.149
  470EOH      C 1884   7.638   5.882   6.269
  470EOH      H 1885   7.473   5.691   6.222
  471EOH      O 1886   5.023   3.158   1.626
  471EOH      C 1887   5.103   3.114   1.516
  471EOH      C 1888   5.055   3.180   1.385
  471EOH      H 1889   5.047   3.248   1.645
  472EOH      O 1890   0.131   6.280   2.438
  472EOH      C 1891   0.249   6.355   2.466
  472EOH      C 1892   0.228   6.503   2.428
  472EOH      H 1893   0.057   6.329   2.470
  473EOH      O 1894   6.844   7.386   6.702
  473EOH      C 1895   6.875   7.467   6.588
  473EOH      C 1896   6.906   7.376   6.467
  473EOH      H 1897   6.760   7.346   6.688
  474EOH      O 1898   6.188   3.642   3.386
  474EOH      C 1899   6.277   3.543   3.335
  474EOH      C 1900   6.323   3.586   3.194
  474EOH      H 1901   6.172   3.622   3.477
  475EOH      O 1902   4.870   6.683   6.264
  475EOH      C 1903   4.809   6.626   6.148
  475EOH      C 1904   4.848   6.708   6.023
  475EOH      H 1905   4.962   6.692   6.247
  476EOH      O 1906   1.241   7.264   3.984
  476EOH      C 1907   1.356   7.211   3.917
  476EOH      C 1908   1.482   7.261   3.989
  476EOH      H 1909   1.192   7.193   4.022
  477EOH      O 1910   5.465   7.108   2.846
  477EOH      C 1911   5.331   7.122   2.799
  477EOH      C 1912   5.236   7.029   2.877
  477EOH      H 1913   5.515   7.176   2.805
  478EOH      O 1914   1.083   0.615   2.355
  478EOH      C 1915   1.209   0.636   2.290
  478EOH      C 1916   1.226   0.527   2.183
  478EOH      H 1917   1.072   0.675   2.426
  479EOH      O 1918   1.931   0.949   0.815
  479EOH      C 1919   1.964   0.924   0.678
  479EOH      C 1920   2.113   0.954   0.653
  479EOH      H 1921   2.003   0.917   0.868
  480EOH      O 1922   0.136   6.050   3.833
  480EOH      C 1923   0.069   6.123   3.730
  480EOH      C 1924   0.128   6.265   3.722
  480EOH      H 1925   0.228   6.044   3.812
  481EOH      O 1926   4.274   6.798   2.175
  481EOH      C 1927   4.416   6.788   2.161
  481EOH      C 1928   4.471   6.673   2.248
  481EOH      H 1929   4.241   6.835   2.095
  482EOH      O 1930   4.465   1.427   6.947
  482EOH      C 1931   4.595   1.380   6.982
  482EOH      C 1932   4.701   1.472   6.919
  482EOH      H 1933   4.440   1.494   7.009
  483EOH      O 1934   6.912   7.195   3.061
  483EOH      C 1935   7.013   7.263   3.136
  483EOH      C 1936   7.082   7.366   3.044
  483EOH      H 1937   6.828   7.223   3.093
  484EOH      O 1938   2.661   6.633   6.235
  484EOH      C 1939   2.605   6.616   6.366
  484EOH      C 1940   2.457   6.657   6.365
  484EOH      H 1941   2.621   6.570   6.178
  485EOH      O 1942   1.911   5.231   7.440
  485EOH      C 1943   1.974   5.359   7.432
  485EOH      C 1944   1.952   5.435   7.565
  485EOH      H 1945   1.960   5.177   7.500
  486EOH      O 1946   5.709   0.309   2.892
  486EOH      C 1947   5.837   0.303   2.831
  486EOH      C 1948   5.823   0.289   2.678
  486EOH      H 1949   5.671   0.394   2.879
  487EOH      O 1950   4.892   2.021   0.919
  487EOH      C 1951   4.876   2.162   0.898
  487EOH      C 1952   4.960   2.238   1.002
  487EOH      H 1953   4.985   2.002   0.915
  488EOH      O 1954   2.871   5.693   0.611
  488EOH      C 1955   2.972   5.604   0.563
  488EOH      C 1956   3.110   5.673   0.570
  488EOH      H 1957   2.787   5.657   0.587
  489EOH      O 1958   2.581   0.102   0.804
  489EOH      C 1959   2.720   0.095   0.771
  489EOH      C 1960   2.802   0.078   0.901
  489EOH      H 1961   2.534   0.052   0.739
  490EOH      O 1962   6.106   1.645   4.068
  490EOH      C 1963   5.985   1.591   4.015
  490EOH      C 1964   5.865   1.646   4.095
  490EOH      H 1965   6.096   1.739   4.072
  491EOH      O 1966   5.785   7.175   6.562
  491EOH      C 1967   5.731   7.300   6.519
  491EOH      C 1968   5.577   7.287   6.510
  491EOH      H 1969   5.875   7.189   6.587
  492EOH      O 1970   1.480   7.656   0.256
  492EOH      C 1971   1.374   7.673   0.351
  492EOH      C 1972   1.245   7.713   0.277
  492EOH      H 1973   1.477   7.567   0.224
  493EOH      O 1974   0.480   0.189   7.841
  493EOH      C 1975   0.526   0.239   7.967
  493EOH      C 1976   0.662   0.175   8.001
  493EOH      H 1977   0.412   0.247   7.811
  494EOH      O 1978   6.868   5.765   0.431
  494EOH      C 1979   6.772   5.814   0.336
  494EOH      C 1980   6.632   5.760   0.371
  494EOH      H 1981   6.844   5.802   0.515
  495EOH      O 1982   7.617   3.191   2.816
  495EOH      C 1983   7.552   3.206   2.690
  495EOH      C 1984   7.438   3.309   2.704
  495EOH      H 1985   7.673   3.266   2.829
  496EOH      O 1986   2.449   0.278   6.171
  496EOH      C 1987   2.336   0.330   6.100
  496EOH      C 1988   2.219   0.231   6.114
  496EOH      H 1989   2.429   0.277   6.263
  497EOH      O 1990   1.494   4.713   4.514
  497EOH      C 1991   1.362   4.659   4.500
  497EOH      C 1992   1.259   4.760   4.553
  497EOH      H 1993   1.554   4.657   4.468
  498EOH      O 1994   6.375   6.496   1.628
  498EOH      C 1995   6.350   6.615   1.552
  498EOH      C 1996   6.198   6.633   1.536
  498EOH      H 1997   6.340   6.511   1.715
  499EOH      O 1998   2.021   1.610   1.130
  499EOH      C 1999   2.163   1.599   1.128
  499EOH      C 2000   2.226   1.728   1.184
  499EOH      H 2001   1.992   1.636   1.217
  500EOH      O 2002   4.784   6.434   0.329
  500EOH      C 2003   4.753   6.378   0.201
  500EOH      C 2004   4.879   6.376   0.113
  500EOH      H 2005   4.704   6.450   0.375
  501EOH      O 2006   4.574   5.324   4.517
  501EOH      C 2007   4.519   5.444   4.463
  501EOH      C 2008   4.372   5.457   4.504
  501EOH      H 2009   4.578   5.333   4.611
  502EOH      O 2010   2.221   2.557   0.029
  502EOH      C 2011   2.294   2.438   0.060
  502EOH      C 2012   2.197   2.317   0.062
  502EOH      H 2013   2.180   2.545  -0.056
  503EOH      O 2014   3.637   5.955   3.172
  503EOH      C 2015   3.629   6.004   3.307
  503EOH      C 2016   3.515   5.934   3.383
  503EOH      H 2017   3.699   5.884   3.170
  504EOH      O 2018   7.324   0.036   4.733
  504EOH      C 2019   7.318  -0.048   4.849
  504EOH      C 2020   7.294   0.040   4.973
  504EOH      H 2021   7.239   0.077   4.724
  505EOH      O 2022   2.935   5.793   6.620
  505EOH      C 2023   2.925   5.741   6.753
  505EOH      C 2024   2.868   5.598   6.746
  505EOH      H 2025   3.026   5.808   6.599
  506EOH      O 2026   4.210   2.552   1.184
  506EOH      C 2027   4.347   2.541   1.144
  506EOH      C 2028   4.356   2.478   1.004
  506EOH      H 2029   4.167   2.615   1.128
  507EOH      O 2030   6.366   4.111   7.771
  507EOH      C 2031   6.342   4.070   7.636
  507EOH      C 2032   6.404   4.172   7.538
  507EOH      H 2033   6.452   4.149   7.774
  508EOH      O 2034   5.114   0.028   0.773
  508EOH      C 2035   5.080  -0.049   0.889
  508EOH      C 2036   5.169  -0.174   0.897
  508EOH      H 2037   5.208   0.041   0.773
  509EOH      O 2038   7.447   2.088   5.427
  509EOH      C 2039   7.571   2.082   5.356
  509EOH      C 2040   7.570   1.962   5.260
  509EOH      H 2041   7.386   2.138   5.376
  510EOH      O 2042   1.574   2.734   4.925
  510EOH      C 2043   1.436   2.757   4.954
  510EOH      C 2044   1.404   2.908   4.947
  510EOH      H 2045   1.582   2.648   4.888
  511EOH      O 2046   5.073   7.636   2.277
  511EOH      C 2047   4.952   7.645   2.352
  511EOH      C 2048   4.838   7.695   2.261
  511EOH      H 2049   5.062   7.571   2.209
  512EOH      O 2050   1.242   6.789   2.080
  512EOH      C 2051   1.381   6.768   2.108
  512EOH      C 2052   1.426   6.635   2.044
  512EOH      H 2053   1.217   6.873   2.116
  513EOH      O 2054   2.233   7.125   5.236
  513EOH      C 2055   2.221   7.165   5.099
  513EOH      C 2056   2.095   7.252   5.082
  513EOH      H 2057   2.284   7.191   5.281
  514EOH      O 2058   4.666   5.247   1.113
  514EOH      C 2059   4.781   5.207   1.039
  514EOH      C 2060   4.831   5.072   1.093
  514EOH      H 2061   4.589   5.211   1.070
  515EOH      O 2062   4.290   5.749   3.273
  515EOH      C 2063   4.162   5.687   3.285
  515EOH      C 2064   4.108   5.648   3.146
  515EOH      H 2065   4.355   5.682   3.285
  516EOH      O 2066   2.400   2.000   5.511
  516EOH      C 2067   2.297   2.098   5.530
  516EOH      C 2068   2.183   2.038   5.613
  516EOH      H 2069   2.420   1.962   5.596
  517EOH      O 2070   1.691   7.834   0.820
  517EOH      C 2071   1.569   7.859   0.749
  517EOH      C 2072   1.518   7.727   0.690
  517EOH      H 2073   1.723   7.916   0.855
  518EOH      O 2074   5.830   5.130   5.693
  518EOH      C 2075   5.949   5.078   5.752
  518EOH      C 2076   6.071   5.148   5.689
  518EOH      H 2077   5.757   5.107   5.750
  519EOH      O 2078   1.450   6.188   4.519
  519EOH      C 2079   1.396   6.298   4.592
  519EOH      C 2080   1.445   6.430   4.530
  519EOH      H 2081   1.403   6.179   4.438
  520EOH      O 2082   7.651   2.013   4.466
  520EOH      C 2083   7.665   1.871   4.479
  520EOH      C 2084   7.771   1.841   4.587
  520EOH      H 2085   7.584   2.042   4.526
  521EOH      O 2086   2.398   2.445   3.921
  521EOH      C 2087   2.531   2.462   3.971
  521EOH      C 2088   2.631   2.405   3.869
  521EOH      H 2089   2.387   2.502   3.847
  522EOH      O 2090   3.321   4.111   0.557
  522EOH      C 2091   3.278   4.219   0.641
  522EOH      C 2092   3.225   4.161   0.774
  522EOH      H 2093   3.394   4.067   0.598
  523EOH      O 2094   7.121   7.517   3.522
  523EOH      C 2095   7.022   7.542   3.422
  523EOH      C 2096   7.076   7.645   3.320
  523EOH      H 2097   7.190   7.466   3.482
  524EOH      O 2098   4.993   6.345   4.563
  524EOH      C 2099   5.037   6.215   4.605
  524EOH      C 2100   5.187   6.204   4.573
  524EOH      H 2101   5.027   6.358   4.476
  525EOH      O 2102   3.274   4.218   7.341
  525EOH      C 2103   3.409   4.212   7.293
  525EOH      C 2104   3.490   4.115   7.381
  525EOH      H 2105   3.227   4.143   7.308
  526EOH      O 2106   6.497   6.923   7.790
  526EOH      C 2107   6.370   6.976   7.749
  526EOH      C 2108   6.280   6.860   7.704
  526EOH      H 2109   6.555   6.995   7.811
  527EOH      O 2110   0.880   2.391   0.084
  527EOH      C 2111   0.957   2.478   0.001
  527EOH      C 2112   1.091   2.507   0.070
  527EOH      H 2113   0.907   2.302   0.067
  528EOH      O 2114   6.998   5.682   5.729
  528EOH      C 2115   6.921   5.569   5.773
  528EOH      C 2116   6.910   5.467   5.658
  528EOH      H 2117   6.954   5.722   5.656
  529EOH      O 2118   6.461   2.911   7.452
  529EOH      C 2119   6.524   2.825   7.547
  529EOH      C 2120   6.677   2.831   7.533
  529EOH      H 2121   6.368   2.909   7.468
  530EOH      O 2122   5.389   4.677   5.292
  530EOH      C 2123   5.444   4.568   5.218
  530EOH      C 2124   5.578   4.612   5.155
  530EOH      H 2125   5.436   4.683   5.374
  531EOH      O 2126   4.025   2.473   7.368
  531EOH      C 2127   3.993   2.612   7.357
  531EOH      C 2128   4.116   2.696   7.395
  531EOH      H 2129   4.065   2.446   7.287
  532EOH      O 2130   7.474   2.216   0.355
  532EOH      C 2131   7.348   2.273   0.391
  532EOH      C 2132   7.364   2.347   0.525
  532EOH      H 2133   7.539   2.284   0.362
  533EOH      O 2134   5.303   1.118   2.298
  533EOH      C 2135   5.213   1.224   2.332
  533EOH      C 2136   5.095   1.166   2.411
  533EOH      H 2137   5.350   1.093   2.376
  534EOH      O 2138   1.211   6.358   7.568
  534EOH      C 2139   1.139   6.313   7.453
  534EOH      C 2140   1.014   6.236   7.500
  534EOH      H 2141   1.188   6.448   7.583
  535EOH      O 2142   3.975   3.916   7.365
  535EOH      C 2143   3.877   3.847   7.442
  535EOH      C 2144   3.946   3.767   7.554
  535EOH      H 2145   4.022   3.975   7.422
  536EOH      O 2146   3.626   7.032   1.826
  536EOH      C 2147   3.582   7.063   1.958
  536EOH      C 2148   3.466   7.163   1.950
  536EOH      H 2149   3.566   6.969   1.790
  537EOH      O 2150   1.692   1.413   5.263
  537EOH      C 2151   1.665   1.276   5.293
  537EOH      C 2152   1.797   1.200   5.315
  537EOH      H 2153   1.728   1.453   5.341
  538EOH      O 2154   7.197   6.632   5.538
  538EOH      C 2155   7.267   6.524   5.599
  538EOH      C 2156   7.225   6.390   5.535
  538EOH      H 2157   7.230   6.646   5.450
  539EOH      O 2158   5.598   2.527   2.263
  539EOH      C 2159   5.488   2.575   2.186
  539EOH      C 2160   5.378   2.626   2.281
  539EOH      H 2161   5.651   2.601   2.288
  540EOH      O 2162   1.988   2.392   2.502
  540EOH      C 2163   2.082   2.327   2.416
  540EOH      C 2164   2.038   2.342   2.269
  540EOH      H 2165   2.021   2.478   2.521
  541EOH      O 2166   4.539   7.104   5.647
  541EOH      C 2167   4.418   7.157   5.592
  541EOH      C 2168   4.301   7.132   5.689
  541EOH      H 2169   4.563   7.155   5.723
  542EOH      O 2170   2.117   7.668   7.683
  542EOH      C 2171   2.160   7.799   7.721
  542EOH      C 2172   2.265   7.787   7.833
  542EOH      H 2173   2.194   7.618   7.661
  543EOH      O 2174   2.971   2.696   1.412
  543EOH      C 2175   3.073   2.652   1.323
  543EOH      C 2176   3.209   2.709   1.367
  543EOH      H 2177   2.992   2.661   1.498
  544EOH      O 2178   6.726   0.668   7.739
  544EOH      C 2179   6.590   0.645   7.777
  544EOH      C 2180   6.563   0.493   7.779
  544EOH      H 2181   6.781   0.642   7.811
  545EOH      O 2182   3.139   6.515   5.308
  545EOH      C 2183   3.211   6.573   5.199
  545EOH      C 2184   3.112   6.650   5.110
  545EOH      H 2185   3.199   6.469   5.364
  546EOH      O 2186   0.934   1.614   5.348
  546EOH      C 2187   1.067   1.663   5.365
  546EOH      C 2188   1.105   1.740   5.237
  546EOH      H 2189   0.889   1.679   5.296
  547EOH      O 2190   3.396   3.088   0.952
  547EOH      C 2191   3.417   3.221   1.001
  547EOH      C 2192   3.339   3.320   0.912
  547EOH      H 2193   3.303   3.072   0.951
  548EOH      O 2194   0.259   3.755   2.789
  548EOH      C 2195   0.396   3.795   2.792
  548EOH      C 2196   0.438   3.815   2.938
  548EOH      H 2197   0.256   3.660   2.786
  549EOH      O 2198   7.861   2.502   5.096
  549EOH      C 2199   7.950   2.523   5.207
  549EOH      C 2200   8.073   2.602   5.159
  549EOH      H 2201   7.823   2.585   5.073
  550EOH      O 2202   1.043   7.138   4.119
  550EOH      C 2203   0.963   7.095   4.009
  550EOH      C 2204   1.036   6.982   3.934
  550EOH      H 2205   0.991   7.199   4.169
  551EOH      O 2206   0.512   6.599   4.587
  551EOH      C 2207   0.612   6.698   4.559
  551EOH      C 2208   0.565   6.835   4.612
  551EOH      H 2209   0.513   6.581   4.680
  552EOH      O 2210   7.418   3.401   5.072
  552EOH      C 2211   7.405   3.288   4.986
  552EOH      C 2212   7.343   3.332   4.852
  552EOH      H 2213   7.448   3.371   5.156
  553EOH      O 2214   6.869   0.173   2.815
  553EOH      C 2215   6.898   0.280   2.725
  553EOH      C 2216   7.043   0.329   2.748
  553EOH      H 2217   6.911   0.095   2.783
  554EOH      O 2218   4.118   6.627   1.333
  554EOH      C 2219   4.211   6.667   1.232
  554EOH      C 2220   4.314   6.764   1.295
  554EOH      H 2221   4.159   6.563   1.389
  555EOH      O 2222   4.618   5.934   1.509
  555EOH      C 2223   4.526   5.949   1.618
  555EOH      C 2224   4.393   6.008   1.564
  555EOH      H 2225   4.597   5.854   1.463
  556EOH      O 2226   6.717   0.281   7.456
  556EOH      C 2227   6.707   0.327   7.321
  556EOH      C 2228   6.764   0.218   7.228
  556EOH      H 2229   6.643   0.316   7.504
  557EOH      O 2230   0.581   0.130   3.612
  557EOH      C 2231   0.596  -0.010   3.639
  557EOH      C 2232   0.461  -0.082   3.618
  557EOH      H 2233   0.666   0.170   3.611
  558EOH      O 2234   1.988   2.629   4.813
  558EOH      C 2235   1.900   2.547   4.737
  558EOH      C 2236   1.807   2.469   4.831
  558EOH      H 2237   1.936   2.691   4.863
  559EOH      O 2238   6.196   4.081   2.201
  559EOH      C 2239   6.296   4.183   2.192
  559EOH      C 2240   6.255   4.303   2.280
  559EOH      H 2241   6.236   3.999   2.180
  560EOH      O 2242   5.999   6.735   7.240
  560EOH      C 2243   6.124   6.701   7.302
  560EOH      C 2244   6.125   6.551   7.336
  560EOH      H 2245   5.991   6.685   7.160
  561EOH      O 2246   0.016   6.214   7.815
  561EOH      C 2247   0.058   6.163   7.687
  561EOH      C 2248   0.046   6.010   7.685
  561EOH      H 2249  -0.072   6.184   7.831
  562EOH      O 2250   1.192   6.820   7.407
  562EOH      C 2251   1.318   6.886   7.421
  562EOH      C 2252   1.313   6.986   7.538
  562EOH      H 2253   1.196   6.764   7.332
  563EOH      O 2254   1.931   3.961   3.490
  563EOH      C 2255   1.812   3.883   3.475
  563EOH      C 2256   1.712   3.923   3.586
  563EOH      H 2257   1.913   4.049   3.461
  564EOH      O 2258   6.836   2.867   4.393
  564EOH      C 2259   6.806   2.729   4.375
  564EOH      C 2260   6.935   2.650   4.345
  564EOH      H 2261   6.909   2.877   4.453
  565EOH      O 2262   6.057   2.454   5.775
  565EOH      C 2263   6.187   2.405   5.742
  565EOH      C 2264   6.173   2.274   5.661
  565EOH      H 2265   6.013   2.476   5.694
  566EOH      O 2266   6.130   7.727   2.404
  566EOH      C 2267   6.180   7.595   2.381
  566EOH      C 2268   6.320   7.581   2.444
  566EOH      H 2269   6.133   7.742   2.497
  567EOH      O 2270   7.473   6.290   5.238
  567EOH      C 2271   7.505   6.232   5.111
  567EOH      C 2272   7.524   6.080   5.126
  567EOH      H 2273   7.386   6.261   5.262
  568EOH      O 2274   4.792   2.333   1.554
  568EOH      C 2275   4.896   2.416   1.607
  568EOH      C 2276   4.921   2.533   1.511
  568EOH      H 2277   4.710   2.378   1.565
  569EOH      O 2278   5.212   5.396   3.782
  569EOH      C 2279   5.354   5.407   3.789
  569EOH      C 2280   5.394   5.501   3.903
  569EOH      H 2281   5.183   5.333   3.847
  570EOH      O 2282   6.462   4.245   1.856
  570EOH      C 2283   6.401   4.192   1.738
  570EOH      C 2284   6.328   4.062   1.774
  570EOH      H 2285   6.407   4.314   1.889
  571EOH      O 2286   1.370   3.361   4.302
  571EOH      C 2287   1.487   3.337   4.224
  571EOH      C 2288   1.446   3.327   4.076
  571EOH      H 2289   1.324   3.433   4.262
  572EOH      O 2290   6.901   3.543   7.514
  572EOH      C 2291   7.018   3.462   7.526
  572EOH      C 2292   7.142   3.548   7.497
  572EOH      H 2293   6.824   3.489   7.527
  573EOH      O 2294   3.803   1.361   3.171
  573EOH      C 2295   3.686   1.420   3.227
  573EOH      C 2296   3.574   1.424   3.121
  573EOH      H 2297   3.788   1.268   3.162
  574EOH      O 2298   7.093   7.162   4.448
  574EOH      C 2299   6.961   7.204   4.411
  574EOH      C 2300   6.857   7.116   4.483
  574EOH      H 2301   7.153   7.215   4.398
  575EOH      O 2302   1.560   0.793   3.249
  575EOH      C 2303   1.645   0.907   3.237
  575EOH      C 2304   1.577   1.029   3.302
  575EOH      H 2305   1.541   0.778   3.341
  576EOH      O 2306   1.490   7.483   0.927
  576EOH      C 2307   1.588   7.380   0.934
  576EOH      C 2308   1.602   7.313   0.797
  576EOH      H 2309   1.531   7.561   0.892
  577EOH      O 2310   6.657   2.815   0.318
  577EOH      C 2311   6.690   2.736   0.432
  577EOH      C 2312   6.714   2.591   0.387
  577EOH      H 2313   6.716   2.888   0.315
  578EOH      O 2314   2.105   0.478   0.663
  578EOH      C 2315   2.188   0.373   0.613
  578EOH      C 2316   2.193   0.381   0.460
  578EOH      H 2317   2.149   0.560   0.649
  579EOH      O 2318   5.228   3.708   6.333
  579EOH      C 2319   5.343   3.790   6.350
  579EOH      C 2320   5.300   3.937   6.366
  579EOH      H 2321   5.177   3.712   6.413
  580EOH      O 2322   3.664   7.468   4.662
  580EOH      C 2323   3.795   7.436   4.708
  580EOH      C 2324   3.830   7.529   4.826
  580EOH      H 2325   3.607   7.396   4.685
  581EOH      O 2326   1.401   0.597   1.676
  581EOH      C 2327   1.475   0.506   1.758
  581EOH      C 2328   1.525   0.387   1.674
  581EOH      H 2329   1.462   0.647   1.624
  582EOH      O 2330   5.769   1.384   1.515
  582EOH      C 2331   5.871   1.346   1.607
  582EOH      C 2332   5.979   1.266   1.533
  582EOH      H 2333   5.805   1.447   1.455
  583EOH      O 2334   3.557   4.241   6.130
  583EOH      C 2335   3.507   4.118   6.077
  583EOH      C 2336   3.353   4.119   6.074
  583EOH      H 2337   3.535   4.310   6.070
  584EOH      O 2338   4.837   4.697   5.558
  584EOH      C 2339   4.901   4.765   5.450
  584EOH      C 2340   4.920   4.669   5.331
  584EOH      H 2341   4.744   4.690   5.540
  585EOH      O 2342   2.089   0.816   7.332
  585EOH      C 2343   2.026   0.702   7.391
  585EOH      C 2344   1.937   0.632   7.286
  585EOH      H 2345   2.103   0.880   7.399
  586EOH      O 2346   4.922   4.025   6.044
  586EOH      C 2347   4.850   3.982   5.929
  586EOH      C 2348   4.943   3.988   5.806
  586EOH      H 2349   4.949   3.949   6.093
  587EOH      O 2350   5.864   3.763   6.410
  587EOH      C 2351   5.730   3.788   6.452
  587EOH      C 2352   5.718   3.932   6.504
  587EOH      H 2353   5.883   3.818   6.335
  588EOH      O 2354   5.068   1.624   6.403
  588EOH      C 2355   4.966   1.546   6.465
  588EOH      C 2356   4.918   1.616   6.594
  588EOH      H 2357   5.052   1.714   6.425
  589EOH      O 2358   2.167   2.708   6.033
  589EOH      C 2359   2.231   2.801   6.120
  589EOH      C 2360   2.243   2.938   6.050
  589EOH      H 2361   2.075   2.729   6.029
  590EOH      O 2362   4.076   4.981   7.051
  590EOH      C 2363   4.029   5.116   7.063
  590EOH      C 2364   4.132   5.204   7.135
  590EOH      H 2365   4.136   4.978   6.979
  591EOH      O 2366   0.727   3.741   7.477
  591EOH      C 2367   0.860   3.771   7.522
  591EOH      C 2368   0.962   3.682   7.449
  591EOH      H 2369   0.720   3.769   7.387
  592EOH      O 2370   7.378   7.325   0.371
  592EOH      C 2371   7.416   7.449   0.431
  592EOH      C 2372   7.373   7.564   0.338
  592EOH      H 2373   7.336   7.272   0.436
  593EOH      O 2374   6.782   4.080   0.233
  593EOH      C 2375   6.841   4.006   0.126
  593EOH      C 2376   6.792   3.860   0.132
  593EOH      H 2377   6.701   4.118   0.202
  594EOH      O 2378   7.597   3.981   2.288
  594EOH      C 2379   7.636   3.848   2.324
  594EOH      C 2380   7.701   3.779   2.202
  594EOH      H 2381   7.541   4.015   2.356
  595EOH      O 2382   7.546   6.508   1.122
  595EOH      C 2383   7.532   6.536   1.262
  595EOH      C 2384   7.512   6.405   1.340
  595EOH      H 2385   7.547   6.591   1.077
  596EOH      O 2386   3.213   0.072   1.115
  596EOH      C 2387   3.323   0.112   1.197
  596EOH      C 2388   3.293   0.076   1.344
  596EOH      H 2389   3.236  -0.010   1.074
  597EOH      O 2390   1.864   7.466   1.723
  597EOH      C 2391   2.004   7.459   1.752
  597EOH      C 2392   2.084   7.485   1.623
  597EOH      H 2393   1.838   7.556   1.733
  598EOH      O 2394   4.966   7.107   3.715
  598EOH      C 2395   4.909   7.220   3.649
  598EOH      C 2396   4.846   7.177   3.515
  598EOH      H 2397   4.895   7.065   3.761
  599EOH      O 2398   6.973   6.306   5.330
  599EOH      C 2399   6.895   6.188   5.351
  599EOH      C 2400   6.787   6.218   5.457
  599EOH      H 2401   6.918   6.381   5.342
  600EOH      O 2402   2.809   5.764   2.502
  600EOH      C 2403   2.756   5.710   2.623
  600EOH      C 2404   2.763   5.815   2.735
  600EOH      H 2405   2.759   5.841   2.479
  601EOH      O 2406   5.032   5.514   4.594
  601EOH      C 2407   5.036   5.620   4.690
  601EOH      C 2408   4.937   5.589   4.804
  601EOH      H 2409   5.094   5.532   4.526
  602EOH      O 2410   7.355   3.486   4.070
  602EOH      C 2411   7.214   3.486   4.090
  602EOH      C 2412   7.144   3.425   3.966
  602EOH      H 2413   7.390   3.401   4.091
  603EOH      O 2414   0.038   3.050   0.599
  603EOH      C 2415  -0.104   3.043   0.608
  603EOH      C 2416  -0.151   2.897   0.595
  603EOH      H 2417   0.065   3.137   0.622
  604EOH      O 2418   0.334   0.519   5.722
  604EOH      C 2419   0.468   0.543   5.680
  604EOH      C 2420   0.557   0.424   5.720
  604EOH      H 2421   0.298   0.452   5.666
  605EOH      O 2422   5.108   3.402   3.303
  605EOH      C 2423   5.250   3.408   3.286
  605EOH      C 2424   5.321   3.378   3.419
  605EOH      H 2425   5.083   3.311   3.308
  606EOH      O 2426   0.819   5.830   7.144
  606EOH      C 2427   0.900   5.866   7.256
  606EOH      C 2428   0.925   5.741   7.343
  606EOH      H 2429   0.876   5.830   7.068
  607EOH      O 2430   2.339   4.088   1.685
  607EOH      C 2431   2.260   4.020   1.784
  607EOH      C 2432   2.167   3.919   1.714
  607EOH      H 2433   2.428   4.057   1.694
  608EOH      O 2434   1.475   1.161   6.470
  608EOH      C 2435   1.438   1.278   6.397
  608EOH      C 2436   1.564   1.340   6.335
  608EOH      H 2437   1.503   1.096   6.407
  609EOH      O 2438   6.227   2.943   3.963
  609EOH      C 2439   6.132   2.977   4.064
  609EOH      C 2440   6.014   2.878   4.060
  609EOH      H 2441   6.237   2.849   3.962
  610EOH      O 2442   1.176   4.575   0.685
  610EOH      C 2443   1.182   4.714   0.655
  610EOH      C 2444   1.281   4.740   0.540
  610EOH      H 2445   1.144   4.530   0.608
  611EOH      O 2446   7.271   3.791   4.751
  611EOH      C 2447   7.315   3.831   4.881
  611EOH      C 2448   7.237   3.753   4.988
  611EOH      H 2449   7.304   3.704   4.736
  612EOH      O 2450   7.410   6.185   1.991
  612EOH      C 2451   7.320   6.227   2.094
  612EOH      C 2452   7.177   6.234   2.035
  612EOH      H 2453   7.496   6.176   2.029
  613EOH      O 2454   6.445   3.550   7.207
  613EOH      C 2455   6.435   3.473   7.087
  613EOH      C 2456   6.428   3.323   7.121
  613EOH      H 2457   6.464   3.639   7.181
  614EOH      O 2458   3.786   4.791   5.912
  614EOH      C 2459   3.690   4.891   5.948
  614EOH      C 2460   3.711   5.014   5.858
  614EOH      H 2461   3.762   4.710   5.956
  615EOH      O 2462   3.538   5.688   7.340
  615EOH      C 2463   3.650   5.600   7.355
  615EOH      C 2464   3.716   5.581   7.217
  615EOH      H 2465   3.571   5.775   7.324
  616EOH      O 2466   6.939   0.905   4.630
  616EOH      C 2467   6.799   0.907   4.656
  616EOH      C 2468   6.750   1.053   4.664
  616EOH      H 2469   6.953   0.921   4.538
  617EOH      O 2470   0.970   1.837   3.343
  617EOH      C 2471   1.079   1.910   3.286
  617EOH      C 2472   1.181   1.945   3.396
  617EOH      H 2473   0.999   1.749   3.362
  618EOH      O 2474   1.348   4.989   1.046
  618EOH      C 2475   1.236   5.078   1.045
  618EOH      C 2476   1.284   5.221   1.079
  618EOH      H 2477   1.414   5.024   0.988
  619EOH      O 2478   7.035   3.764   3.431
  619EOH      C 2479   6.950   3.864   3.488
  619EOH      C 2480   6.812   3.854   3.422
  619EOH      H 2481   7.056   3.701   3.498
  620EOH      O 2482   4.972   5.319   7.215
  620EOH      C 2483   4.848   5.258   7.254
  620EOH      C 2484   4.752   5.258   7.134
  620EOH      H 2485   5.024   5.253   7.172
  621EOH      O 2486   4.769   3.826   7.204
  621EOH      C 2487   4.667   3.916   7.244
  621EOH      C 2488   4.531   3.844   7.249
  621EOH      H 2489   4.844   3.876   7.174
  622EOH      O 2490   7.369   2.888   0.306
  622EOH      C 2491   7.346   3.029   0.316
  622EOH      C 2492   7.481   3.097   0.348
  622EOH      H 2493   7.380   2.865   0.215
  623EOH      O 2494   2.117   6.553   6.763
  623EOH      C 2495   2.129   6.438   6.847
  623EOH      C 2496   2.271   6.381   6.833
  623EOH      H 2497   2.184   6.614   6.788
  624EOH      O 2498   5.568   4.241   4.561
  624EOH      C 2499   5.464   4.277   4.470
  624EOH      C 2500   5.420   4.154   4.389
  624EOH      H 2501   5.536   4.172   4.617
  625EOH      O 2502   2.066   3.691   0.721
  625EOH      C 2503   1.966   3.639   0.634
  625EOH      C 2504   1.896   3.520   0.703
  625EOH      H 2505   2.114   3.758   0.675
  626EOH      O 2506   5.587   6.390   0.901
  626EOH      C 2507   5.610   6.454   0.775
  626EOH      C 2508   5.595   6.350   0.662
  626EOH      H 2509   5.562   6.455   0.964
  627EOH      O 2510   5.429   5.645   2.436
  627EOH      C 2511   5.506   5.735   2.516
  627EOH      C 2512   5.622   5.794   2.433
  627EOH      H 2513   5.357   5.693   2.400
  628EOH      O 2514   2.190   3.300   1.225
  628EOH      C 2515   2.054   3.317   1.184
  628EOH      C 2516   2.039   3.278   1.036
  628EOH      H 2517   2.209   3.208   1.227
  629EOH      O 2518   6.712   0.565   0.222
  629EOH      C 2519   6.662   0.630   0.338
  629EOH      C 2520   6.508   0.618   0.343
  629EOH      H 2521   6.698   0.472   0.232
  630EOH      O 2522   4.193   6.549   2.634
  630EOH      C 2523   4.102   6.634   2.705
  630EOH      C 2524   4.180   6.744   2.780
  630EOH      H 2525   4.141   6.484   2.590
  631EOH      O 2526   1.576   5.348   4.017
  631EOH      C 2527   1.658   5.387   3.907
  631EOH      C 2528   1.795   5.436   3.959
  631EOH      H 2529   1.620   5.278   4.062
  632EOH      O 2530   0.563   1.501   4.274
  632EOH      C 2531   0.493   1.473   4.395
  632EOH      C 2532   0.344   1.451   4.364
  632EOH      H 2533   0.545   1.591   4.252
  633EOH      O 2534   6.939   7.848   2.723
  633EOH      C 2535   7.041   7.784   2.645
  633EOH      C 2536   7.150   7.729   2.740
  633EOH      H 2537   6.856   7.819   2.690
  634EOH      O 2538   3.845   7.106   5.549
  634EOH      C 2539   3.833   7.149   5.685
  634EOH      C 2540   3.687   7.130   5.732
  634EOH      H 2541   3.829   7.013   5.546
  635EOH      O 2542   2.879   3.434   5.782
  635EOH      C 2543   2.904   3.310   5.850
  635EOH      C 2544   3.006   3.227   5.770
  635EOH      H 2545   2.958   3.486   5.785
  636EOH      O 2546   2.090   3.642   1.928
  636EOH      C 2547   1.984   3.556   1.885
  636EOH      C 2548   2.012   3.413   1.935
  636EOH      H 2549   2.066   3.679   2.011
  637EOH      O 2550   5.010   6.570   2.851
  637EOH      C 2551   4.944   6.608   2.730
  637EOH      C 2552   4.795   6.573   2.740
  637EOH      H 2553   4.983   6.629   2.919
  638EOH      O 2554   1.081   2.118   0.735
  638EOH      C 2555   1.167   2.130   0.849
  638EOH      C 2556   1.211   1.990   0.895
  638EOH      H 2557   1.135   2.091   0.663
  639EOH      O 2558   4.892   4.131   3.267
  639EOH      C 2559   4.970   4.183   3.375
  639EOH      C 2560   4.929   4.114   3.507
  639EOH      H 2561   4.905   4.037   3.264
  640EOH      O 2562   1.484   3.763   4.288
  640EOH      C 2563   1.478   3.903   4.315
  640EOH      C 2564   1.483   3.983   4.183
  640EOH      H 2565   1.473   3.718   4.370
  641EOH      O 2566   5.650   0.512   3.614
  641EOH      C 2567   5.651   0.466   3.749
  641EOH      C 2568   5.668   0.313   3.753
  641EOH      H 2569   5.725   0.476   3.569
  642EOH      O 2570   5.141   6.577   3.370
  642EOH      C 2571   5.180   6.671   3.269
  642EOH      C 2572   5.068   6.775   3.250
  642EOH      H 2573   5.127   6.624   3.451
  643EOH      O 2574   4.118   2.777   4.390
  643EOH      C 2575   4.250   2.830   4.392
  643EOH      C 2576   4.243   2.982   4.365
  643EOH      H 2577   4.068   2.818   4.459
  644EOH      O 2578   7.895   6.545   6.958
  644EOH      C 2579   7.805   6.436   6.978
  644EOH      C 2580   7.702   6.473   7.086
  644EOH      H 2581   7.849   6.612   6.909
  645EOH      O 2582   3.036   7.253   4.320
  645EOH      C 2583   3.162   7.186   4.310
  645EOH      C 2584   3.174   7.118   4.172
  645EOH      H 2585   3.050   7.346   4.306
  646EOH      O 2586   2.037   0.756   5.778
  646EOH      C 2587   1.937   0.655   5.770
  646EOH      C 2588   1.966   0.564   5.649
  646EOH      H 2589   2.121   0.713   5.788
  647EOH      O 2590   3.438   0.779   0.297
  647EOH      C 2591   3.467   0.890   0.211
  647EOH      C 2592   3.613   0.880   0.162
  647EOH      H 2593   3.428   0.702   0.244
  648EOH      O 2594   2.646   4.710   6.357
  648EOH      C 2595   2.675   4.841   6.307
  648EOH      C 2596   2.828   4.858   6.293
  648EOH      H 2597   2.552   4.698   6.353
  649EOH      O 2598   1.059   4.613   5.751
  649EOH      C 2599   1.048   4.752   5.783
  649EOH      C 2600   0.899   4.787   5.797
  649EOH      H 2601   1.024   4.564   5.823
  650EOH      O 2602   2.359   5.990   6.588
  650EOH      C 2603   2.220   6.006   6.561
  650EOH      C 2604   2.146   6.051   6.689
  650EOH      H 2605   2.388   6.069   6.632
  651EOH      O 2606   6.526   6.105   4.454
  651EOH      C 2607   6.539   5.987   4.375
  651EOH      C 2608   6.663   5.907   4.420
  651EOH      H 2609   6.503   6.079   4.542
  652EOH      O 2610   7.227   5.686   0.754
  652EOH      C 2611   7.090   5.647   0.746
  652EOH      C 2612   7.062   5.583   0.609
  652EOH      H 2613   7.280   5.618   0.716
  653EOH      O 2614   0.611   2.982   0.422
  653EOH      C 2615   0.753   2.992   0.409
  653EOH      C 2616   0.811   3.068   0.531
  653EOH      H 2617   0.590   2.896   0.453
  654EOH      O 2618   7.804   4.184   7.767
  654EOH      C 2619   7.879   4.077   7.710
  654EOH      C 2620   8.024   4.082   7.764
  654EOH      H 2621   7.797   4.170   7.860
  655EOH      O 2622   6.107   1.943   0.098
  655EOH      C 2623   6.198   2.030   0.030
  655EOH      C 2624   6.343   1.982   0.052
  655EOH      H 2625   6.022   1.984   0.096
  656EOH      O 2626   3.574   5.183   6.871
  656EOH      C 2627   3.710   5.142   6.854
  656EOH      C 2628   3.791   5.256   6.789
  656EOH      H 2629   3.574   5.271   6.905
  657EOH      O 2630   6.654   7.208   4.961
  657EOH      C 2631   6.519   7.165   4.942
  657EOH      C 2632   6.495   7.133   4.793
  657EOH      H 2633   6.710   7.132   4.969
  658EOH      O 2634   6.850   0.359   6.518
  658EOH      C 2635   6.714   0.316   6.515
  658EOH      C 2636   6.705   0.163   6.523
  658EOH      H 2637   6.850   0.453   6.505
  659EOH      O 2638   4.465   0.376   3.599
  659EOH      C 2639   4.379   0.280   3.536
  659EOH      C 2640   4.389   0.296   3.384
  659EOH      H 2641   4.552   0.364   3.565
  660EOH      O 2642   3.376   2.760   2.910
  660EOH      C 2643   3.351   2.901   2.921
  660EOH      C 2644   3.228   2.940   2.837
  660EOH      H 2645   3.296   2.716   2.935
  661EOH      O 2646   1.667   5.561   0.221
  661EOH      C 2647   1.774   5.637   0.278
  661EOH      C 2648   1.900   5.619   0.193
  661EOH      H 2649   1.585   5.598   0.252
  662EOH      O 2650   2.059   2.149   4.316
  662EOH      C 2651   2.052   2.265   4.399
  662EOH      C 2652   2.022   2.222   4.544
  662EOH      H 2653   2.137   2.101   4.338
  663EOH      O 2654   6.771   3.833   3.805
  663EOH      C 2655   6.770   3.711   3.879
  663EOH      C 2656   6.653   3.624   3.831
  663EOH      H 2657   6.850   3.880   3.828
  664EOH      O 2658   1.847   5.985   1.666
  664EOH      C 2659   1.909   5.957   1.540
  664EOH      C 2660   1.809   5.881   1.451
  664EOH      H 2661   1.772   6.039   1.649
  665EOH      O 2662   1.379   0.973   5.518
  665EOH      C 2663   1.339   1.098   5.462
  665EOH      C 2664   1.376   1.212   5.557
  665EOH      H 2665   1.473   0.976   5.533
  666EOH      O 2666   5.426   0.704   0.774
  666EOH      C 2667   5.557   0.682   0.721
  666EOH      C 2668   5.636   0.591   0.818
  666EOH      H 2669   5.376   0.624   0.761
  667EOH      O 2670   6.160   2.662   2.516
  667EOH      C 2671   6.052   2.631   2.427
  667EOH      C 2672   5.921   2.682   2.489
  667EOH      H 2673   6.235   2.686   2.465
  668EOH      O 2674   0.767   4.322   6.417
  668EOH      C 2675   0.716   4.320   6.283
  668EOH      C 2676   0.568   4.363   6.285
  668EOH      H 2677   0.754   4.408   6.452
  669EOH      O 2678   4.385   1.407   4.604
  669EOH      C 2679   4.260   1.446   4.546
  669EOH      C 2680   4.238   1.597   4.567
  669EOH      H 2681   4.382   1.313   4.617
  670EOH      O 2682   0.962   5.946   2.456
  670EOH      C 2683   1.094   6.000   2.457
  670EOH      C 2684   1.160   5.971   2.593
  670EOH      H 2685   0.968   5.852   2.466
  671EOH      O 2686   5.428   1.149   3.336
  671EOH      C 2687   5.560   1.123   3.286
  671EOH      C 2688   5.616   0.996   3.354
  671EOH      H 2689   5.370   1.083   3.302
  672EOH      O 2690   0.036   2.526   7.382
  672EOH      C 2691   0.155   2.498   7.308
  672EOH      C 2692   0.274   2.484   7.404
  672EOH      H 2693  -0.038   2.520   7.323
  673EOH      O 2694   4.715   2.907   6.882
  673EOH      C 2695   4.788   2.953   6.997
  673EOH      C 2696   4.887   3.062   6.954
  673EOH      H 2697   4.658   2.837   6.910
  674EOH      O 2698   4.668   4.409   4.858
  674EOH      C 2699   4.573   4.306   4.883
  674EOH      C 2700   4.628   4.171   4.833
  674EOH      H 2701   4.739   4.401   4.921
  675EOH      O 2702   0.356   7.175   2.048
  675EOH      C 2703   0.413   7.057   1.992
  675EOH      C 2704   0.348   6.933   2.056
  675EOH      H 2705   0.264   7.176   2.026
  676EOH      O 2706   2.562   3.707   7.414
  676EOH      C 2707   2.498   3.809   7.491
  676EOH      C 2708   2.345   3.791   7.486
  676EOH      H 2709   2.568   3.629   7.467
  677EOH      O 2710   4.027   3.641   3.854
  677EOH      C 2711   3.923   3.546   3.827
  677EOH      C 2712   3.893   3.544   3.676
  677EOH      H 2713   4.110   3.601   3.834
  678EOH      O 2714   6.795   7.108   7.794
  678EOH      C 2715   6.917   7.046   7.837
  678EOH      C 2716   7.023   7.059   7.727
  678EOH      H 2717   6.810   7.201   7.800
  679EOH      O 2718   1.691   0.078   5.640
  679EOH      C 2719   1.554   0.038   5.640
  679EOH      C 2720   1.464   0.158   5.606
  679EOH      H 2721   1.739   0.014   5.590
  680EOH      O 2722   3.146   5.339   7.798
  680EOH      C 2723   3.249   5.417   7.737
  680EOH      C 2724   3.316   5.507   7.843
  680EOH      H 2725   3.122   5.272   7.736
  681EOH      O 2726   5.395   3.553   1.381
  681EOH      C 2727   5.257   3.543   1.343
  681EOH      C 2728   5.249   3.485   1.201
  681EOH      H 2729   5.425   3.468   1.408
  682EOH      O 2730   5.920   1.344   2.760
  682EOH      C 2731   5.853   1.460   2.811
  682EOH      C 2732   5.717   1.475   2.741
  682EOH      H 2733   5.879   1.269   2.801
  683EOH      O 2734   5.997   5.527   6.041
  683EOH      C 2735   5.949   5.459   5.925
  683EOH      C 2736   5.832   5.367   5.965
  683EOH      H 2737   5.933   5.594   6.062
  684EOH      O 2738   7.203   5.387   5.831
  684EOH      C 2739   7.310   5.481   5.842
  684EOH      C 2740   7.366   5.476   5.986
  684EOH      H 2741   7.188   5.370   5.740
  685EOH      O 2742   3.394   3.186   5.998
  685EOH      C 2743   3.274   3.133   6.056
  685EOH      C 2744   3.202   3.243   6.136
  685EOH      H 2745   3.370   3.247   5.930
  686EOH      O 2746   6.949   2.453   4.639
  686EOH      C 2747   7.052   2.354   4.627
  686EOH      C 2748   7.186   2.427   4.606
  686EOH      H 2749   6.967   2.520   4.574
  687EOH      O 2750   3.112   6.078   4.680
  687EOH      C 2751   2.986   6.046   4.739
  687EOH      C 2752   2.893   5.983   4.634
  687EOH      H 2753   3.153   5.998   4.651
  688EOH      O 2754   5.132   5.402   1.112
  688EOH      C 2755   5.211   5.479   1.204
  688EOH      C 2756   5.189   5.426   1.347
  688EOH      H 2757   5.169   5.315   1.110
  689EOH      O 2758   2.815   3.506   1.856
  689EOH      C 2759   2.672   3.507   1.848
  689EOH      C 2760   2.621   3.650   1.874
  689EOH      H 2761   2.849   3.513   1.768
  690EOH      O 2762   6.618   7.550   2.248
  690EOH      C 2763   6.691   7.453   2.324
  690EOH      C 2764   6.693   7.492   2.473
  690EOH      H 2765   6.621   7.523   2.157
  691EOH      O 2766   6.641   4.641   6.852
  691EOH      C 2767   6.586   4.524   6.913
  691EOH      C 2768   6.642   4.400   6.842
  691EOH      H 2769   6.734   4.638   6.862
  692EOH      O 2770   1.674   1.575   4.727
  692EOH      C 2771   1.728   1.693   4.788
  692EOH      C 2772   1.848   1.655   4.878
  692EOH      H 2773   1.607   1.604   4.667
  693EOH      O 2774   1.628   5.818   0.725
  693EOH      C 2775   1.547   5.744   0.817
  693EOH      C 2776   1.528   5.600   0.765
  693EOH      H 2777   1.712   5.774   0.719
  694EOH      O 2778   2.899   6.578   0.233
  694EOH      C 2779   3.018   6.585   0.155
  694EOH      C 2780   3.121   6.483   0.207
  694EOH      H 2781   2.835   6.634   0.192
  695EOH      O 2782   4.115   2.082   4.279
  695EOH      C 2783   4.014   2.066   4.178
  695EOH      C 2784   3.882   2.130   4.226
  695EOH      H 2785   4.136   2.174   4.285
  696EOH      O 2786   2.300   1.628   4.957
  696EOH      C 2787   2.375   1.510   4.982
  696EOH      C 2788   2.441   1.461   4.852
  696EOH      H 2789   2.357   1.693   4.919
  697EOH      O 2790   2.169   0.224   2.861
  697EOH      C 2791   2.229   0.352   2.888
  697EOH      C 2792   2.171   0.457   2.792
  697EOH      H 2793   2.206   0.162   2.922
  698EOH      O 2794   2.106   3.868   4.081
  698EOH      C 2795   2.233   3.821   4.127
  698EOH      C 2796   2.331   3.809   4.009
  698EOH      H 2797   2.118   3.953   4.042
  699EOH      O 2798   5.063   5.047   4.905
  699EOH      C 2799   5.040   5.188   4.901
  699EOH      C 2800   4.908   5.219   4.974
  699EOH      H 2801   5.128   5.025   4.839
  700EOH      O 2802   2.640   5.851   7.880
  700EOH      C 2803   2.543   5.935   7.944
  700EOH      C 2804   2.408   5.862   7.950
  700EOH      H 2805   2.661   5.779   7.937
  701EOH      O 2806   2.824   4.784   2.040
  701EOH      C 2807   2.913   4.823   1.936
  701EOH      C 2808   3.057   4.832   1.990
  701EOH      H 2809   2.823   4.690   2.044
  702EOH      O 2810   1.309   3.627   4.133
  702EOH      C 2811   1.181   3.673   4.176
  702EOH      C 2812   1.135   3.794   4.093
  702EOH      H 2813   1.374   3.691   4.158
  703EOH      O 2814   0.066   1.094   3.786
  703EOH      C 2815  -0.056   1.098   3.712
  703EOH      C 2816  -0.059   0.984   3.609
  703EOH      H 2817   0.051   1.140   3.867
  704EOH      O 2818   5.013   1.400   1.218
  704EOH      C 2819   4.916   1.469   1.298
  704EOH      C 2820   4.788   1.385   1.307
  704EOH      H 2821   5.096   1.444   1.229
  705EOH      O 2822   3.512   6.704   4.623
  705EOH      C 2823   3.559   6.784   4.731
  705EOH      C 2824   3.444   6.807   4.831
  705EOH      H 2825   3.503   6.615   4.655
  706EOH      O 2826   1.508   2.735   3.607
  706EOH      C 2827   1.641   2.773   3.642
  706EOH      C 2828   1.706   2.842   3.521
  706EOH      H 2829   1.469   2.807   3.560
  707EOH      O 2830   4.494   0.742   4.178
  707EOH      C 2831   4.547   0.857   4.113
  707EOH      C 2832   4.635   0.815   3.994
  707EOH      H 2833   4.428   0.703   4.122
  708EOH      O 2834   2.888   1.212   4.711
  708EOH      C 2835   3.002   1.131   4.739
  708EOH      C 2836   3.109   1.157   4.632
  708EOH      H 2837   2.914   1.302   4.714
  709EOH      O 2838   6.662   7.206   0.791
  709EOH      C 2839   6.588   7.116   0.707
  709EOH      C 2840   6.666   7.092   0.577
  709EOH      H 2841   6.730   7.156   0.834
  710EOH      O 2842   0.165   1.564   5.000
  710EOH      C 2843   0.244   1.476   4.919
  710EOH      C 2844   0.393   1.504   4.945
  710EOH      H 2845   0.191   1.652   4.979
  711EOH      O 2846   0.999   2.357   3.079
  711EOH      C 2847   0.943   2.442   3.179
  711EOH      C 2848   0.867   2.357   3.283
  711EOH      H 2849   1.047   2.288   3.122
  712EOH      O 2850   5.152   7.228   6.446
  712EOH      C 2851   5.044   7.135   6.435
  712EOH      C 2852   5.091   7.010   6.358
  712EOH      H 2853   5.127   7.291   6.512
  713EOH      O 2854   1.033   4.782   2.547
  713EOH      C 2855   1.166   4.729   2.558
  713EOH      C 2856   1.254   4.826   2.639
  713EOH      H 2857   0.975   4.711   2.527
  714EOH      O 2858   7.158   0.582   5.007
  714EOH      C 2859   7.236   0.525   4.901
  714EOH      C 2860   7.332   0.421   4.960
  714EOH      H 2861   7.067   0.571   4.985
  715EOH      O 2862   4.978   7.006   5.941
  715EOH      C 2863   5.007   7.133   5.881
  715EOH      C 2864   5.116   7.203   5.964
  715EOH      H 2865   5.036   6.943   5.902
  716EOH      O 2866   4.473   7.335   4.366
  716EOH      C 2867   4.611   7.331   4.402
  716EOH      C 2868   4.698   7.345   4.275
  716EOH      H 2869   4.458   7.416   4.319
  717EOH      O 2870   0.352   7.350   5.714
  717EOH      C 2871   0.414   7.305   5.835
  717EOH      C 2872   0.360   7.386   5.954
  717EOH      H 2873   0.404   7.317   5.642
  718EOH      O 2874   7.432   0.437   6.006
  718EOH      C 2875   7.554   0.438   6.081
  718EOH      C 2876   7.674   0.421   5.987
  718EOH      H 2877   7.360   0.427   6.066
  719EOH      O 2878   3.957   1.218   2.025
  719EOH      C 2879   3.878   1.277   2.129
  719EOH      C 2880   3.729   1.268   2.091
  719EOH      H 2881   4.021   1.163   2.067
  720EOH      O 2882   4.723   2.773   5.173
  720EOH      C 2883   4.722   2.651   5.248
  720EOH      C 2884   4.847   2.568   5.211
  720EOH      H 2885   4.734   2.845   5.233
  721EOH      O 2886   2.802   5.098   7.472
  721EOH      C 2887   2.665   5.108   7.511
  721EOH      C 2888   2.633   5.003   7.619
  721EOH      H 2889   2.824   5.178   7.426
  722EOH      O 2890   2.065   5.755   7.444
  722EOH      C 2891   2.059   5.763   7.301
  722EOH      C 2892   1.914   5.739   7.255
  722EOH      H 2893   2.019   5.830   7.479
  723EOH      O 2894   7.647   5.650   7.891
  723EOH      C 2895   7.790   5.652   7.880
  723EOH      C 2896   7.853   5.574   7.998
  723EOH      H 2897   7.621   5.562   7.913
  724EOH      O 2898   7.692   6.069   4.244
  724EOH      C 2899   7.825   6.070   4.296
  724EOH      C 2900   7.918   6.146   4.199
  724EOH      H 2901   7.661   6.158   4.240
  725EOH      O 2902   1.143   1.025   4.006
  725EOH      C 2903   1.085   1.154   4.026
  725EOH      C 2904   0.939   1.153   3.977
  725EOH      H 2905   1.091   0.961   4.053
  726EOH      O 2906   1.314   7.625   6.120
  726EOH      C 2907   1.264   7.633   5.986
  726EOH      C 2908   1.130   7.556   5.978
  726EOH      H 2909   1.253   7.670   6.177
  727EOH      O 2910   5.400   5.083   3.122
  727EOH      C 2911   5.263   5.069   3.161
  727EOH      C 2912   5.232   4.921   3.187
  727EOH      H 2913   5.453   5.059   3.196
  728EOH      O 2914   2.431   7.851   0.672
  728EOH      C 2915   2.384   7.827   0.539
  728EOH      C 2916   2.331   7.683   0.527
  728EOH      H 2917   2.360   7.830   0.732
  729EOH      O 2918   0.432   6.179   0.678
  729EOH      C 2919   0.334   6.280   0.698
  729EOH      C 2920   0.273   6.321   0.563
  729EOH      H 2921   0.388   6.101   0.645
  730EOH      O 2922   7.756   7.830   2.123
  730EOH      C 2923   7.671   7.744   2.047
  730EOH      C 2924   7.737   7.720   1.910
  730EOH      H 2925   7.832   7.780   2.149
  731EOH      O 2926   5.578   1.405   1.072
  731EOH      C 2927   5.463   1.345   1.012
  731EOH      C 2928   5.358   1.316   1.120
  731EOH      H 2929   5.547   1.478   1.125
  732EOH      O 2930   5.068   0.533   6.661
  732EOH      C 2931   5.068   0.390   6.660
  732EOH      C 2932   5.131   0.337   6.530
  732EOH      H 2933   5.093   0.558   6.749
  733EOH      O 2934   4.958   4.999   3.462
  733EOH      C 2935   5.077   5.036   3.533
  733EOH      C 2936   5.086   5.190   3.541
  733EOH      H 2937   4.884   5.013   3.519
  734EOH      O 2938   5.777   3.186   6.357
  734EOH      C 2939   5.832   3.218   6.229
  734EOH      C 2940   5.962   3.139   6.207
  734EOH      H 2941   5.742   3.099   6.354
  735EOH      O 2942   1.195   2.223   7.406
  735EOH      C 2943   1.169   2.358   7.444
  735EOH      C 2944   1.157   2.445   7.318
  735EOH      H 2945   1.158   2.166   7.472
  736EOH      O 2946   0.640   5.270   7.198
  736EOH      C 2947   0.634   5.134   7.154
  736EOH      C 2948   0.528   5.058   7.236
  736EOH      H 2949   0.667   5.323   7.125
  737EOH      O 2950   5.618   2.651   6.579
  737EOH      C 2951   5.583   2.570   6.467
  737EOH      C 2952   5.703   2.482   6.428
  737EOH      H 2953   5.611   2.598   6.656
  738EOH      O 2954   7.749   6.007   5.746
  738EOH      C 2955   7.683   5.919   5.655
  738EOH      C 2956   7.530   5.933   5.672
  738EOH      H 2957   7.725   6.096   5.723
  739EOH      O 2958   0.654   6.857   4.102
  739EOH      C 2959   0.663   6.892   3.963
  739EOH      C 2960   0.713   6.770   3.884
  739EOH      H 2961   0.639   6.937   4.150
  740EOH      O 2962   3.550   1.748   2.980
  740EOH      C 2963   3.674   1.737   2.910
  740EOH      C 2964   3.789   1.739   3.012
  740EOH      H 2965   3.482   1.714   2.924
  741EOH      O 2966   4.152   1.756   4.120
  741EOH      C 2967   4.284   1.706   4.140
  741EOH      C 2968   4.384   1.824   4.131
  741EOH      H 2969   4.137   1.825   4.183
  742EOH      O 2970   2.799   6.855   3.146
  742EOH      C 2971   2.757   6.847   3.283
  742EOH      C 2972   2.604   6.858   3.289
  742EOH      H 2973   2.769   6.776   3.103
  743EOH      O 2974   2.011   5.578   0.587
  743EOH      C 2975   1.964   5.443   0.593
  743EOH      C 2976   2.015   5.366   0.470
  743EOH      H 2977   2.105   5.577   0.592
  744EOH      O 2978   1.841   4.453   6.173
  744EOH      C 2979   1.812   4.371   6.060
  744EOH      C 2980   1.927   4.384   5.959
  744EOH      H 2981   1.913   4.415   6.220
  745EOH      O 2982   1.089   5.987   0.734
  745EOH      C 2983   1.003   6.017   0.624
  745EOH      C 2984   1.005   5.900   0.524
  745EOH      H 2985   1.078   6.055   0.799
  746EOH      O 2986   5.947   5.066   6.223
  746EOH      C 2987   6.065   5.105   6.293
  746EOH      C 2988   6.109   5.244   6.243
  746EOH      H 2989   5.872   5.098   6.270
  747EOH      O 2990   2.893   4.131   0.836
  747EOH      C 2991   2.802   4.098   0.731
  747EOH      C 2992   2.662   4.149   0.769
  747EOH      H 2993   2.910   4.224   0.830
  748EOH      O 2994   6.980   0.594   1.642
  748EOH      C 2995   7.031   0.531   1.524
  748EOH      C 2996   7.086   0.392   1.562
  748EOH      H 2997   6.928   0.669   1.616
  749EOH      O 2998   3.565   6.884   2.508
  749EOH      C 2999   3.552   6.770   2.423
  749EOH      C 3000   3.641   6.787   2.299
  749EOH      H 3001   3.635   6.868   2.569
  750EOH      O 3002   3.025   1.511   6.554
  750EOH      C 3003   3.081   1.570   6.672
  750EOH      C 3004   3.234   1.572   6.658
  750EOH      H 3005   3.048   1.567   6.481
  751EOH      O 3006   4.721   1.425   2.953
  751EOH      C 3007   4.721   1.558   3.005
  751EOH      C 3008   4.675   1.559   3.152
  751EOH      H 3009   4.788   1.376   2.999
  752EOH      O 3010   3.860   4.460   1.727
  752EOH      C 3011   3.819   4.463   1.864
  752EOH      C 3012   3.712   4.354   1.886
  752EOH      H 3013   3.871   4.370   1.700
  753EOH      O 3014   2.229   6.883   0.075
  753EOH      C 3015   2.146   6.967   0.155
  753EOH      C 3016   2.016   7.001   0.079
  753EOH      H 3017   2.187   6.798   0.072
  754EOH      O 3018   3.098   4.258   5.134
  754EOH      C 3019   3.179   4.363   5.189
  754EOH      C 3020   3.132   4.498   5.130
  754EOH      H 3021   3.086   4.192   5.199
  755EOH      O 3022   6.584   4.623   2.698
  755EOH      C 3023   6.554   4.554   2.819
  755EOH      C 3024   6.407   4.508   2.817
  755EOH      H 3025   6.581   4.560   2.628
  756EOH      O 3026   7.352   3.445   6.296
  756EOH      C 3027   7.398   3.551   6.212
  756EOH      C 3028   7.522   3.615   6.276
  756EOH      H 3029   7.383   3.363   6.260
  757EOH      O 3030   7.816   6.117   0.823
  757EOH      C 3031   7.847   6.148   0.687
  757EOH      C 3032   7.774   6.051   0.593
  757EOH      H 3033   7.757   6.184   0.856
  758EOH      O 3034   3.156   7.431   3.046
  758EOH      C 3035   3.020   7.436   3.091
  758EOH      C 3036   2.930   7.488   2.978
  758EOH      H 3037   3.207   7.389   3.114
  759EOH      O 3038   1.830   2.790   2.436
  759EOH      C 3039   1.747   2.733   2.335
  759EOH      C 3040   1.722   2.584   2.366
  759EOH      H 3041   1.775   2.833   2.499
  760EOH      O 3042   7.583   7.456   1.615
  760EOH      C 3043   7.707   7.422   1.677
  760EOH      C 3044   7.822   7.432   1.574
  760EOH      H 3045   7.584   7.549   1.596
  761EOH      O 3046   7.507   7.649   7.878
  761EOH      C 3047   7.403   7.555   7.851
  761EOH      C 3048   7.396   7.524   7.700
  761EOH      H 3049   7.588   7.600   7.877
  762EOH      O 3050   5.736   2.857   2.266
  762EOH      C 3051   5.642   2.955   2.312
  762EOH      C 3052   5.687   3.009   2.449
  762EOH      H 3053   5.817   2.902   2.246
  763EOH      O 3054   4.725   3.178   3.089
  763EOH      C 3055   4.642   3.207   2.976
  763EOH      C 3056   4.676   3.109   2.862
  763EOH      H 3057   4.704   3.240   3.157
  764EOH      O 3058   2.983   2.175   5.862
  764EOH      C 3059   2.974   2.118   5.993
  764EOH      C 3060   3.050   1.985   5.995
  764EOH      H 3061   3.075   2.188   5.845
  765EOH      O 3062   3.191   2.814   4.338
  765EOH      C 3063   3.159   2.898   4.450
  765EOH      C 3064   3.215   3.039   4.425
  765EOH      H 3065   3.124   2.826   4.273
  766EOH      O 3066   5.920   5.854   4.145
  766EOH      C 3067   6.025   5.781   4.209
  766EOH      C 3068   6.157   5.807   4.135
  766EOH      H 3069   5.920   5.943   4.178
  767EOH      O 3070   1.061   4.438   0.507
  767EOH      C 3071   1.086   4.316   0.437
  767EOH      C 3072   1.080   4.198   0.535
  767EOH      H 3073   0.980   4.428   0.555
  768EOH      O 3074   6.760   5.995   2.247
  768EOH      C 3075   6.675   6.012   2.133
  768EOH      C 3076   6.750   6.090   2.023
  768EOH      H 3077   6.826   5.931   2.226
  769EOH      O 3078   3.687   7.438   6.066
  769EOH      C 3079   3.595   7.371   6.152
  769EOH      C 3080   3.513   7.477   6.228
  769EOH      H 3081   3.638   7.503   6.018
  770EOH      O 3082   5.062   2.845   0.543
  770EOH      C 3083   5.083   2.723   0.614
  770EOH      C 3084   4.978   2.620   0.566
  770EOH      H 3085   5.105   2.838   0.460
  771EOH      O 3086   3.705   6.206   0.123
  771EOH      C 3087   3.825   6.273   0.163
  771EOH      C 3088   3.849   6.251   0.313
  771EOH      H 3089   3.716   6.113   0.134
  772EOH      O 3090   3.987   5.114   0.045
  772EOH      C 3091   4.046   5.005  -0.027
  772EOH      C 3092   4.031   5.031  -0.179
  772EOH      H 3093   4.035   5.193   0.025
  773EOH      O 3094   7.195   1.970   5.780
  773EOH      C 3095   7.333   1.981   5.746
  773EOH      C 3096   7.410   2.048   5.861
  773EOH      H 3097   7.186   1.898   5.841
  774EOH      O 3098   2.413   4.504   6.654
  774EOH      C 3099   2.334   4.391   6.688
  774EOH      C 3100   2.378   4.269   6.605
  774EOH      H 3101   2.496   4.498   6.698
  775EOH      O 3102   5.170   6.966   6.843
  775EOH      C 3103   5.269   7.008   6.749
  775EOH      C 3104   5.372   7.098   6.820
  775EOH      H 3105   5.132   6.885   6.812
  776EOH      O 3106   6.632   1.056   0.437
  776EOH      C 3107   6.535   1.050   0.332
  776EOH      C 3108   6.485   1.192   0.301
  776EOH      H 3109   6.706   1.104   0.404
  777EOH      O 3110   4.220   1.274   6.377
  777EOH      C 3111   4.283   1.359   6.281
  777EOH      C 3112   4.351   1.272   6.173
  777EOH      H 3113   4.157   1.220   6.331
  778EOH      O 3114   0.874   7.464   3.911
  778EOH      C 3115   0.914   7.556   3.808
  778EOH      C 3116   0.802   7.569   3.703
  778EOH      H 3117   0.888   7.508   3.993
  779EOH      O 3118   7.699   3.358   1.723
  779EOH      C 3119   7.591   3.420   1.793
  779EOH      C 3120   7.465   3.423   1.705
  779EOH      H 3121   7.675   3.267   1.711
  780EOH      O 3122   2.518   7.369   5.070
  780EOH      C 3123   2.529   7.407   4.932
  780EOH      C 3124   2.390   7.449   4.880
  780EOH      H 3125   2.529   7.447   5.123
  781EOH      O 3126   6.178   0.863   0.339
  781EOH      C 3127   6.098   0.959   0.408
  781EOH      C 3128   6.185   1.054   0.492
  781EOH      H 3129   6.218   0.906   0.265
  782EOH      O 3130   2.499   7.131   4.249
  782EOH      C 3131   2.591   7.095   4.351
  782EOH      C 3132   2.512   7.065   4.480
  782EOH      H 3133   2.450   7.054   4.226
  783EOH      O 3134   5.526   3.033   4.274
  783EOH      C 3135   5.431   3.116   4.341
  783EOH      C 3136   5.478   3.144   4.485
  783EOH      H 3137   5.606   3.082   4.266
  784EOH      O 3138   2.527   2.846   0.405
  784EOH      C 3139   2.574   2.962   0.475
  784EOH      C 3140   2.725   2.946   0.504
  784EOH      H 3141   2.573   2.839   0.323
  785EOH      O 3142   2.119   1.057   2.107
  785EOH      C 3143   2.183   0.947   2.043
  785EOH      C 3144   2.228   0.988   1.901
  785EOH      H 3145   2.186   1.120   2.130
  786EOH      O 3146   7.566   6.987   4.569
  786EOH      C 3147   7.500   6.867   4.529
  786EOH      C 3148   7.522   6.758   4.636
  786EOH      H 3149   7.504   7.041   4.616
  787EOH      O 3150   6.594   0.987   2.608
  787EOH      C 3151   6.553   1.061   2.723
  787EOH      C 3152   6.480   0.969   2.822
  787EOH      H 3153   6.641   1.047   2.552
  788EOH      O 3154   4.268   7.458   6.430
  788EOH      C 3155   4.259   7.340   6.350
  788EOH      C 3156   4.340   7.226   6.415
  788EOH      H 3157   4.179   7.486   6.448
  789EOH      O 3158   7.715   0.980   4.730
  789EOH      C 3159   7.638   0.902   4.638
  789EOH      C 3160   7.633   0.756   4.686
  789EOH      H 3161   7.669   0.982   4.812
  790EOH      O 3162   6.704   5.442   3.867
  790EOH      C 3163   6.759   5.323   3.809
  790EOH      C 3164   6.827   5.239   3.919
  790EOH      H 3165   6.637   5.417   3.928
  791EOH      O 3166   6.888   3.494   4.209
  791EOH      C 3167   6.858   3.357   4.240
  791EOH      C 3168   6.786   3.293   4.120
  791EOH      H 3169   6.927   3.533   4.286
  792EOH      O 3170   4.305   2.982   5.907
  792EOH      C 3171   4.331   2.865   5.985
  792EOH      C 3172   4.431   2.774   5.912
  792EOH      H 3173   4.388   3.017   5.877
  793EOH      O 3174   0.526   0.472   6.166
  793EOH      C 3175   0.575   0.353   6.104
  793EOH      C 3176   0.567   0.235   6.203
  793EOH      H 3177   0.514   0.538   6.099
  794EOH      O 3178   6.855   4.279   4.493
  794EOH      C 3179   6.990   4.249   4.531
  794EOH      C 3180   6.998   4.102   4.576
  794EOH      H 3181   6.831   4.220   4.423
  795EOH      O 3182   3.280   3.309   4.058
  795EOH      C 3183   3.299   3.398   4.168
  795EOH      C 3184   3.246   3.538   4.131
  795EOH      H 3185   3.278   3.221   4.091
  796EOH      O 3186   4.763   7.720   1.301
  796EOH      C 3187   4.862   7.736   1.199
  796EOH      C 3188   4.987   7.654   1.238
  796EOH      H 3189   4.723   7.635   1.289
  797EOH      O 3190   3.774   5.706   4.784
  797EOH      C 3191   3.838   5.709   4.656
  797EOH      C 3192   3.980   5.768   4.673
  797EOH      H 3193   3.814   5.636   4.834
  798EOH      O 3194   4.804   7.488   6.421
  798EOH      C 3195   4.712   7.417   6.338
  798EOH      C 3196   4.600   7.512   6.292
  798EOH      H 3197   4.820   7.573   6.383
  799EOH      O 3198   3.767   1.539   1.494
  799EOH      C 3199   3.825   1.480   1.378
  799EOH      C 3200   3.964   1.424   1.414
  799EOH      H 3201   3.736   1.470   1.551
  800EOH      O 3202   0.240   5.497   1.157
  800EOH      C 3203   0.279   5.408   1.262
  800EOH      C 3204   0.358   5.289   1.203
  800EOH      H 3205   0.319   5.532   1.118
  801EOH      O 3206   1.768   7.503   6.414
  801EOH      C 3207   1.887   7.576   6.383
  801EOH      C 3208   1.975   7.493   6.288
  801EOH      H 3209   1.727   7.478   6.333
  802EOH      O 3210   5.413   0.889   7.885
  802EOH      C 3211   5.419   0.967   8.005
  802EOH      C 3212   5.432   1.116   7.969
  802EOH      H 3213   5.344   0.923   7.830
  803EOH      O 3214   6.956   3.009   3.999
  803EOH      C 3215   7.039   2.975   4.110
  803EOH      C 3216   7.118   2.847   4.079
  803EOH      H 3217   7.009   3.041   3.928
  804EOH      O 3218   0.286   2.059   0.951
  804EOH      C 3219   0.267   1.949   0.862
  804EOH      C 3220   0.273   1.818   0.943
  804EOH      H 3221   0.241   2.134   0.915
  805EOH      O 3222   0.302   5.945   2.152
  805EOH      C 3223   0.194   6.034   2.124
  805EOH      C 3224   0.065   5.979   2.188
  805EOH      H 3225   0.318   5.946   2.245
  806EOH      O 3226   4.783   3.225   6.348
  806EOH      C 3227   4.712   3.153   6.449
  806EOH      C 3228   4.561   3.173   6.429
  806EOH      H 3229   4.794   3.169   6.273
  807EOH      O 3230   4.175   4.354   5.399
  807EOH      C 3231   4.233   4.278   5.293
  807EOH      C 3232   4.176   4.135   5.297
  807EOH      H 3233   4.207   4.443   5.392
  808EOH      O 3234   2.884   5.247   1.814
  808EOH      C 3235   2.863   5.370   1.886
  808EOH      C 3236   2.839   5.483   1.784
  808EOH      H 3237   2.829   5.182   1.853
  809EOH      O 3238   2.719   2.885   7.510
  809EOH      C 3239   2.642   2.792   7.434
  809EOH      C 3240   2.682   2.804   7.286
  809EOH      H 3241   2.808   2.852   7.519
  810EOH      O 3242   3.596   6.044   4.334
  810EOH      C 3243   3.566   6.160   4.255
  810EOH      C 3244   3.480   6.258   4.337
  810EOH      H 3245   3.644   6.074   4.410
  811EOH      O 3246   6.939   2.157   3.457
  811EOH      C 3247   7.035   2.124   3.356
  811EOH      C 3248   6.995   1.992   3.287
  811EOH      H 3249   6.857   2.176   3.414
  812EOH      O 3250   4.866   4.415   5.019
  812EOH      C 3251   4.902   4.320   5.119
  812EOH      C 3252   5.013   4.228   5.064
  812EOH      H 3253   4.936   4.477   5.011
  813EOH      O 3254   3.962   0.876   1.803
  813EOH      C 3255   3.856   0.942   1.873
  813EOH      C 3256   3.753   0.994   1.771
  813EOH      H 3257   3.942   0.784   1.797
  814EOH      O 3258   1.889   5.860   6.476
  814EOH      C 3259   1.830   5.990   6.488
  814EOH      C 3260   1.760   6.004   6.624
  814EOH      H 3261   1.923   5.850   6.388
  815EOH      O 3262   1.293   1.300   0.565
  815EOH      C 3263   1.208   1.206   0.631
  815EOH      C 3264   1.267   1.064   0.618
  815EOH      H 3265   1.378   1.298   0.607
  816EOH      O 3266   7.290   0.126   2.649
  816EOH      C 3267   7.422   0.094   2.605
  816EOH      C 3268   7.524   0.134   2.713
  816EOH      H 3269   7.278   0.090   2.736
  817EOH      O 3270   0.944   3.474   2.761
  817EOH      C 3271   1.006   3.579   2.686
  817EOH      C 3272   1.093   3.662   2.782
  817EOH      H 3273   0.997   3.397   2.753
  818EOH      O 3274   5.950   2.528   5.993
  818EOH      C 3275   5.899   2.416   6.065
  818EOH      C 3276   5.754   2.387   6.021
  818EOH      H 3277   5.990   2.496   5.913
  819EOH      O 3278   7.000   2.929   5.724
  819EOH      C 3279   6.949   2.836   5.820
  819EOH      C 3280   7.063   2.743   5.867
  819EOH      H 3281   7.061   2.986   5.768
  820EOH      O 3282   4.660   1.527   6.151
  820EOH      C 3283   4.569   1.635   6.125
  820EOH      C 3284   4.479   1.600   6.005
  820EOH      H 3285   4.610   1.448   6.159
  821EOH      O 3286   4.511   5.180   7.456
  821EOH      C 3287   4.405   5.099   7.507
  821EOH      C 3288   4.425   5.077   7.658
  821EOH      H 3289   4.511   5.262   7.503
  822EOH      O 3290   5.183   3.555   3.698
  822EOH      C 3291   5.281   3.593   3.794
  822EOH      C 3292   5.228   3.563   3.936
  822EOH      H 3293   5.173   3.628   3.638
  823EOH      O 3294   0.571   4.238   5.050
  823EOH      C 3295   0.622   4.115   4.998
  823EOH      C 3296   0.608   4.004   5.104
  823EOH      H 3297   0.477   4.238   5.034
  824EOH      O 3298   7.613   1.841   7.839
  824EOH      C 3299   7.632   1.791   7.706
  824EOH      C 3300   7.517   1.840   7.616
  824EOH      H 3301   7.625   1.935   7.837
  825EOH      O 3302   7.841   5.330   4.906
  825EOH      C 3303   7.954   5.256   4.952
  825EOH      C 3304   8.081   5.307   4.881
  825EOH      H 3305   7.839   5.413   4.951
  826EOH      O 3306   3.978   2.435   5.404
  826EOH      C 3307   3.880   2.335   5.378
  826EOH      C 3308   3.800   2.370   5.251
  826EOH      H 3309   4.040   2.438   5.333
  827EOH      O 3310   2.872   7.450   2.214
  827EOH      C 3311   3.002   7.467   2.156
  827EOH      C 3312   3.108   7.403   2.248
  827EOH      H 3313   2.857   7.358   2.227
  828EOH      O 3314   6.849   3.617   3.121
  828EOH      C 3315   6.706   3.620   3.129
  828EOH      C 3316   6.646   3.558   3.002
  828EOH      H 3317   6.885   3.646   3.203
  829EOH      O 3318   1.064   1.391   2.784
  829EOH      C 3319   1.196   1.439   2.810
  829EOH      C 3320   1.219   1.443   2.962
  829EOH      H 3321   1.067   1.296   2.785
  830EOH      O 3322   4.462   5.509   3.337
  830EOH      C 3323   4.596   5.529   3.289
  830EOH      C 3324   4.688   5.573   3.404
  830EOH      H 3325   4.435   5.423   3.310
  831EOH      O 3326   2.488   3.495   0.707
  831EOH      C 3327   2.356   3.477   0.758
  831EOH      C 3328   2.275   3.393   0.658
  831EOH      H 3329   2.540   3.419   0.730
  832EOH      O 3330   5.696   7.653   4.378
  832EOH      C 3331   5.686   7.764   4.288
  832EOH      C 3332   5.550   7.833   4.305
  832EOH      H 3333   5.674   7.685   4.464
  833EOH      O 3334   0.689   2.751   1.867
  833EOH      C 3335   0.610   2.870   1.864
  833EOH      C 3336   0.700   2.994   1.872
  833EOH      H 3337   0.731   2.742   1.783
  834EOH      O 3338   0.465   2.751   2.351
  834EOH      C 3339   0.537   2.844   2.271
  834EOH      C 3340   0.437   2.931   2.193
  834EOH      H 3341   0.399   2.799   2.401
  835EOH      O 3342   3.316   7.692   5.949
  835EOH      C 3343   3.205   7.770   5.991
  835EOH      C 3344   3.106   7.784   5.873
  835EOH      H 3345   3.282   7.618   5.900
  836EOH      O 3346   5.359   6.477   6.661
  836EOH      C 3347   5.421   6.495   6.789
  836EOH      C 3348   5.374   6.628   6.850
  836EOH      H 3349   5.281   6.426   6.672
  837EOH      O 3350   1.252   0.568   4.240
  837EOH      C 3351   1.294   0.437   4.280
  837EOH      C 3352   1.361   0.367   4.160
  837EOH      H 3353   1.329   0.616   4.213
  838EOH      O 3354   7.055   3.369   3.514
  838EOH      C 3355   6.953   3.435   3.439
  838EOH      C 3356   6.826   3.451   3.524
  838EOH      H 3357   7.095   3.430   3.573
  839EOH      O 3358   7.870   0.697   1.279
  839EOH      C 3359   7.894   0.831   1.236
  839EOH      C 3360   8.016   0.886   1.312
  839EOH      H 3361   7.891   0.640   1.206
  840EOH      O 3362   3.802   6.118   6.770
  840EOH      C 3363   3.910   6.123   6.676
  840EOH      C 3364   4.024   6.032   6.726
  840EOH      H 3365   3.754   6.037   6.755
  841EOH      O 3366   4.265   2.551   4.078
  841EOH      C 3367   4.170   2.449   4.048
  841EOH      C 3368   4.054   2.459   4.149
  841EOH      H 3369   4.218   2.633   4.084
  842EOH      O 3370   7.123   1.511   3.496
  842EOH      C 3371   7.176   1.605   3.590
  842EOH      C 3372   7.115   1.744   3.563
  842EOH      H 3373   7.039   1.482   3.526
  843EOH      O 3374   7.597   6.205   7.442
  843EOH      C 3375   7.693   6.112   7.391
  843EOH      C 3376   7.808   6.188   7.322
  843EOH      H 3377   7.642   6.266   7.499
  844EOH      O 3378   4.358   1.725   5.133
  844EOH      C 3379   4.319   1.626   5.229
  844EOH      C 3380   4.377   1.663   5.367
  844EOH      H 3381   4.281   1.775   5.109
  845EOH      O 3382   5.231   4.868   5.335
  845EOH      C 3383   5.191   4.947   5.224
  845EOH      C 3384   5.099   5.059   5.276
  845EOH      H 3385   5.283   4.795   5.303
  846EOH      O 3386   6.864   7.357   2.050
  846EOH      C 3387   6.760   7.324   1.958
  846EOH      C 3388   6.670   7.216   2.018
  846EOH      H 3389   6.921   7.422   2.010
  847EOH      O 3390   4.782   4.047   4.381
  847EOH      C 3391   4.763   3.927   4.305
  847EOH      C 3392   4.627   3.864   4.339
  847EOH      H 3393   4.858   4.092   4.348
  848EOH      O 3394   0.696   7.667   2.196
  848EOH      C 3395   0.680   7.797   2.252
  848EOH      C 3396   0.613   7.786   2.390
  848EOH      H 3397   0.772   7.627   2.236
  849EOH      O 3398   6.077   1.057   7.495
  849EOH      C 3399   5.947   1.074   7.553
  849EOH      C 3400   5.960   1.113   7.701
  849EOH      H 3401   6.126   1.137   7.507
  850EOH      O 3402   1.710   5.478   5.939
  850EOH      C 3403   1.771   5.607   5.951
  850EOH      C 3404   1.694   5.708   5.863
  850EOH      H 3405   1.618   5.487   5.957
  851EOH      O 3406   2.057   6.251   2.488
  851EOH      C 3407   2.051   6.387   2.446
  851EOH      C 3408   2.083   6.396   2.295
  851EOH      H 3409   2.019   6.198   2.419
  852EOH      O 3410   7.073   0.248   6.555
  852EOH      C 3411   7.063   0.134   6.641
  852EOH      C 3412   6.993   0.174   6.772
  852EOH      H 3413   6.986   0.285   6.545
  853EOH      O 3414   5.067   3.380   2.558
  853EOH      C 3415   5.206   3.409   2.538
  853EOH      C 3416   5.272   3.294   2.460
  853EOH      H 3417   5.021   3.396   2.477
  854EOH      O 3418   6.673   4.712   5.289
  854EOH      C 3419   6.747   4.791   5.196
  854EOH      C 3420   6.885   4.826   5.255
  854EOH      H 3421   6.712   4.626   5.292
  855EOH      O 3422   2.550   2.655   4.740
  855EOH      C 3423   2.564   2.754   4.637
  855EOH      C 3424   2.482   2.712   4.514
  855EOH      H 3425   2.459   2.644   4.760
  856EOH      O 3426   1.904   4.677   5.165
  856EOH      C 3427   1.948   4.543   5.143
  856EOH      C 3428   1.959   4.469   5.278
  856EOH      H 3429   1.815   4.673   5.197
  857EOH      O 3430   5.219   1.653   0.863
  857EOH      C 3431   5.095   1.582   0.861
  857EOH      C 3432   4.981   1.676   0.820
  857EOH      H 3433   5.245   1.667   0.773
  858EOH      O 3434   3.001   6.935   6.315
  858EOH      C 3435   2.902   6.965   6.414
  858EOH      C 3436   2.765   6.986   6.346
  858EOH      H 3437   2.991   6.844   6.292
  859EOH      O 3438   3.343   6.567   0.446
  859EOH      C 3439   3.314   6.688   0.516
  859EOH      C 3440   3.172   6.680   0.576
  859EOH      H 3441   3.356   6.498   0.509
  860EOH      O 3442   7.323   6.353   2.540
  860EOH      C 3443   7.182   6.369   2.554
  860EOH      C 3444   7.110   6.317   2.427
  860EOH      H 3445   7.363   6.377   2.622
  861EOH      O 3446   7.564   1.329   7.177
  861EOH      C 3447   7.616   1.206   7.228
  861EOH      C 3448   7.724   1.150   7.132
  861EOH      H 3449   7.526   1.375   7.251
  862EOH      O 3450   3.126   1.114   7.151
  862EOH      C 3451   3.088   1.213   7.246
  862EOH      C 3452   3.143   1.351   7.204
  862EOH      H 3453   3.050   1.089   7.101
  863EOH      O 3454   7.685   6.319   0.998
  863EOH      C 3455   7.793   6.298   1.089
  863EOH      C 3456   7.914   6.382   1.046
  863EOH      H 3457   7.624   6.377   1.041
  864EOH      O 3458   6.767   7.692   1.088
  864EOH      C 3459   6.675   7.636   0.995
  864EOH      C 3460   6.611   7.509   1.055
  864EOH      H 3461   6.774   7.785   1.070
  865EOH      O 3462   1.575   0.809   0.782
  865EOH      C 3463   1.587   0.669   0.756
  865EOH      C 3464   1.718   0.641   0.681
  865EOH      H 3465   1.649   0.836   0.835
  866EOH      O 3466   0.923   7.858   1.679
  866EOH      C 3467   0.820   7.798   1.758
  866EOH      C 3468   0.858   7.652   1.791
  866EOH      H 3469   0.897   7.947   1.660
  867EOH      O 3470   2.490   4.502   0.427
  867EOH      C 3471   2.465   4.550   0.560
  867EOH      C 3472   2.587   4.522   0.649
  867EOH      H 3473   2.431   4.549   0.369
  868EOH      O 3474   0.625   0.769   0.816
  868EOH      C 3475   0.596   0.889   0.744
  868EOH      C 3476   0.663   1.008   0.815
  868EOH      H 3477   0.711   0.739   0.789
  869EOH      O 3478   3.841   3.282   4.217
  869EOH      C 3479   3.803   3.147   4.248
  869EOH      C 3480   3.764   3.074   4.118
  869EOH      H 3481   3.926   3.280   4.177
  870EOH      O 3482   6.471   5.098   2.798
  870EOH      C 3483   6.488   4.963   2.755
  870EOH      C 3484   6.472   4.955   2.602
  870EOH      H 3485   6.531   5.152   2.749
  871EOH      O 3486   1.337   7.729   7.735
  871EOH      C 3487   1.354   7.588   7.742
  871EOH      C 3488   1.348   7.529   7.599
  871EOH      H 3489   1.414   7.766   7.695
  872EOH      O 3490   1.184   3.585   5.400
  872EOH      C 3491   1.155   3.660   5.282
  872EOH      C 3492   1.170   3.810   5.311
  872EOH      H 3493   1.273   3.605   5.428
  873EOH      O 3494   2.310   5.036   0.086
  873EOH      C 3495   2.247   5.138   0.163
  873EOH      C 3496   2.171   5.074   0.281
  873EOH      H 3497   2.357   4.979   0.145
  874EOH      O 3498   5.588   5.109   6.345
  874EOH      C 3499   5.578   5.212   6.245
  874EOH      C 3500   5.510   5.157   6.119
  874EOH      H 3501   5.515   5.119   6.404
  875EOH      O 3502   5.848   3.858   1.808
  875EOH      C 3503   5.798   3.910   1.931
  875EOH      C 3504   5.670   3.834   1.971
  875EOH      H 3505   5.942   3.867   1.809
  876EOH      O 3506   6.345   1.156   3.994
  876EOH      C 3507   6.274   1.098   4.103
  876EOH      C 3508   6.183   1.205   4.166
  876EOH      H 3509   6.284   1.169   3.923
  877EOH      O 3510   7.414   5.553   3.032
  877EOH      C 3511   7.351   5.546   2.904
  877EOH      C 3512   7.198   5.532   2.920
  877EOH      H 3513   7.377   5.626   3.078
  878EOH      O 3514   7.353   5.180   6.877
  878EOH      C 3515   7.240   5.261   6.843
  878EOH      C 3516   7.110   5.190   6.887
  878EOH      H 3517   7.430   5.229   6.851
  879EOH      O 3518   7.740   3.773   5.013
  879EOH      C 3519   7.736   3.633   4.984
  879EOH      C 3520   7.636   3.605   4.870
  879EOH      H 3521   7.744   3.819   4.930
  880EOH      O 3522   0.738   5.456   5.089
  880EOH      C 3523   0.633   5.442   4.993
  880EOH      C 3524   0.498   5.440   5.065
  880EOH      H 3525   0.712   5.523   5.150
  881EOH      O 3526   7.335   0.969   2.154
  881EOH      C 3527   7.428   0.860   2.152
  881EOH      C 3528   7.539   0.891   2.049
  881EOH      H 3529   7.376   1.042   2.198
  882EOH      O 3530   5.508   4.157   1.647
  882EOH      C 3531   5.454   4.043   1.714
  882EOH      C 3532   5.490   3.914   1.637
  882EOH      H 3533   5.602   4.157   1.659
  883EOH      O 3534   7.024   6.003   0.855
  883EOH      C 3535   7.025   5.964   0.993
  883EOH      C 3536   6.882   5.930   1.036
  883EOH      H 3537   7.031   5.926   0.801
  884EOH      O 3538   5.856   4.639   7.271
  884EOH      C 3539   5.803   4.738   7.360
  884EOH      C 3540   5.708   4.831   7.281
  884EOH      H 3541   5.796   4.566   7.269
  885EOH      O 3542   7.134   6.889   4.532
  885EOH      C 3543   7.104   6.844   4.664
  885EOH      C 3544   7.135   6.694   4.677
  885EOH      H 3545   7.109   6.980   4.523
  886EOH      O 3546   4.814   2.202   3.894
  886EOH      C 3547   4.741   2.122   3.988
  886EOH      C 3548   4.813   1.987   4.008
  886EOH      H 3549   4.898   2.225   3.933
  887EOH      O 3550   6.448   7.348   5.565
  887EOH      C 3551   6.549   7.248   5.576
  887EOH      C 3552   6.674   7.305   5.646
  887EOH      H 3553   6.405   7.355   5.649
  888EOH      O 3554   1.801   6.121   2.741
  888EOH      C 3555   1.776   6.096   2.603
  888EOH      C 3556   1.710   6.219   2.538
  888EOH      H 3557   1.863   6.193   2.747
  889EOH      O 3558   5.847   4.933   3.598
  889EOH      C 3559   5.704   4.931   3.602
  889EOH      C 3560   5.655   5.046   3.693
  889EOH      H 3561   5.874   4.990   3.527
  890EOH      O 3562   5.141   1.982   0.869
  890EOH      C 3563   5.280   1.991   0.900
  890EOH      C 3564   5.301   1.977   1.052
  890EOH      H 3565   5.133   1.974   0.775
  891EOH      O 3566   7.521   0.619   6.682
  891EOH      C 3567   7.624   0.571   6.596
  891EOH      C 3568   7.566   0.538   6.457
  891EOH      H 3569   7.466   0.679   6.633
  892EOH      O 3570   0.818   0.156   3.298
  892EOH      C 3571   0.719   0.057   3.269
  892EOH      C 3572   0.601   0.122   3.195
  892EOH      H 3573   0.853   0.187   3.216
  893EOH      O 3574   5.167   4.239   2.900
  893EOH      C 3575   5.053   4.267   2.982
  893EOH      C 3576   4.933   4.186   2.931
  893EOH      H 3577   5.198   4.152   2.920
  894EOH      O 3578   2.529   0.601   4.702
  894EOH      C 3579   2.610   0.701   4.638
  894EOH      C 3580   2.721   0.747   4.734
  894EOH      H 3581   2.584   0.526   4.718
  895EOH      O 3582   0.057   7.754   5.281
  895EOH      C 3583   0.058   7.896   5.283
  895EOH      C 3584  -0.082   7.948   5.321
  895EOH      H 3585   0.066   7.723   5.370
  896EOH      O 3586   4.083   5.890   5.740
  896EOH      C 3587   3.953   5.831   5.748
  896EOH      C 3588   3.945   5.711   5.652
  896EOH      H 3589   4.145   5.829   5.775
  897EOH      O 3590   1.999   5.382   5.031
  897EOH      C 3591   1.945   5.512   5.007
  897EOH      C 3592   2.036   5.618   5.070
  897EOH      H 3593   2.086   5.378   4.994
  898EOH      O 3594   6.439   0.449   6.425
  898EOH      C 3595   6.359   0.358   6.349
  898EOH      C 3596   6.227   0.332   6.424
  898EOH      H 3597   6.406   0.536   6.412
  899EOH      O 3598   1.260   5.073   3.365
  899EOH      C 3599   1.296   4.992   3.477
  899EOH      C 3600   1.238   4.850   3.459
  899EOH      H 3601   1.285   5.162   3.384
  900EOH      O 3602   4.607   2.407   0.155
  900EOH      C 3603   4.720   2.345   0.093
  900EOH      C 3604   4.760   2.219   0.172
  900EOH      H 3605   4.566   2.464   0.092
  901EOH      O 3606   3.490   3.662   7.030
  901EOH      C 3607   3.547   3.551   6.961
  901EOH      C 3608   3.435   3.452   6.922
  901EOH      H 3609   3.441   3.714   6.967
  902EOH      O 3610   7.851   7.715   5.845
  902EOH      C 3611   7.860   7.844   5.783
  902EOH      C 3612   7.803   7.952   5.878
  902EOH      H 3613   7.910   7.658   5.799
  903EOH      O 3614   2.222   4.185   1.424
  903EOH      C 3615   2.153   4.081   1.354
  903EOH      C 3616   2.254   3.972   1.312
  903EOH      H 3617   2.253   4.151   1.507
  904EOH      O 3618   5.984   5.271   5.183
  904EOH      C 3619   5.907   5.339   5.282
  904EOH      C 3620   5.768   5.372   5.225
  904EOH      H 3621   5.997   5.181   5.211
  905EOH      O 3622   2.511   4.293   4.186
  905EOH      C 3623   2.447   4.166   4.174
  905EOH      C 3624   2.458   4.090   4.308
  905EOH      H 3625   2.450   4.359   4.155
  906EOH      O 3626   1.866   2.070   3.142
  906EOH      C 3627   1.774   2.013   3.049
  906EOH      C 3628   1.764   2.102   2.923
  906EOH      H 3629   1.874   2.011   3.215
  907EOH      O 3630   3.114   6.879   3.473
  907EOH      C 3631   3.203   6.809   3.385
  907EOH      C 3632   3.266   6.690   3.460
  907EOH      H 3633   3.036   6.827   3.484
  908EOH      O 3634   6.271   5.374   1.277
  908EOH      C 3635   6.371   5.425   1.188
  908EOH      C 3636   6.506   5.355   1.215
  908EOH      H 3637   6.244   5.289   1.246
  909EOH      O 3638   4.681   1.069   7.815
  909EOH      C 3639   4.805   0.998   7.823
  909EOH      C 3640   4.907   1.061   7.727
  909EOH      H 3641   4.691   1.152   7.859
  910EOH      O 3642   7.256   0.167   3.539
  910EOH      C 3643   7.334   0.053   3.501
  910EOH      C 3644   7.476   0.064   3.562
  910EOH      H 3645   7.231   0.155   3.629
  911EOH      O 3646   7.486   5.225   0.619
  911EOH      C 3647   7.349   5.258   0.597
  911EOH      C 3648   7.287   5.303   0.731
  911EOH      H 3649   7.531   5.305   0.643
  912EOH      O 3650   7.455   5.488   7.494
  912EOH      C 3651   7.555   5.497   7.597
  912EOH      C 3652   7.692   5.521   7.532
  912EOH      H 3653   7.445   5.574   7.456
  913EOH      O 3654   3.437   5.451   0.988
  913EOH      C 3655   3.426   5.442   0.846
  913EOH      C 3656   3.567   5.439   0.784
  913EOH      H 3657   3.442   5.363   1.024
  914EOH      O 3658   5.840   3.094   0.207
  914EOH      C 3659   5.736   3.113   0.303
  914EOH      C 3660   5.725   3.263   0.339
  914EOH      H 3661   5.809   3.122   0.123
  915EOH      O 3662   7.301   5.011   0.140
  915EOH      C 3663   7.362   4.922   0.048
  915EOH      C 3664   7.430   4.806   0.124
  915EOH      H 3665   7.235   4.964   0.189
  916EOH      O 3666   3.227   5.148   5.521
  916EOH      C 3667   3.143   5.180   5.633
  916EOH      C 3668   3.024   5.266   5.587
  916EOH      H 3669   3.197   5.066   5.485
  917EOH      O 3670   3.516   7.160   3.870
  917EOH      C 3671   3.610   7.258   3.915
  917EOH      C 3672   3.568   7.397   3.865
  917EOH      H 3673   3.510   7.092   3.935
  918EOH      O 3674   1.103   1.950   7.794
  918EOH      C 3675   1.204   2.027   7.728
  918EOH      C 3676   1.203   2.170   7.786
  918EOH      H 3677   1.131   1.936   7.883
  919EOH      O 3678   7.503   0.027   5.491
  919EOH      C 3679   7.542   0.135   5.577
  919EOH      C 3680   7.418   0.189   5.652
  919EOH      H 3681   7.453  -0.034   5.542
  920EOH      O 3682   6.970   7.376   0.009
  920EOH      C 3683   7.097   7.405   0.069
  920EOH      C 3684   7.174   7.275   0.097
  920EOH      H 3685   6.946   7.451  -0.043
  921EOH      O 3686   1.184   7.879   4.563
  921EOH      C 3687   1.081   7.818   4.485
  921EOH      C 3688   1.137   7.770   4.350
  921EOH      H 3689   1.149   7.892   4.650
  922EOH      O 3690   4.012   5.702   7.620
  922EOH      C 3691   3.975   5.584   7.548
  922EOH      C 3692   4.066   5.569   7.425
  922EOH      H 3693   4.096   5.685   7.659
  923EOH      O 3694   7.510   7.210   7.877
  923EOH      C 3695   7.561   7.247   8.006
  923EOH      C 3696   7.607   7.121   8.082
  923EOH      H 3697   7.581   7.174   7.827
  924EOH      O 3698   2.058   5.349   3.544
  924EOH      C 3699   2.145   5.269   3.625
  924EOH      C 3700   2.187   5.144   3.546
  924EOH      H 3701   2.107   5.380   3.470
  925EOH      O 3702   2.155   2.283   7.491
  925EOH      C 3703   2.086   2.309   7.368
  925EOH      C 3704   2.153   2.429   7.298
  925EOH      H 3705   2.237   2.241   7.470
  926EOH      O 3706   1.077   1.567   7.455
  926EOH      C 3707   1.044   1.492   7.338
  926EOH      C 3708   0.920   1.553   7.271
  926EOH      H 3709   1.119   1.647   7.427
  927EOH      O 3710   4.848   1.527   5.228
  927EOH      C 3711   4.782   1.653   5.236
  927EOH      C 3712   4.704   1.681   5.106
  927EOH      H 3713   4.794   1.462   5.269
  928EOH      O 3714   5.946   1.970   3.647
  928EOH      C 3715   6.059   1.892   3.686
  928EOH      C 3716   6.162   1.891   3.571
  928EOH      H 3717   5.976   2.059   3.632
  929EOH      O 3718   1.800   6.315   5.369
  929EOH      C 3719   1.764   6.453   5.384
  929EOH      C 3720   1.737   6.518   5.248
  929EOH      H 3721   1.722   6.266   5.351
  930EOH      O 3722   4.886   2.763   0.884
  930EOH      C 3723   4.758   2.699   0.888
  930EOH      C 3724   4.770   2.565   0.963
  930EOH      H 3725   4.880   2.840   0.830
  931EOH      O 3726   6.504   3.964   3.313
  931EOH      C 3727   6.364   3.971   3.342
  931EOH      C 3728   6.287   4.008   3.214
  931EOH      H 3729   6.516   3.901   3.244
  932EOH      O 3730   5.435   0.225   0.609
  932EOH      C 3731   5.520   0.287   0.512
  932EOH      C 3732   5.441   0.394   0.435
  932EOH      H 3733   5.399   0.292   0.664
  933EOH      O 3734   4.708   7.669   7.485
  933EOH      C 3735   4.756   7.574   7.390
  933EOH      C 3736   4.902   7.538   7.423
  933EOH      H 3737   4.653   7.624   7.547
  934EOH      O 3738   2.196   3.309   7.663
  934EOH      C 3739   2.295   3.272   7.567
  934EOH      C 3740   2.401   3.383   7.558
  934EOH      H 3741   2.220   3.268   7.745
  935EOH      O 3742   5.550   7.839   1.405
  935EOH      C 3743   5.488   7.917   1.302
  935EOH      C 3744   5.555   8.055   1.295
  935EOH      H 3745   5.619   7.788   1.367
  936EOH      O 3746   4.080   4.089   7.533
  936EOH      C 3747   4.018   4.213   7.499
  936EOH      C 3748   4.069   4.261   7.361
  936EOH      H 3749   4.095   4.091   7.626
  937EOH      O 3750   7.571   6.558   0.117
  937EOH      C 3751   7.680   6.470   0.091
  937EOH      C 3752   7.688   6.362   0.200
  937EOH      H 3753   7.490   6.515   0.095
  938EOH      O 3754   6.623   6.714   3.755
  938EOH      C 3755   6.548   6.749   3.871
  938EOH      C 3756   6.399   6.758   3.835
  938EOH      H 3757   6.590   6.633   3.720
  939EOH      O 3758   4.554   0.812   2.476
  939EOH      C 3759   4.591   0.912   2.571
  939EOH      C 3760   4.645   1.036   2.498
  939EOH      H 3761   4.486   0.849   2.421
  940EOH      O 3762   6.102   5.860   0.646
  940EOH      C 3763   6.090   5.963   0.745
  940EOH      C 3764   6.029   6.089   0.681
  940EOH      H 3765   6.017   5.821   0.634
  941EOH      O 3766   7.365   7.437   7.025
  941EOH      C 3767   7.292   7.426   6.902
  941EOH      C 3768   7.199   7.548   6.889
  941EOH      H 3769   7.408   7.521   7.025
  942EOH      O 3770   6.339   2.562   1.507
  942EOH      C 3771   6.474   2.536   1.544
  942EOH      C 3772   6.514   2.628   1.660
  942EOH      H 3773   6.283   2.534   1.578
  943EOH      O 3774   1.162   7.019   7.895
  943EOH      C 3775   1.103   6.890   7.908
  943EOH      C 3776   1.011   6.887   8.031
  943EOH      H 3777   1.113   7.068   7.830
  944EOH      O 3778   7.516   0.578   4.344
  944EOH      C 3779   7.596   0.464   4.376
  944EOH      C 3780   7.519   0.373   4.473
  944EOH      H 3781   7.442   0.548   4.293
  945EOH      O 3782   0.357   0.224   3.797
  945EOH      C 3783   0.297   0.300   3.691
  945EOH      C 3784   0.186   0.219   3.622
  945EOH      H 3785   0.429   0.176   3.759
  946EOH      O 3786   7.473   3.392   5.671
  946EOH      C 3787   7.342   3.340   5.695
  946EOH      C 3788   7.275   3.306   5.561
  946EOH      H 3789   7.526   3.322   5.636
  947EOH      O 3790   6.684   2.029   3.138
  947EOH      C 3791   6.652   1.922   3.049
  947EOH      C 3792   6.556   1.824   3.119
  947EOH      H 3793   6.607   2.082   3.148
  948EOH      O 3794   1.808   0.164   0.956
  948EOH      C 3795   1.781   0.278   0.875
  948EOH      C 3796   1.750   0.398   0.966
  948EOH      H 3797   1.886   0.182   1.006
  949EOH      O 3798   3.317   5.786   4.616
  949EOH      C 3799   3.347   5.742   4.483
  949EOH      C 3800   3.329   5.860   4.386
  949EOH      H 3801   3.399   5.805   4.659
  950EOH      O 3802   5.129   5.222   3.949
  950EOH      C 3803   4.987   5.205   3.955
  950EOH      C 3804   4.951   5.065   3.901
  950EOH      H 3805   5.167   5.157   4.007
  951EOH      O 3806   1.731   4.502   3.854
  951EOH      C 3807   1.715   4.436   3.728
  951EOH      C 3808   1.690   4.286   3.750
  951EOH      H 3809   1.747   4.594   3.838
  952EOH      O 3810   3.019   0.846   0.048
  952EOH      C 3811   2.952   0.750   0.129
  952EOH      C 3812   3.054   0.675   0.216
  952EOH      H 3813   3.053   0.914   0.104
  953EOH      O 3814   3.502   0.441   0.860
  953EOH      C 3815   3.591   0.393   0.961
  953EOH      C 3816   3.718   0.336   0.894
  953EOH      H 3817   3.528   0.529   0.836
  954EOH      O 3818   3.543   6.569   7.046
  954EOH      C 3819   3.676   6.620   7.036
  954EOH      C 3820   3.762   6.563   7.150
  954EOH      H 3821   3.492   6.627   7.102
  955EOH      O 3822   3.616   7.793   4.718
  955EOH      C 3823   3.564   7.784   4.585
  955EOH      C 3824   3.434   7.867   4.574
  955EOH      H 3825   3.677   7.721   4.727
  956EOH      O 3826   4.187   2.794   0.253
  956EOH      C 3827   4.325   2.778   0.286
  956EOH      C 3828   4.413   2.832   0.172
  956EOH      H 3829   4.164   2.885   0.267
  957EOH      O 3830   1.447   6.686   3.295
  957EOH      C 3831   1.312   6.639   3.304
  957EOH      C 3832   1.285   6.543   3.188
  957EOH      H 3833   1.505   6.618   3.325
  958EOH      O 3834   5.948   2.343   7.221
  958EOH      C 3835   5.854   2.250   7.277
  958EOH      C 3836   5.839   2.129   7.183
  958EOH      H 3837   6.034   2.322   7.252
  959EOH      O 3838   5.020   0.481   2.093
  959EOH      C 3839   5.092   0.482   1.969
  959EOH      C 3840   5.238   0.442   1.996
  959EOH      H 3841   5.015   0.391   2.123
  960EOH      O 3842   4.155   0.742   1.509
  960EOH      C 3843   4.295   0.714   1.505
  960EOH      C 3844   4.340   0.692   1.360
  960EOH      H 3845   4.141   0.828   1.471
  961EOH      O 3846   5.503   4.178   5.919
  961EOH      C 3847   5.544   4.056   5.980
  961EOH      C 3848   5.566   4.079   6.131
  961EOH      H 3849   5.412   4.191   5.938
  962EOH      O 3850   1.761   0.200   2.448
  962EOH      C 3851   1.848   0.204   2.562
  962EOH      C 3852   1.992   0.235   2.516
  962EOH      H 3853   1.751   0.287   2.415
  963EOH      O 3854   1.365   2.646   1.392
  963EOH      C 3855   1.462   2.551   1.346
  963EOH      C 3856   1.558   2.515   1.461
  963EOH      H 3857   1.306   2.600   1.450
  964EOH      O 3858   4.249   3.294   5.764
  964EOH      C 3859   4.359   3.377   5.804
  964EOH      C 3860   4.335   3.520   5.753
  964EOH      H 3861   4.205   3.263   5.842
  965EOH      O 3862   0.981   6.499   3.629
  965EOH      C 3863   0.839   6.514   3.623
  965EOH      C 3864   0.805   6.638   3.537
  965EOH      H 3865   1.009   6.479   3.541
  966EOH      O 3866   6.999   0.077   2.232
  966EOH      C 3867   6.923  -0.037   2.192
  966EOH      C 3868   6.817  -0.066   2.300
  966EOH      H 3869   6.943   0.153   2.231
  967EOH      O 3870   3.338   2.473   2.538
  967EOH      C 3871   3.419   2.559   2.620
  967EOH      C 3872   3.507   2.474   2.714
  967EOH      H 3873   3.395   2.435   2.473
  968EOH      O 3874   5.583   6.839   3.456
  968EOH      C 3875   5.612   6.892   3.327
  968EOH      C 3876   5.622   7.046   3.336
  968EOH      H 3877   5.652   6.866   3.515
  969EOH      O 3878   2.666   1.076   5.312
  969EOH      C 3879   2.574   1.013   5.224
  969EOH      C 3880   2.563   1.094   5.093
  969EOH      H 3881   2.752   1.075   5.272
  970EOH      O 3882   4.223   1.288   1.013
  970EOH      C 3883   4.312   1.399   1.029
  970EOH      C 3884   4.451   1.361   0.974
  970EOH      H 3885   4.203   1.280   0.921
  971EOH      O 3886   3.168   1.901   3.918
  971EOH      C 3887   3.118   2.028   3.961
  971EOH      C 3888   3.230   2.107   4.030
  971EOH      H 3889   3.098   1.857   3.871
  972EOH      O 3890   1.813   6.912   4.156
  972EOH      C 3891   1.777   7.012   4.252
  972EOH      C 3892   1.635   6.984   4.305
  972EOH      H 3893   1.835   6.833   4.204
  973EOH      O 3894   4.381   3.894   2.428
  973EOH      C 3895   4.290   3.887   2.538
  973EOH      C 3896   4.372   3.867   2.667
  973EOH      H 3897   4.469   3.892   2.463
  974EOH      O 3898   2.404   4.878   3.311
  974EOH      C 3899   2.398   4.770   3.216
  974EOH      C 3900   2.253   4.754   3.165
  974EOH      H 3901   2.493   4.885   3.340
  975EOH      O 3902   5.196   0.936   6.302
  975EOH      C 3903   5.259   0.822   6.360
  975EOH      C 3904   5.230   0.818   6.511
  975EOH      H 3905   5.218   0.939   6.210
  976EOH      O 3906   1.304   6.030   7.567
  976EOH      C 3907   1.223   5.912   7.556
  976EOH      C 3908   1.298   5.809   7.469
  976EOH      H 3909   1.252   6.100   7.602
  977EOH      O 3910   0.843   1.121   2.410
  977EOH      C 3911   0.849   1.245   2.482
  977EOH      C 3912   0.993   1.299   2.477
  977EOH      H 3913   0.853   1.141   2.318
  978EOH      O 3914   1.252   6.848   2.918
  978EOH      C 3915   1.285   6.726   2.852
  978EOH      C 3916   1.438   6.705   2.854
  978EOH      H 3917   1.286   6.846   3.006
  979EOH      O 3918   0.948   0.233   5.868
  979EOH      C 3919   1.071   0.207   5.935
  979EOH      C 3920   1.175   0.315   5.898
  979EOH      H 3921   0.882   0.178   5.906
  980EOH      O 3922   5.053   7.453   2.104
  980EOH      C 3923   5.093   7.476   1.969
  980EOH      C 3924   5.209   7.577   1.965
  980EOH      H 3925   5.003   7.373   2.108
  981EOH      O 3926   1.981   7.220   0.356
  981EOH      C 3927   2.074   7.328   0.367
  981EOH      C 3928   2.081   7.404   0.233
  981EOH      H 3929   1.896   7.258   0.337
  982EOH      O 3930   5.123   5.832   5.643
  982EOH      C 3931   5.211   5.728   5.600
  982EOH      C 3932   5.149   5.591   5.631
  982EOH      H 3933   5.044   5.827   5.591
  983EOH      O 3934   7.178   1.520   4.716
  983EOH      C 3935   7.156   1.395   4.782
  983EOH      C 3936   7.193   1.280   4.687
  983EOH      H 3937   7.272   1.534   4.711
  984EOH      O 3938   7.396   1.769   0.668
  984EOH      C 3939   7.411   1.640   0.607
  984EOH      C 3940   7.417   1.532   0.717
  984EOH      H 3941   7.314   1.773   0.714
  985EOH      O 3942   1.923   2.670   2.063
  985EOH      C 3943   2.037   2.756   2.076
  985EOH      C 3944   2.117   2.716   2.201
  985EOH      H 3945   1.925   2.630   1.978
  986EOH      O 3946   3.484   0.834   1.014
  986EOH      C 3947   3.436   0.969   1.006
  986EOH      C 3948   3.543   1.064   1.062
  986EOH      H 3949   3.557   0.826   0.955
  987EOH      O 3950   3.880   6.482   3.022
  987EOH      C 3951   3.829   6.608   2.976
  987EOH      C 3952   3.680   6.622   3.012
  987EOH      H 3953   3.894   6.486   3.115
  988EOH      O 3954   1.575   0.143   2.797
  988EOH      C 3955   1.453   0.216   2.787
  988EOH      C 3956   1.408   0.263   2.927
  988EOH      H 3957   1.645   0.203   2.816
  989EOH      O 3958   0.979   5.254   1.313
  989EOH      C 3959   0.891   5.246   1.201
  989EOH      C 3960   0.782   5.139   1.226
  989EOH      H 3961   0.929   5.284   1.388
  990EOH      O 3962   5.844   2.078   2.271
  990EOH      C 3963   5.800   2.028   2.398
  990EOH      C 3964   5.910   1.940   2.459
  990EOH      H 3965   5.769   2.115   2.228
  991EOH      O 3966   6.311   1.404   1.017
  991EOH      C 3967   6.305   1.295   1.109
  991EOH      C 3968   6.156   1.263   1.133
  991EOH      H 3969   6.224   1.440   1.010
  992EOH      O 3970   1.307   0.234   0.890
  992EOH      C 3971   1.190   0.151   0.886
  992EOH      C 3972   1.101   0.183   1.007
  992EOH      H 3973   1.280   0.323   0.874
  993EOH      O 3974   2.572   4.988   5.932
  993EOH      C 3975   2.569   5.024   5.794
  993EOH      C 3976   2.580   4.896   5.708
  993EOH      H 3977   2.483   4.972   5.960
  994EOH      O 3978   4.294   3.852   0.270
  994EOH      C 3979   4.364   3.849   0.146
  994EOH      C 3980   4.261   3.845   0.031
  994EOH      H 3981   4.262   3.939   0.285
  995EOH      O 3982   2.687   7.518   6.531
  995EOH      C 3983   2.700   7.609   6.640
  995EOH      C 3984   2.582   7.708   6.638
  995EOH      H 3985   2.628   7.449   6.555
  996EOH      O 3986   7.388   4.156   3.382
  996EOH      C 3987   7.248   4.157   3.353
  996EOH      C 3988   7.194   4.301   3.368
  996EOH      H 3989   7.434   4.202   3.314
  997EOH      O 3990   7.617   3.730   7.085
  997EOH      C 3991   7.700   3.615   7.101
  997EOH      C 3992   7.798   3.638   7.218
  997EOH      H 3993   7.551   3.710   7.020
  998EOH      O 3994   2.679   2.341   1.004
  998EOH      C 3995   2.543   2.301   0.993
  998EOH      C 3996   2.451   2.407   1.058
  998EOH      H 3997   2.686   2.431   0.975
  999EOH      O 3998   6.800   2.427   1.654
  999EOH      C 3999   6.826   2.359   1.530
  999EOH      C 4000   6.850   2.462   1.419
  999EOH      H 4001   6.883   2.441   1.697
 1000EOH      O 4002   7.220   0.260   0.582
 1000EOH      C 4003   7.315   0.360   0.546
 1000EOH      C 4004   7.429   0.364   0.650
 1000EOH      H 4005   7.260   0.175   0.569
 1001EOH      O 4006   6.013   4.553   2.226
 1001EOH      C 4007   5.930   4.667   2.203
 1001EOH      C 4008   5.981   4.786   2.287
 1001EOH      H 4009   6.101   4.574   2.201
 1002EOH      O 4010   2.273   5.396   6.212
 1002EOH      C 4011   2.383   5.368   6.125
 1002EOH      C 4012   2.435   5.225   6.153
 1002EOH      H 4013   2.198   5.349   6.180
 1003EOH      O 4014   0.753   1.841   4.280
 1003EOH      C 4015   0.873   1.797   4.346
 1003EOH      C 4016   0.989   1.797   4.245
 1003EOH      H 4017   0.744   1.934   4.294
 1004EOH      O 4018   4.895   0.949   4.506
 1004EOH      C 4019   4.779   0.924   4.425
 1004EOH      C 4020   4.704   0.801   4.479
 1004EOH      H 4021   4.867   0.970   4.593
 1005EOH      O 4022   6.635   1.111   7.661
 1005EOH      C 4023   6.751   1.028   7.673
 1005EOH      C 4024   6.821   1.017   7.537
 1005EOH      H 4025   6.663   1.201   7.647
 1006EOH      O 4026   5.097   0.685   1.667
 1006EOH      C 4027   5.220   0.647   1.605
 1006EOH      C 4028   5.220   0.694   1.458
 1006EOH      H 4029   5.100   0.778   1.686
 1007EOH      O 4030   1.123   7.102   1.787
 1007EOH      C 4031   1.139   7.229   1.723
 1007EOH      C 4032   1.233   7.317   1.809
 1007EOH      H 4033   1.201   7.050   1.772
 1008EOH      O 4034   6.215   1.675   0.012
 1008EOH      C 4035   6.089   1.649  -0.049
 1008EOH      C 4036   5.983   1.622   0.060
 1008EOH      H 4037   6.206   1.755   0.063
 1009EOH      O 4038   1.360   1.223   5.137
 1009EOH      C 4039   1.277   1.339   5.135
 1009EOH      C 4040   1.340   1.448   5.224
 1009EOH      H 4041   1.443   1.248   5.100
 1010EOH      O 4042   2.611   6.066   2.421
 1010EOH      C 4043   2.521   5.960   2.458
 1010EOH      C 4044   2.431   6.006   2.574
 1010EOH      H 4045   2.571   6.111   2.348
 1011EOH      O 4046   2.317   6.990   3.484
 1011EOH      C 4047   2.221   6.886   3.499
 1011EOH      C 4048   2.259   6.765   3.411
 1011EOH      H 4049   2.396   6.966   3.530
 1012EOH      O 4050   2.190   1.638   0.364
 1012EOH      C 4051   2.278   1.558   0.442
 1012EOH      C 4052   2.218   1.417   0.459
 1012EOH      H 4053   2.213   1.626   0.273
 1013EOH      O 4054   4.085   0.283   3.247
 1013EOH      C 4055   4.080   0.338   3.115
 1013EOH      C 4056   4.096   0.491   3.123
 1013EOH      H 4057   4.168   0.306   3.286
 1014EOH      O 4058   1.685   4.601   5.673
 1014EOH      C 4059   1.650   4.466   5.641
 1014EOH      C 4060   1.776   4.385   5.604
 1014EOH      H 4061   1.760   4.598   5.730
 1015EOH      O 4062   6.576   5.069   5.721
 1015EOH      C 4063   6.551   4.966   5.625
 1015EOH      C 4064   6.497   4.840   5.696
 1015EOH      H 4065   6.496   5.119   5.734
 1016EOH      O 4066   2.111   5.503   3.351
 1016EOH      C 4067   2.186   5.625   3.353
 1016EOH      C 4068   2.315   5.608   3.270
 1016EOH      H 4069   2.026   5.521   3.388
 1017EOH      O 4070   3.446   4.879   4.197
 1017EOH      C 4071   3.365   4.976   4.130
 1017EOH      C 4072   3.432   5.114   4.141
 1017EOH      H 4073   3.389   4.822   4.246
 1018EOH      O 4074   7.734   0.963   6.836
 1018EOH      C 4075   7.804   0.857   6.770
 1018EOH      C 4076   7.884   0.776   6.874
 1018EOH      H 4077   7.666   0.995   6.778
 1019EOH      O 4078   4.372   5.672   4.220
 1019EOH      C 4079   4.376   5.814   4.241
 1019EOH      C 4080   4.495   5.873   4.163
 1019EOH      H 4081   4.362   5.657   4.127
 1020EOH      O 4082   3.101   3.831   6.860
 1020EOH      C 4083   2.998   3.895   6.784
 1020EOH      C 4084   2.897   3.789   6.736
 1020EOH      H 4085   3.064   3.807   6.944
 1021EOH      O 4086   1.113   2.043   1.470
 1021EOH      C 4087   1.248   2.088   1.484
 1021EOH      C 4088   1.251   2.217   1.569
 1021EOH      H 4089   1.087   1.995   1.547
 1022EOH      O 4090   7.355   2.975   2.539
 1022EOH      C 4091   7.219   2.955   2.578
 1022EOH      C 4092   7.192   2.805   2.600
 1022EOH      H 4093   7.409   2.916   2.589
 1023EOH      O 4094   5.638   0.909   7.330
 1023EOH      C 4095   5.686   1.038   7.290
 1023EOH      C 4096   5.684   1.049   7.136
 1023EOH      H 4097   5.543   0.911   7.329
 1024EOH      O 4098   1.143   1.627   0.001
 1024EOH      C 4099   1.232   1.524  -0.044
 1024EOH      C 4100   1.307   1.465   0.076
 1024EOH      H 4101   1.082   1.645  -0.069
 1025EOH      O 4102   6.989   7.890   4.359
 1025EOH      C 4103   7.079   7.949   4.453
 1025EOH      C 4104   7.205   8.000   4.381
 1025EOH      H 4105   6.972   7.953   4.291
 1026EOH      O 4106   1.791   6.349   1.055
 1026EOH      C 4107   1.814   6.454   0.961
 1026EOH      C 4108   1.934   6.538   1.010
 1026EOH      H 4109   1.863   6.288   1.050
 1027EOH      O 4110   7.027   5.527   4.575
 1027EOH      C 4111   6.899   5.589   4.588
 1027EOH      C 4112   6.791   5.496   4.529
 1027EOH      H 4113   7.091   5.584   4.615
 1028EOH      O 4114   2.705   3.039   6.291
 1028EOH      C 4115   2.832   3.003   6.235
 1028EOH      C 4116   2.913   2.925   6.339
 1028EOH      H 4117   2.650   2.962   6.292
 1029EOH      O 4118   0.107   2.189   5.803
 1029EOH      C 4119   0.084   2.329   5.822
 1029EOH      C 4120   0.143   2.408   5.704
 1029EOH      H 4121   0.051   2.159   5.733
 1030EOH      O 4122   1.347   5.273   1.608
 1030EOH      C 4123   1.329   5.133   1.588
 1030EOH      C 4124   1.260   5.072   1.712
 1030EOH      H 4125   1.262   5.312   1.621
 1031EOH      O 4126   3.720   5.264   7.358
 1031EOH      C 4127   3.681   5.185   7.246
 1031EOH      C 4128   3.545   5.118   7.272
 1031EOH      H 4129   3.642   5.304   7.395
 1032EOH      O 4130   0.061   7.083   6.933
 1032EOH      C 4131   0.171   6.992   6.924
 1032EOH      C 4132   0.259   7.007   7.049
 1032EOH      H 4133   0.010   7.060   7.009
 1033EOH      O 4134   6.703   5.694   7.711
 1033EOH      C 4135   6.778   5.714   7.591
 1033EOH      C 4136   6.869   5.837   7.606
 1033EOH      H 4137   6.737   5.618   7.754
 1034EOH      O 4138   6.654   0.430   4.975
 1034EOH      C 4139   6.531   0.357   4.985
 1034EOH      C 4140   6.519   0.263   4.864
 1034EOH      H 4141   6.725   0.371   4.996
 1035EOH      O 4142   6.822   0.704   2.235
 1035EOH      C 4143   6.704   0.641   2.283
 1035EOH      C 4144   6.625   0.585   2.163
 1035EOH      H 4145   6.876   0.638   2.195
 1036EOH      O 4146   5.873   1.182   2.119
 1036EOH      C 4147   5.806   1.227   2.237
 1036EOH      C 4148   5.655   1.197   2.226
 1036EOH      H 4149   5.875   1.087   2.121
 1037EOH      O 4150   7.817   1.021   0.875
 1037EOH      C 4151   7.957   1.052   0.876
 1037EOH      C 4152   8.035   0.938   0.809
 1037EOH      H 4153   7.789   1.013   0.785
 1038EOH      O 4154   4.039   3.580   2.742
 1038EOH      C 4155   4.160   3.551   2.673
 1038EOH      C 4156   4.131   3.512   2.527
 1038EOH      H 4157   3.988   3.640   2.688
 1039EOH      O 4158   0.575   5.597   1.558
 1039EOH      C 4159   0.472   5.628   1.654
 1039EOH      C 4160   0.367   5.515   1.653
 1039EOH      H 4161   0.632   5.532   1.596
 1040EOH      O 4162   0.316   1.051   6.532
 1040EOH      C 4163   0.293   0.996   6.662
 1040EOH      C 4164   0.276   0.844   6.648
 1040EOH      H 4165   0.349   0.981   6.478
 1041EOH      O 4166   3.266   4.809   6.363
 1041EOH      C 4167   3.337   4.917   6.301
 1041EOH      C 4168   3.457   4.958   6.387
 1041EOH      H 4169   3.327   4.739   6.379
 1042EOH      O 4170   6.096   1.661   4.754
 1042EOH      C 4171   5.992   1.620   4.844
 1042EOH      C 4172   5.990   1.715   4.965
 1042EOH      H 4173   6.098   1.600   4.682
 1043EOH      O 4174   4.800   2.381   0.457
 1043EOH      C 4175   4.665   2.389   0.504
 1043EOH      C 4176   4.637   2.271   0.599
 1043EOH      H 4177   4.813   2.453   0.397
 1044EOH      O 4178   0.811   3.137   2.757
 1044EOH      C 4179   0.941   3.143   2.814
 1044EOH      C 4180   0.932   3.180   2.963
 1044EOH      H 4181   0.770   3.057   2.786
 1045EOH      O 4182   5.653   4.201   3.848
 1045EOH      C 4183   5.651   4.068   3.900
 1045EOH      C 4184   5.768   3.987   3.842
 1045EOH      H 4185   5.730   4.245   3.881
 1046EOH      O 4186   1.239   0.759   1.776
 1046EOH      C 4187   1.154   0.686   1.865
 1046EOH      C 4188   1.050   0.607   1.784
 1046EOH      H 4189   1.299   0.697   1.737
 1047EOH      O 4190   2.736   0.014   7.629
 1047EOH      C 4191   2.632   0.049   7.537
 1047EOH      C 4192   2.517   0.117   7.613
 1047EOH      H 4193   2.764   0.093   7.671
 1048EOH      O 4194   7.002   4.575   2.414
 1048EOH      C 4195   6.925   4.514   2.518
 1048EOH      C 4196   7.016   4.483   2.638
 1048EOH      H 4197   7.025   4.662   2.442
 1049EOH      O 4198   5.379   0.294   2.333
 1049EOH      C 4199   5.494   0.212   2.312
 1049EOH      C 4200   5.534   0.145   2.445
 1049EOH      H 4201   5.308   0.237   2.359
 1050EOH      O 4202   0.465   1.585   1.418
 1050EOH      C 4203   0.434   1.691   1.328
 1050EOH      C 4204   0.421   1.822   1.408
 1050EOH      H 4205   0.490   1.510   1.366
 1051EOH      O 4206   4.279   3.424   6.237
 1051EOH      C 4207   4.198   3.308   6.258
 1051EOH      C 4208   4.228   3.204   6.148
 1051EOH      H 4209   4.368   3.403   6.263
 1052EOH      O 4210   6.126   5.643   1.739
 1052EOH      C 4211   6.185   5.657   1.868
 1052EOH      C 4212   6.271   5.785   1.872
 1052EOH      H 4213   6.054   5.703   1.731
 1053EOH      O 4214   1.497   6.202   3.091
 1053EOH      C 4215   1.398   6.099   3.104
 1053EOH      C 4216   1.303   6.135   3.220
 1053EOH      H 4217   1.548   6.183   3.014
 1054EOH      O 4218   3.465   0.405   0.303
 1054EOH      C 4219   3.587   0.422   0.376
 1054EOH      C 4220   3.562   0.393   0.525
 1054EOH      H 4221   3.433   0.318   0.320
 1055EOH      O 4222   0.966   2.643   3.724
 1055EOH      C 4223   0.853   2.557   3.737
 1055EOH      C 4224   0.882   2.422   3.669
 1055EOH      H 4225   1.044   2.593   3.741
 1056EOH      O 4226   6.943   0.471   6.271
 1056EOH      C 4227   6.830   0.454   6.185
 1056EOH      C 4228   6.823   0.309   6.136
 1056EOH      H 4229   6.956   0.390   6.318
 1057EOH      O 4230   0.017   4.114   4.035
 1057EOH      C 4231   0.139   4.041   4.045
 1057EOH      C 4232   0.142   3.927   3.941
 1057EOH      H 4233   0.021   4.171   3.959
 1058EOH      O 4234   7.220   0.100   3.014
 1058EOH      C 4235   7.185   0.187   3.122
 1058EOH      C 4236   7.035   0.219   3.114
 1058EOH      H 4237   7.161   0.026   3.017
 1059EOH      O 4238   5.239   2.127   2.375
 1059EOH      C 4239   5.309   2.235   2.312
 1059EOH      C 4240   5.288   2.226   2.160
 1059EOH      H 4241   5.146   2.141   2.364
 1060EOH      O 4242   6.781   1.160   3.468
 1060EOH      C 4243   6.868   1.065   3.407
 1060EOH      C 4244   6.888   0.946   3.503
 1060EOH      H 4245   6.692   1.127   3.463
 1061EOH      O 4246   4.092   5.085   1.644
 1061EOH      C 4247   4.213   5.058   1.715
 1061EOH      C 4248   4.178   5.005   1.856
 1061EOH      H 4249   4.044   5.003   1.638
 1062EOH      O 4250   5.541   1.137   5.311
 1062EOH      C 4251   5.574   1.071   5.434
 1062EOH      C 4252   5.445   1.052   5.516
 1062EOH      H 4253   5.475   1.086   5.266
 1063EOH      O 4254   2.927   3.927   0.987
 1063EOH      C 4255   2.859   3.948   1.112
 1063EOH      C 4256   2.885   3.830   1.206
 1063EOH      H 4257   2.916   4.005   0.935
 1064EOH      O 4258   3.585   5.047   0.307
 1064EOH      C 4259   3.498   4.934   0.298
 1064EOH      C 4260   3.356   4.982   0.261
 1064EOH      H 4261   3.632   5.055   0.225
 1065EOH      O 4262   2.975   2.641   4.012
 1065EOH      C 4263   3.044   2.704   3.903
 1065EOH      C 4264   3.034   2.857   3.918
 1065EOH      H 4265   3.037   2.585   4.056
 1066EOH      O 4266   2.597   1.007   1.478
 1066EOH      C 4267   2.482   0.938   1.530
 1066EOH      C 4268   2.463   0.806   1.452
 1066EOH      H 4269   2.672   0.951   1.487
 1067EOH      O 4270   0.583   1.451   6.169
 1067EOH      C 4271   0.484   1.494   6.076
 1067EOH      C 4272   0.465   1.384   5.970
 1067EOH      H 4273   0.545   1.382   6.221
 1068EOH      O 4274   5.542   1.069   4.166
 1068EOH      C 4275   5.489   1.103   4.038
 1068EOH      C 4276   5.599   1.088   3.931
 1068EOH      H 4277   5.536   0.975   4.175
 1069EOH      O 4278   5.943   3.534   0.346
 1069EOH      C 4279   6.075   3.532   0.401
 1069EOH      C 4280   6.174   3.588   0.298
 1069EOH      H 4281   5.922   3.624   0.326
 1070EOH      O 4282   3.024   2.363   4.858
 1070EOH      C 4283   2.948   2.361   4.979
 1070EOH      C 4284   2.971   2.228   5.054
 1070EOH      H 4285   3.115   2.372   4.880
 1071EOH      O 4286   2.337   3.885   6.532
 1071EOH      C 4287   2.412   3.792   6.453
 1071EOH      C 4288   2.507   3.712   6.544
 1071EOH      H 4289   2.250   3.890   6.495
 1072EOH      O 4290   6.591   1.534   3.562
 1072EOH      C 4291   6.589   1.470   3.690
 1072EOH      C 4292   6.556   1.321   3.672
 1072EOH      H 4293   6.596   1.627   3.576
 1073EOH      O 4294   6.416   7.271   7.016
 1073EOH      C 4295   6.497   7.159   6.979
 1073EOH      C 4296   6.618   7.208   6.898
 1073EOH      H 4297   6.469   7.326   7.073
 1074EOH      O 4298   5.954   0.426   1.333
 1074EOH      C 4299   5.866   0.537   1.316
 1074EOH      C 4300   5.861   0.620   1.446
 1074EOH      H 4301   5.940   0.367   1.261
 1075EOH      O 4302   4.878   5.882   4.547
 1075EOH      C 4303   4.770   5.844   4.462
 1075EOH      C 4304   4.641   5.829   4.545
 1075EOH      H 4305   4.958   5.857   4.503
 1076EOH      O 4306   2.539   4.263   0.366
 1076EOH      C 4307   2.564   4.254   0.226
 1076EOH      C 4308   2.446   4.314   0.148
 1076EOH      H 4309   2.530   4.355   0.387
 1077EOH      O 4310   6.935   0.929   3.924
 1077EOH      C 4311   6.835   0.829   3.944
 1077EOH      C 4312   6.703   0.873   3.878
 1077EOH      H 4313   6.945   0.943   3.831
 1078EOH      O 4314   3.292   6.075   5.953
 1078EOH      C 4315   3.171   6.024   6.012
 1078EOH      C 4316   3.128   5.897   5.936
 1078EOH      H 4317   3.361   6.014   5.972
 1079EOH      O 4318   5.749   7.177   7.179
 1079EOH      C 4319   5.891   7.168   7.168
 1079EOH      C 4320   5.947   7.092   7.290
 1079EOH      H 4321   5.713   7.090   7.168
 1080EOH      O 4322   4.811   5.047   4.458
 1080EOH      C 4323   4.916   5.064   4.554
 1080EOH      C 4324   4.997   5.190   4.518
 1080EOH      H 4325   4.737   5.097   4.487
 1081EOH      O 4326   1.695   0.254   3.908
 1081EOH      C 4327   1.662   0.382   3.855
 1081EOH      C 4328   1.726   0.491   3.943
 1081EOH      H 4329   1.783   0.233   3.880
 1082EOH      O 4330   6.342   6.961   2.593
 1082EOH      C 4331   6.470   7.025   2.590
 1082EOH      C 4332   6.492   7.092   2.454
 1082EOH      H 4333   6.311   6.963   2.682
 1083EOH      O 4334   2.104   0.079   5.118
 1083EOH      C 4335   1.980   0.144   5.147
 1083EOH      C 4336   2.005   0.267   5.236
 1083EOH      H 4337   2.153   0.134   5.059
 1084EOH      O 4338   0.459   3.289   2.652
 1084EOH      C 4339   0.453   3.153   2.696
 1084EOH      C 4340   0.521   3.061   2.593
 1084EOH      H 4341   0.550   3.309   2.635
 1085EOH      O 4342   2.984   0.688   1.994
 1085EOH      C 4343   3.106   0.625   2.035
 1085EOH      C 4344   3.162   0.541   1.919
 1085EOH      H 4345   3.001   0.742   1.919
 1086EOH      O 4346   7.518   3.585   0.699
 1086EOH      C 4347   7.658   3.578   0.728
 1086EOH      C 4348   7.698   3.430   0.734
 1086EOH      H 4349   7.507   3.604   0.607
 1087EOH      O 4350   3.705   2.119   1.932
 1087EOH      C 4351   3.626   2.052   1.834
 1087EOH      C 4352   3.501   1.991   1.900
 1087EOH      H 4353   3.664   2.202   1.952
 1088EOH      O 4354   4.772   0.778   3.139
 1088EOH      C 4355   4.649   0.708   3.122
 1088EOH      C 4356   4.592   0.669   3.260
 1088EOH      H 4357   4.754   0.857   3.188
 1089EOH      O 4358   2.768   0.903   2.711
 1089EOH      C 4359   2.866   0.801   2.733
 1089EOH      C 4360   2.916   0.808   2.878
 1089EOH      H 4361   2.682   0.869   2.731
 1090EOH      O 4362   3.641   7.829   4.163
 1090EOH      C 4363   3.762   7.904   4.175
 1090EOH      C 4364   3.775   8.001   4.056
 1090EOH      H 4365   3.569   7.890   4.165
 1091EOH      O 4366   4.574   5.209   4.805
 1091EOH      C 4367   4.448   5.144   4.824
 1091EOH      C 4368   4.452   5.002   4.765
 1091EOH      H 4369   4.641   5.152   4.840
 1092EOH      O 4370   2.318   4.768   4.963
 1092EOH      C 4371   2.214   4.804   5.055
 1092EOH      C 4372   2.157   4.941   5.013
 1092EOH      H 4373   2.281   4.703   4.905
 1093EOH      O 4374   7.319   2.288   4.332
 1093EOH      C 4375   7.369   2.156   4.355
 1093EOH      C 4376   7.256   2.065   4.408
 1093EOH      H 4377   7.390   2.341   4.301
 1094EOH      O 4378   4.318   0.124   5.856
 1094EOH      C 4379   4.327   0.181   5.725
 1094EOH      C 4380   4.374   0.073   5.625
 1094EOH      H 4381   4.243   0.067   5.860
 1095EOH      O 4382   6.470   5.791   5.765
 1095EOH      C 4383   6.470   5.789   5.908
 1095EOH      C 4384   6.466   5.934   5.960
 1095EOH      H 4385   6.462   5.703   5.733
 1096EOH      O 4386   3.647   3.075   5.078
 1096EOH      C 4387   3.712   3.178   5.154
 1096EOH      C 4388   3.862   3.148   5.164
 1096EOH      H 4389   3.683   3.075   4.991
 1097EOH      O 4390   7.318   0.026   0.554
 1097EOH      C 4391   7.434   0.001   0.474
 1097EOH      C 4392   7.549  -0.049   0.565
 1097EOH      H 4393   7.286  -0.056   0.586
 1098EOH      O 4394   1.217   0.395   5.075
 1098EOH      C 4395   1.255   0.393   5.213
 1098EOH      C 4396   1.406   0.422   5.227
 1098EOH      H 4397   1.243   0.478   5.039
 1099EOH      O 4398   2.263   4.333   3.041
 1099EOH      C 4399   2.238   4.442   2.952
 1099EOH      C 4400   2.269   4.400   2.807
 1099EOH      H 4401   2.194   4.270   3.030
 1100EOH      O 4402   1.978   0.276   6.793
 1100EOH      C 4403   1.958   0.400   6.863
 1100EOH      C 4404   1.808   0.430   6.874
 1100EOH      H 4405   1.961   0.206   6.855
 1101EOH      O 4406   5.258   3.073   3.756
 1101EOH      C 4407   5.341   3.149   3.844
 1101EOH      C 4408   5.449   3.222   3.762
 1101EOH      H 4409   5.176   3.119   3.747
 1102EOH      O 4410   4.539   0.423   2.591
 1102EOH      C 4411   4.605   0.304   2.634
 1102EOH      C 4412   4.586   0.193   2.528
 1102EOH      H 4413   4.606   0.482   2.559
 1103EOH      O 4414   1.113   5.227   5.518
 1103EOH      C 4415   1.243   5.186   5.561
 1103EOH      C 4416   1.308   5.095   5.456
 1103EOH      H 4417   1.122   5.299   5.458
 1104EOH      O 4418   6.711   6.744   0.169
 1104EOH      C 4419   6.593   6.822   0.193
 1104EOH      C 4420   6.630   6.971   0.205
 1104EOH      H 4421   6.682   6.656   0.151
 1105EOH      O 4422   1.616   6.385   4.852
 1105EOH      C 4423   1.744   6.356   4.794
 1105EOH      C 4424   1.821   6.260   4.886
 1105EOH      H 4425   1.570   6.304   4.862
 1106EOH      O 4426   3.996   5.318   1.605
 1106EOH      C 4427   4.035   5.354   1.473
 1106EOH      C 4428   4.189   5.364   1.467
 1106EOH      H 4429   4.031   5.232   1.624
 1107EOH      O 4430   4.810   6.984   2.654
 1107EOH      C 4431   4.683   7.050   2.642
 1107EOH      C 4432   4.676   7.166   2.743
 1107EOH      H 4433   4.878   7.047   2.637
 1108EOH      O 4434   1.906   3.944   4.991
 1108EOH      C 4435   1.826   3.899   5.100
 1108EOH      C 4436   1.770   3.759   5.070
 1108EOH      H 4437   1.957   4.018   5.022
 1109EOH      O 4438   0.064   0.326   0.291
 1109EOH      C 4439   0.069   0.184   0.305
 1109EOH      C 4440  -0.068   0.131   0.350
 1109EOH      H 4441  -0.004   0.347   0.229
 1110EOH      O 4442   4.309   5.146   2.639
 1110EOH      C 4443   4.335   5.269   2.571
 1110EOH      C 4444   4.283   5.387   2.656
 1110EOH      H 4445   4.363   5.079   2.600
 1111EOH      O 4446   2.950   2.768   7.538
 1111EOH      C 4447   2.982   2.761   7.677
 1111EOH      C 4448   2.869   2.687   7.750
 1111EOH      H 4449   2.967   2.683   7.500
 1112EOH      O 4450   2.957   5.425   0.896
 1112EOH      C 4451   2.835   5.375   0.841
 1112EOH      C 4452   2.863   5.245   0.764
 1112EOH      H 4453   2.975   5.378   0.976
 1113EOH      O 4454   2.837   7.179   3.249
 1113EOH      C 4455   2.716   7.220   3.185
 1113EOH      C 4456   2.610   7.257   3.291
 1113EOH      H 4457   2.872   7.106   3.201
 1114EOH      O 4458   7.792   0.081   4.934
 1114EOH      C 4459   7.716   0.078   4.813
 1114EOH      C 4460   7.634   0.208   4.803
 1114EOH      H 4461   7.855   0.151   4.928
 1115EOH      O 4462   6.784   2.088   6.052
 1115EOH      C 4463   6.912   2.140   6.016
 1115EOH      C 4464   7.007   2.132   6.136
 1115EOH      H 4465   6.795   1.999   6.081
 1116EOH      O 4466   5.745   4.802   3.114
 1116EOH      C 4467   5.700   4.936   3.093
 1116EOH      C 4468   5.699   4.968   2.942
 1116EOH      H 4469   5.675   4.742   3.096
 1117EOH      O 4470   0.554   4.933   6.895
 1117EOH      C 4471   0.474   4.817   6.914
 1117EOH      C 4472   0.337   4.861   6.969
 1117EOH      H 4473   0.585   4.935   6.806
 1118EOH      O 4474   4.090   4.986   2.175
 1118EOH      C 4475   4.198   4.943   2.258
 1118EOH      C 4476   4.324   5.024   2.225
 1118EOH      H 4477   4.057   5.068   2.207
 1119EOH      O 4478   1.271   1.733   1.316
 1119EOH      C 4479   1.128   1.740   1.324
 1119EOH      C 4480   1.070   1.598   1.313
 1119EOH      H 4481   1.303   1.695   1.396
 1120EOH      O 4482   2.529   1.519   2.913
 1120EOH      C 4483   2.539   1.391   2.852
 1120EOH      C 4484   2.475   1.285   2.943
 1120EOH      H 4485   2.441   1.551   2.899
 1121EOH      O 4486   1.764   4.635   7.172
 1121EOH      C 4487   1.872   4.684   7.092
 1121EOH      C 4488   2.002   4.624   7.149
 1121EOH      H 4489   1.758   4.691   7.248
 1122EOH      O 4490   3.679   4.302   4.275
 1122EOH      C 4491   3.767   4.292   4.388
 1122EOH      C 4492   3.766   4.426   4.463
 1122EOH      H 4493   3.593   4.327   4.307
 1123EOH      O 4494   7.833   6.874   3.437
 1123EOH      C 4495   7.952   6.828   3.501
 1123EOH      C 4496   8.072   6.851   3.406
 1123EOH      H 4497   7.845   6.963   3.410
 1124EOH      O 4498   1.087   7.796   7.831
 1124EOH      C 4499   1.010   7.693   7.893
 1124EOH      C 4500   0.968   7.586   7.790
 1124EOH      H 4501   1.173   7.763   7.808
 1125EOH      O 4502   0.593   0.657   0.176
 1125EOH      C 4503   0.712   0.590   0.133
 1125EOH      C 4504   0.713   0.581  -0.020
 1125EOH      H 4505   0.598   0.671   0.269
 1126EOH      O 4506   2.192   4.830   2.604
 1126EOH      C 4507   2.295   4.929   2.589
 1126EOH      C 4508   2.259   5.025   2.474
 1126EOH      H 4509   2.152   4.845   2.688
 1127EOH      O 4510   7.845   1.463   3.008
 1127EOH      C 4511   7.965   1.541   3.014
 1127EOH      C 4512   8.036   1.539   2.878
 1127EOH      H 4513   7.808   1.457   3.095
 1128EOH      O 4514   7.265   0.824   1.202
 1128EOH      C 4515   7.213   0.779   1.077
 1128EOH      C 4516   7.100   0.678   1.104
 1128EOH      H 4517   7.202   0.884   1.241
 1129EOH      O 4518   5.695   5.658   5.834
 1129EOH      C 4519   5.580   5.607   5.767
 1129EOH      C 4520   5.469   5.584   5.871
 1129EOH      H 4521   5.721   5.739   5.792
 1130EOH      O 4522   2.430   4.759   4.615
 1130EOH      C 4523   2.532   4.787   4.711
 1130EOH      C 4524   2.549   4.939   4.724
 1130EOH      H 4525   2.351   4.802   4.645
 1131EOH      O 4526   5.039   4.383   0.035
 1131EOH      C 4527   5.010   4.243   0.033
 1131EOH      C 4528   5.000   4.195  -0.113
 1131EOH      H 4529   5.129   4.394   0.006
 1132EOH      O 4530   1.079   7.664   2.827
 1132EOH      C 4531   1.182   7.762   2.813
 1132EOH      C 4532   1.290   7.711   2.717
 1132EOH      H 4533   1.041   7.648   2.742
 1133EOH      O 4534   6.619   2.790   7.127
 1133EOH      C 4535   6.749   2.843   7.154
 1133EOH      C 4536   6.791   2.942   7.044
 1133EOH      H 4537   6.555   2.850   7.162
 1134EOH      O 4538   4.400   1.022   4.735
 1134EOH      C 4539   4.365   0.922   4.832
 1134EOH      C 4540   4.260   0.827   4.772
 1134EOH      H 4541   4.475   0.990   4.689
 1135EOH      O 4542   4.957   7.502   3.842
 1135EOH      C 4543   4.908   7.457   3.968
 1135EOH      C 4544   5.026   7.409   4.056
 1135EOH      H 4545   5.013   7.577   3.858
 1136EOH      O 4546   3.996   2.197   7.515
 1136EOH      C 4547   4.107   2.155   7.595
 1136EOH      C 4548   4.215   2.092   7.505
 1136EOH      H 4549   4.013   2.283   7.481
 1137EOH      O 4550   5.369   1.205   7.261
 1137EOH      C 4551   5.289   1.096   7.215
 1137EOH      C 4552   5.283   1.098   7.061
 1137EOH      H 4553   5.441   1.215   7.201
 1138EOH      O 4554   1.978   4.851   1.784
 1138EOH      C 4555   1.976   4.709   1.775
 1138EOH      C 4556   2.061   4.649   1.888
 1138EOH      H 4557   1.922   4.877   1.856
 1139EOH      O 4558   3.746   5.888   1.167
 1139EOH      C 4559   3.663   5.774   1.147
 1139EOH      C 4560   3.711   5.698   1.022
 1139EOH      H 4561   3.835   5.856   1.175
 1140EOH      O 4562   6.546   0.577   2.997
 1140EOH      C 4563   6.626   0.507   3.092
 1140EOH      C 4564   6.673   0.373   3.032
 1140EOH      H 4565   6.599   0.593   2.920
 1141EOH      O 4566   2.346   5.333   1.047
 1141EOH      C 4567   2.349   5.372   0.909
 1141EOH      C 4568   2.270   5.502   0.889
 1141EOH      H 4569   2.393   5.398   1.097
 1142EOH      O 4570   2.277   0.296   4.953
 1142EOH      C 4571   2.198   0.389   4.879
 1142EOH      C 4572   2.181   0.518   4.962
 1142EOH      H 4573   2.363   0.334   4.962
 1143EOH      O 4574   4.646   6.195   1.920
 1143EOH      C 4575   4.689   6.110   2.026
 1143EOH      C 4576   4.754   5.984   1.966
 1143EOH      H 4577   4.724   6.225   1.874
 1144EOH      O 4578   5.641   3.581   5.239
 1144EOH      C 4579   5.658   3.530   5.106
 1144EOH      C 4580   5.662   3.646   5.005
 1144EOH      H 4581   5.710   3.644   5.255
 1145EOH      O 4582   4.771   3.601   3.938
 1145EOH      C 4583   4.710   3.672   3.830
 1145EOH      C 4584   4.819   3.744   3.747
 1145EOH      H 4585   4.851   3.563   3.904
 1146EOH      O 4586   5.751   3.159   7.865
 1146EOH      C 4587   5.646   3.079   7.811
 1146EOH      C 4588   5.543   3.169   7.741
 1146EOH      H 4589   5.796   3.200   7.793
 1147EOH      O 4590   6.862   2.674   1.123
 1147EOH      C 4591   6.833   2.588   1.013
 1147EOH      C 4592   6.894   2.645   0.883
 1147EOH      H 4593   6.951   2.659   1.152
 1148EOH      O 4594   2.710   3.944   3.858
 1148EOH      C 4595   2.755   4.035   3.757
 1148EOH      C 4596   2.675   4.014   3.627
 1148EOH      H 4597   2.616   3.937   3.850
 1149EOH      O 4598   0.024   0.583   7.714
 1149EOH      C 4599   0.136   0.670   7.694
 1149EOH      C 4600   0.181   0.727   7.830
 1149EOH      H 4601   0.056   0.502   7.751
 1150EOH      O 4602   5.651   6.435   3.613
 1150EOH      C 4603   5.641   6.570   3.659
 1150EOH      C 4604   5.670   6.576   3.810
 1150EOH      H 4605   5.606   6.427   3.530
 1151EOH      O 4606   3.912   7.605   5.716
 1151EOH      C 4607   4.031   7.685   5.714
 1151EOH      C 4608   4.009   7.810   5.801
 1151EOH      H 4609   3.910   7.558   5.797
 1152EOH      O 4610   4.224   3.587   7.250
 1152EOH      C 4611   4.086   3.561   7.224
 1152EOH      C 4612   4.031   3.662   7.122
 1152EOH      H 4613   4.265   3.509   7.282
 1153EOH      O 4614   3.352   5.637   5.763
 1153EOH      C 4615   3.406   5.748   5.691
 1153EOH      C 4616   3.559   5.750   5.709
 1153EOH      H 4617   3.393   5.558   5.730
 1154EOH      O 4618   5.177   7.427   3.555
 1154EOH      C 4619   5.218   7.326   3.462
 1154EOH      C 4620   5.333   7.378   3.374
 1154EOH      H 4621   5.117   7.388   3.617
 1155EOH      O 4622   4.703   3.749   7.685
 1155EOH      C 4623   4.729   3.612   7.653
 1155EOH      C 4624   4.696   3.586   7.505
 1155EOH      H 4625   4.764   3.802   7.636
 1156EOH      O 4626   5.509   5.624   2.024
 1156EOH      C 4627   5.578   5.624   1.899
 1156EOH      C 4628   5.476   5.615   1.785
 1156EOH      H 4629   5.482   5.713   2.042
 1157EOH      O 4630   7.236   0.887   6.477
 1157EOH      C 4631   7.333   0.991   6.495
 1157EOH      C 4632   7.472   0.928   6.512
 1157EOH      H 4633   7.232   0.864   6.385
 1158EOH      O 4634   7.229   2.740   2.118
 1158EOH      C 4635   7.179   2.611   2.154
 1158EOH      C 4636   7.177   2.521   2.029
 1158EOH      H 4637   7.318   2.728   2.088
 1159EOH      O 4638   1.120   3.538   6.495
 1159EOH      C 4639   1.173   3.587   6.371
 1159EOH      C 4640   1.137   3.489   6.258
 1159EOH      H 4641   1.026   3.532   6.485
 1160EOH      O 4642   0.301   4.705   4.474
 1160EOH      C 4643   0.322   4.614   4.365
 1160EOH      C 4644   0.186   4.574   4.305
 1160EOH      H 4645   0.269   4.787   4.439
 1161EOH      O 4646   7.407   0.463   1.575
 1161EOH      C 4647   7.502   0.396   1.491
 1161EOH      C 4648   7.442   0.374   1.351
 1161EOH      H 4649   7.407   0.554   1.552
 1162EOH      O 4650   0.089   1.743   2.272
 1162EOH      C 4651   0.169   1.663   2.185
 1162EOH      C 4652   0.080   1.557   2.118
 1162EOH      H 4653   0.038   1.802   2.219
 1163EOH      O 4654   7.437   3.044   3.969
 1163EOH      C 4655   7.335   3.091   3.882
 1163EOH      C 4656   7.389   3.106   3.739
 1163EOH      H 4657   7.453   2.953   3.947
 1164EOH      O 4658   5.721   3.315   2.283
 1164EOH      C 4659   5.699   3.308   2.141
 1164EOH      C 4660   5.558   3.361   2.109
 1164EOH      H 4661   5.720   3.407   2.307
 1165EOH      O 4662   1.455   5.534   2.530
 1165EOH      C 4663   1.395   5.660   2.501
 1165EOH      C 4664   1.246   5.638   2.466
 1165EOH      H 4665   1.419   5.502   2.612
 1166EOH      O 4666   4.209   5.454   6.462
 1166EOH      C 4667   4.272   5.548   6.549
 1166EOH      C 4668   4.198   5.550   6.684
 1166EOH      H 4669   4.263   5.376   6.462
 1167EOH      O 4670   4.148   1.681   1.255
 1167EOH      C 4671   4.120   1.813   1.301
 1167EOH      C 4672   3.967   1.833   1.312
 1167EOH      H 4673   4.133   1.621   1.327
 1168EOH      O 4674   4.416   6.473   2.537
 1168EOH      C 4675   4.452   6.354   2.607
 1168EOH      C 4676   4.469   6.388   2.756
 1168EOH      H 4677   4.342   6.512   2.581
 1169EOH      O 4678   2.489   6.813   0.615
 1169EOH      C 4679   2.466   6.950   0.581
 1169EOH      C 4680   2.354   6.959   0.476
 1169EOH      H 4681   2.423   6.790   0.679
 1170EOH      O 4682   4.527   5.438   6.256
 1170EOH      C 4683   4.633   5.501   6.329
 1170EOH      C 4684   4.743   5.397   6.357
 1170EOH      H 4685   4.548   5.441   6.164
 1171EOH      O 4686   4.602   1.875   5.866
 1171EOH      C 4687   4.624   1.999   5.933
 1171EOH      C 4688   4.770   2.005   5.983
 1171EOH      H 4689   4.639   1.881   5.779
 1172EOH      O 4690   6.195   3.822   3.887
 1172EOH      C 4691   6.150   3.823   4.023
 1172EOH      C 4692   6.101   3.964   4.059
 1172EOH      H 4693   6.284   3.852   3.884
 1173EOH      O 4694   3.501   1.894   5.303
 1173EOH      C 4695   3.638   1.854   5.306
 1173EOH      C 4696   3.668   1.765   5.184
 1173EOH      H 4697   3.486   1.944   5.225
 1174EOH      O 4698   7.112   7.457   7.359
 1174EOH      C 4699   7.038   7.354   7.294
 1174EOH      C 4700   6.966   7.411   7.170
 1174EOH      H 4701   7.190   7.475   7.309
 1175EOH      O 4702   6.260   6.346   5.238
 1175EOH      C 4703   6.368   6.312   5.326
 1175EOH      C 4704   6.334   6.185   5.405
 1175EOH      H 4705   6.286   6.417   5.183
 1176EOH      O 4706   1.597   3.223   1.167
 1176EOH      C 4707   1.586   3.300   1.047
 1176EOH      C 4708   1.467   3.249   0.963
 1176EOH      H 4709   1.528   3.251   1.226
 1177EOH      O 4710   0.609   2.946   4.922
 1177EOH      C 4711   0.709   2.844   4.914
 1177EOH      C 4712   0.660   2.718   4.989
 1177EOH      H 4713   0.525   2.908   4.906
 1178EOH      O 4714   3.195   0.725   4.925
 1178EOH      C 4715   3.094   0.627   4.902
 1178EOH      C 4716   3.097   0.583   4.755
 1178EOH      H 4717   3.277   0.681   4.943
 1179EOH      O 4718   4.637   3.780   6.340
 1179EOH      C 4719   4.527   3.697   6.302
 1179EOH      C 4720   4.456   3.646   6.428
 1179EOH      H 4721   4.603   3.860   6.377
 1180EOH      O 4722   0.340   2.772   0.876
 1180EOH      C 4723   0.264   2.870   0.805
 1180EOH      C 4724   0.201   2.969   0.905
 1180EOH      H 4725   0.407   2.816   0.926
 1181EOH      O 4726   5.762   6.364   1.200
 1181EOH      C 4727   5.841   6.480   1.171
 1181EOH      C 4728   5.909   6.528   1.301
 1181EOH      H 4729   5.788   6.298   1.138
 1182EOH      O 4730   4.042   0.256   5.273
 1182EOH      C 4731   4.076   0.147   5.358
 1182EOH      C 4732   3.998   0.160   5.491
 1182EOH      H 4733   3.948   0.252   5.259
 1183EOH      O 4734   6.043   6.397   6.241
 1183EOH      C 4735   6.027   6.296   6.142
 1183EOH      C 4736   6.041   6.157   6.206
 1183EOH      H 4737   5.959   6.411   6.283
 1184EOH      O 4738   6.559   6.506   0.691
 1184EOH      C 4739   6.692   6.557   0.704
 1184EOH      C 4740   6.758   6.497   0.830
 1184EOH      H 4741   6.563   6.423   0.647
 1185EOH      O 4742   0.793   3.700   6.187
 1185EOH      C 4743   0.718   3.822   6.184
 1185EOH      C 4744   0.765   3.909   6.066
 1185EOH      H 4745   0.773   3.652   6.108
 1186EOH      O 4746   2.279   7.680   2.481
 1186EOH      C 4747   2.367   7.746   2.572
 1186EOH      C 4748   2.509   7.749   2.512
 1186EOH      H 4749   2.192   7.681   2.518
 1187EOH      O 4750   2.879   5.266   7.212
 1187EOH      C 4751   2.918   5.393   7.160
 1187EOH      C 4752   3.003   5.372   7.033
 1187EOH      H 4753   2.842   5.217   7.140
 1188EOH      O 4754   5.163   6.926   3.699
 1188EOH      C 4755   5.287   6.966   3.640
 1188EOH      C 4756   5.271   6.970   3.487
 1188EOH      H 4757   5.104   7.000   3.700
 1189EOH      O 4758   5.152   2.994   4.194
 1189EOH      C 4759   5.138   2.854   4.169
 1189EOH      C 4760   5.277   2.788   4.170
 1189EOH      H 4761   5.219   3.005   4.260
 1190EOH      O 4762   0.933   7.718   0.567
 1190EOH      C 4763   0.852   7.734   0.450
 1190EOH      C 4764   0.878   7.872   0.389
 1190EOH      H 4765   0.906   7.639   0.611
 1191EOH      O 4766   2.398   4.151   5.993
 1191EOH      C 4767   2.536   4.182   6.016
 1191EOH      C 4768   2.589   4.268   5.899
 1191EOH      H 4769   2.349   4.232   5.998
 1192EOH      O 4770   7.515   6.874   1.658
 1192EOH      C 4771   7.415   6.926   1.746
 1192EOH      C 4772   7.425   7.079   1.749
 1192EOH      H 4773   7.511   6.922   1.576
 1193EOH      O 4774   7.626   5.240   3.646
 1193EOH      C 4775   7.652   5.117   3.577
 1193EOH      C 4776   7.647   5.139   3.425
 1193EOH      H 4777   7.708   5.285   3.658
 1194EOH      O 4778   7.618   0.107   6.142
 1194EOH      C 4779   7.672   0.100   6.274
 1194EOH      C 4780   7.558   0.118   6.376
 1194EOH      H 4781   7.586   0.021   6.118
 1195EOH      O 4782   0.196   4.953   7.570
 1195EOH      C 4783   0.229   4.853   7.667
 1195EOH      C 4784   0.330   4.755   7.607
 1195EOH      H 4785   0.271   5.008   7.558
 1196EOH      O 4786   3.045   1.754   3.298
 1196EOH      C 4787   3.107   1.881   3.278
 1196EOH      C 4788   3.012   1.993   3.324
 1196EOH      H 4789   3.101   1.703   3.354
 1197EOH      O 4790   4.571   0.267   2.185
 1197EOH      C 4791   4.444   0.231   2.130
 1197EOH      C 4792   4.358   0.162   2.237
 1197EOH      H 4793   4.561   0.347   2.234
 1198EOH      O 4794   6.315   4.059   6.707
 1198EOH      C 4795   6.341   4.198   6.723
 1198EOH      C 4796   6.208   4.276   6.716
 1198EOH      H 4797   6.346   4.013   6.784
 1199EOH      O 4798   3.277   5.996   0.544
 1199EOH      C 4799   3.157   6.055   0.594
 1199EOH      C 4800   3.149   6.203   0.551
 1199EOH      H 4801   3.266   5.902   0.550
 1200EOH      O 4802   4.891   0.216   0.122
 1200EOH      C 4803   4.762   0.156   0.106
 1200EOH      C 4804   4.661   0.225   0.199
 1200EOH      H 4805   4.887   0.303   0.085
 1201EOH      O 4806   6.505   7.602   5.218
 1201EOH      C 4807   6.514   7.462   5.193
 1201EOH      C 4808   6.652   7.411   5.239
 1201EOH      H 4809   6.512   7.616   5.311
 1202EOH      O 4810   3.833   0.187   5.902
 1202EOH      C 4811   3.930   0.288   5.929
 1202EOH      C 4812   4.032   0.234   6.030
 1202EOH      H 4813   3.853   0.145   5.820
 1203EOH      O 4814   6.445   3.848   0.915
 1203EOH      C 4815   6.574   3.909   0.917
 1203EOH      C 4816   6.659   3.845   1.029
 1203EOH      H 4817   6.455   3.757   0.891
 1204EOH      O 4818   5.580   6.775   6.396
 1204EOH      C 4819   5.442   6.754   6.368
 1204EOH      C 4820   5.418   6.607   6.331
 1204EOH      H 4821   5.596   6.867   6.405
 1205EOH      O 4822   1.774   1.415   7.893
 1205EOH      C 4823   1.797   1.447   8.030
 1205EOH      C 4824   1.663   1.488   8.095
 1205EOH      H 4825   1.694   1.457   7.867
 1206EOH      O 4826   7.149   3.579   1.306
 1206EOH      C 4827   7.240   3.648   1.391
 1206EOH      C 4828   7.384   3.605   1.357
 1206EOH      H 4829   7.159   3.614   1.219
 1207EOH      O 4830   0.682   6.167   4.814
 1207EOH      C 4831   0.592   6.228   4.722
 1207EOH      C 4832   0.674   6.320   4.629
 1207EOH      H 4833   0.749   6.121   4.764
 1208EOH      O 4834   7.419   4.903   0.551
 1208EOH      C 4835   7.512   4.832   0.632
 1208EOH      C 4836   7.634   4.789   0.548
 1208EOH      H 4837   7.444   4.994   0.547
 1209EOH      O 4838   1.870   1.931   1.479
 1209EOH      C 4839   1.784   2.031   1.422
 1209EOH      C 4840   1.759   2.142   1.526
 1209EOH      H 4841   1.942   1.976   1.520
 1210EOH      O 4842   3.042   0.097   6.436
 1210EOH      C 4843   2.991   0.221   6.488
 1210EOH      C 4844   2.838   0.211   6.504
 1210EOH      H 4845   3.001   0.026   6.482
 1211EOH      O 4846   7.258   4.136   7.782
 1211EOH      C 4847   7.314   4.093   7.907
 1211EOH      C 4848   7.403   3.970   7.883
 1211EOH      H 4849   7.327   4.174   7.730
 1212EOH      O 4850   5.699   7.512   4.070
 1212EOH      C 4851   5.602   7.408   4.066
 1212EOH      C 4852   5.649   7.300   3.968
 1212EOH      H 4853   5.750   7.502   4.150
 1213EOH      O 4854   4.429   6.461   5.033
 1213EOH      C 4855   4.397   6.357   4.940
 1213EOH      C 4856   4.300   6.257   5.005
 1213EOH      H 4857   4.348   6.499   5.063
 1214EOH      O 4858   1.924   0.140   5.727
 1214EOH      C 4859   1.933   0.154   5.869
 1214EOH      C 4860   1.872   0.289   5.910
 1214EOH      H 4861   1.832   0.135   5.704
 1215EOH      O 4862   4.947   4.523   4.123
 1215EOH      C 4863   4.835   4.478   4.199
 1215EOH      C 4864   4.819   4.326   4.178
 1215EOH      H 4865   4.989   4.595   4.168
 1216EOH      O 4866   4.572   1.316   4.971
 1216EOH      C 4867   4.447   1.249   4.985
 1216EOH      C 4868   4.398   1.259   5.131
 1216EOH      H 4869   4.554   1.404   4.943
 1217EOH      O 4870   3.823   7.469   7.134
 1217EOH      C 4871   3.762   7.476   7.263
 1217EOH      C 4872   3.641   7.571   7.257
 1217EOH      H 4873   3.762   7.429   7.074
 1218EOH      O 4874   5.925   4.059   5.091
 1218EOH      C 4875   5.984   3.958   5.174
 1218EOH      C 4876   6.028   3.840   5.087
 1218EOH      H 4877   5.995   4.104   5.045
 1219EOH      O 4878   0.194   2.857   1.752
 1219EOH      C 4879   0.059   2.843   1.708
 1219EOH      C 4880  -0.035   2.891   1.821
 1219EOH      H 4881   0.203   2.945   1.786
 1220EOH      O 4882   0.407   5.459   2.114
 1220EOH      C 4883   0.507   5.538   2.048
 1220EOH      C 4884   0.636   5.538   2.133
 1220EOH      H 4885   0.436   5.370   2.117
 1221EOH      O 4886   3.075   7.663   2.442
 1221EOH      C 4887   3.116   7.613   2.569
 1221EOH      C 4888   3.252   7.673   2.605
 1221EOH      H 4889   2.996   7.618   2.415
 1222EOH      O 4890   5.146   4.691   4.197
 1222EOH      C 4891   5.246   4.616   4.267
 1222EOH      C 4892   5.180   4.537   4.381
 1222EOH      H 4893   5.186   4.724   4.118
 1223EOH      O 4894   4.730   4.824   3.831
 1223EOH      C 4895   4.790   4.708   3.889
 1223EOH      C 4896   4.850   4.620   3.778
 1223EOH      H 4897   4.770   4.900   3.868
 1224EOH      O 4898   3.255   2.682   3.641
 1224EOH      C 4899   3.236   2.581   3.542
 1224EOH      C 4900   3.086   2.550   3.530
 1224EOH      H 4901   3.236   2.766   3.602
 1225EOH      O 4902   2.112   7.804   4.094
 1225EOH      C 4903   2.246   7.854   4.079
 1225EOH      C 4904   2.263   7.917   3.940
 1225EOH      H 4905   2.052   7.873   4.072
 1226EOH      O 4906   5.909   4.142   3.395
 1226EOH      C 4907   5.775   4.103   3.367
 1226EOH      C 4908   5.762   4.065   3.219
 1226EOH      H 4909   5.962   4.064   3.405
 1227EOH      O 4910   5.149   3.989   0.378
 1227EOH      C 4911   5.059   3.938   0.476
 1227EOH      C 4912   4.919   3.921   0.414
 1227EOH      H 4913   5.237   3.967   0.404
 1228EOH      O 4914   6.214   3.209   0.023
 1228EOH      C 4915   6.161   3.186   0.154
 1228EOH      C 4916   6.222   3.058   0.213
 1228EOH      H 4917   6.188   3.297  -0.002
 1229EOH      O 4918   6.253   4.764   3.188
 1229EOH      C 4919   6.132   4.841   3.185
 1229EOH      C 4920   6.059   4.829   3.320
 1229EOH      H 4921   6.322   4.819   3.222
 1230EOH      O 4922   4.615   6.150   6.354
 1230EOH      C 4923   4.712   6.074   6.425
 1230EOH      C 4924   4.694   5.924   6.393
 1230EOH      H 4925   4.625   6.241   6.378
 1231EOH      O 4926   2.508   5.397   7.690
 1231EOH      C 4927   2.431   5.504   7.746
 1231EOH      C 4928   2.321   5.446   7.836
 1231EOH      H 4929   2.563   5.362   7.759
 1232EOH      O 4930   6.646   1.483   2.083
 1232EOH      C 4931   6.770   1.443   2.142
 1232EOH      C 4932   6.876   1.422   2.031
 1232EOH      H 4933   6.578   1.463   2.145
 1233EOH      O 4934   2.720   6.926   0.397
 1233EOH      C 4935   2.741   6.886   0.261
 1233EOH      C 4936   2.877   6.943   0.216
 1233EOH      H 4937   2.701   6.849   0.449
 1234EOH      O 4938   0.415   4.725   1.960
 1234EOH      C 4939   0.274   4.702   1.945
 1234EOH      C 4940   0.198   4.765   2.064
 1234EOH      H 4941   0.431   4.818   1.955
 1235EOH      O 4942   6.625   6.068   1.230
 1235EOH      C 4943   6.599   5.977   1.337
 1235EOH      C 4944   6.732   5.939   1.405
 1235EOH      H 4945   6.654   6.150   1.267
 1236EOH      O 4946   3.825   7.089   1.675
 1236EOH      C 4947   3.943   7.070   1.754
 1236EOH      C 4948   4.070   7.101   1.672
 1236EOH      H 4949   3.751   7.078   1.733
 1237EOH      O 4950   4.935   5.656   2.599
 1237EOH      C 4951   5.075   5.651   2.574
 1237EOH      C 4952   5.101   5.685   2.426
 1237EOH      H 4953   4.904   5.740   2.568
 1238EOH      O 4954   0.439   0.036   7.298
 1238EOH      C 4955   0.317  -0.039   7.311
 1238EOH      C 4956   0.229   0.027   7.419
 1238EOH      H 4957   0.421   0.112   7.244
 1239EOH      O 4958   5.997   1.994   4.298
 1239EOH      C 4959   5.893   1.932   4.374
 1239EOH      C 4960   5.928   1.934   4.524
 1239EOH      H 4961   5.973   2.084   4.283
 1240EOH      O 4962   0.033   0.217   4.408
 1240EOH      C 4963   0.134   0.274   4.324
 1240EOH      C 4964   0.076   0.393   4.245
 1240EOH      H 4965   0.078   0.173   4.478
 1241EOH      O 4966   1.687   7.546   4.858
 1241EOH      C 4967   1.638   7.670   4.805
 1241EOH      C 4968   1.497   7.697   4.861
 1241EOH      H 4969   1.780   7.555   4.870
 1242EOH      O 4970   4.369   6.803   6.664
 1242EOH      C 4971   4.471   6.717   6.713
 1242EOH      C 4972   4.431   6.571   6.684
 1242EOH      H 4973   4.410   6.879   6.625
 1243EOH      O 4974   4.446   6.966   7.333
 1243EOH      C 4975   4.562   6.883   7.325
 1243EOH      C 4976   4.519   6.735   7.333
 1243EOH      H 4977   4.400   6.962   7.251
 1244EOH      O 4978   6.002   1.762   5.911
 1244EOH      C 4979   6.039   1.790   6.047
 1244EOH      C 4980   6.179   1.730   6.073
 1244EOH      H 4981   6.063   1.806   5.854
 1245EOH      O 4982   7.414   7.474   3.324
 1245EOH      C 4983   7.509   7.579   3.306
 1245EOH      C 4984   7.619   7.568   3.413
 1245EOH      H 4985   7.463   7.395   3.340
 1246EOH      O 4986   7.578   1.205   2.654
 1246EOH      C 4987   7.456   1.198   2.580
 1246EOH      C 4988   7.350   1.121   2.660
 1246EOH      H 4989   7.568   1.269   2.723
 1247EOH      O 4990   7.839   4.716   5.809
 1247EOH      C 4991   7.862   4.665   5.941
 1247EOH      C 4992   7.884   4.781   6.039
 1247EOH      H 4993   7.772   4.663   5.769
 1248EOH      O 4994   1.677   0.026   0.437
 1248EOH      C 4995   1.672   0.078   0.303
 1248EOH      C 4996   1.791   0.173   0.282
 1248EOH      H 4997   1.713  -0.061   0.433
 1249EOH      O 4998   4.367   7.639   7.374
 1249EOH      C 4999   4.262   7.634   7.277
 1249EOH      C 5000   4.224   7.488   7.246
 1249EOH      H 5001   4.335   7.604   7.455
 1250EOH      O 5002   2.060   3.794   6.817
 1250EOH      C 5003   2.154   3.811   6.924
 1250EOH      C 5004   2.279   3.884   6.870
 1250EOH      H 5005   2.031   3.880   6.791
 1251EOH      O 5006   3.211   2.923   4.971
 1251EOH      C 5007   3.247   2.958   4.838
 1251EOH      C 5008   3.272   3.110   4.829
 1251EOH      H 5009   3.288   2.929   5.025
 1252EOH      O 5010   3.930   5.022   3.308
 1252EOH      C 5011   3.877   4.958   3.424
 1252EOH      C 5012   3.808   4.826   3.384
 1252EOH      H 5013   4.002   4.970   3.275
 1253EOH      O 5014   6.974   1.658   1.014
 1253EOH      C 5015   6.940   1.797   1.013
 1253EOH      C 5016   6.847   1.825   0.894
 1253EOH      H 5017   6.895   1.608   1.010
 1254EOH      O 5018   2.418   4.597   4.412
 1254EOH      C 5019   2.442   4.466   4.466
 1254EOH      C 5020   2.592   4.443   4.487
 1254EOH      H 5021   2.434   4.658   4.482
 1255EOH      O 5022   1.910   2.544   1.847
 1255EOH      C 5023   1.928   2.571   1.708
 1255EOH      C 5024   2.062   2.511   1.661
 1255EOH      H 5025   1.872   2.458   1.855
 1256EOH      O 5026   2.853   7.824   6.098
 1256EOH      C 5027   2.837   7.703   6.171
 1256EOH      C 5028   2.935   7.699   6.289
 1256EOH      H 5029   2.812   7.813   6.013
 1257EOH      O 5030   5.467   7.888   1.762
 1257EOH      C 5031   5.491   8.007   1.687
 1257EOH      C 5032   5.446   8.130   1.768
 1257EOH      H 5033   5.524   7.821   1.728
 1258EOH      O 5034   6.282   1.267   4.866
 1258EOH      C 5035   6.190   1.285   4.974
 1258EOH      C 5036   6.075   1.184   4.960
 1258EOH      H 5037   6.364   1.309   4.886
 1259EOH      O 5038   5.282   0.158   7.261
 1259EOH      C 5039   5.154   0.203   7.215
 1259EOH      C 5040   5.065   0.081   7.188
 1259EOH      H 5041   5.281   0.158   7.356
 1260EOH      O 5042   2.276   7.256   2.344
 1260EOH      C 5043   2.188   7.319   2.251
 1260EOH      C 5044   2.247   7.455   2.209
 1260EOH      H 5045   2.352   7.227   2.295
 1261EOH      O 5046   1.761   6.645   5.966
 1261EOH      C 5047   1.699   6.623   6.093
 1261EOH      C 5048   1.577   6.716   6.105
 1261EOH      H 5049   1.698   6.628   5.898
 1262EOH      O 5050   1.153   7.489   5.488
 1262EOH      C 5051   1.166   7.348   5.509
 1262EOH      C 5052   1.198   7.321   5.657
 1262EOH      H 5053   1.168   7.505   5.396
 1263EOH      O 5054   4.402   3.474   4.245
 1263EOH      C 5055   4.277   3.534   4.211
 1263EOH      C 5056   4.291   3.610   4.077
 1263EOH      H 5057   4.428   3.415   4.176
 1264EOH      O 5058   4.021   4.886   5.867
 1264EOH      C 5059   4.109   4.774   5.882
 1264EOH      C 5060   4.105   4.724   6.028
 1264EOH      H 5061   3.932   4.855   5.875
 1265EOH      O 5062   5.177   5.404   0.075
 1265EOH      C 5063   5.300   5.476   0.085
 1265EOH      C 5064   5.298   5.599  -0.007
 1265EOH      H 5065   5.109   5.454   0.116
 1266EOH      O 5066   0.682   6.333   7.621
 1266EOH      C 5067   0.704   6.312   7.760
 1266EOH      C 5068   0.808   6.414   7.810
 1266EOH      H 5069   0.613   6.276   7.591
 1267EOH      O 5070   0.084   4.248   4.616
 1267EOH      C 5071   0.177   4.215   4.720
 1267EOH      C 5072   0.313   4.280   4.689
 1267EOH      H 5073   0.058   4.338   4.630
 1268EOH      O 5074   1.033   2.018   5.940
 1268EOH      C 5075   1.045   1.881   5.977
 1268EOH      C 5076   1.193   1.845   5.995
 1268EOH      H 5077   1.054   2.071   6.015
 1269EOH      O 5078   0.483   0.702   6.869
 1269EOH      C 5079   0.527   0.592   6.790
 1269EOH      C 5080   0.677   0.605   6.762
 1269EOH      H 5081   0.507   0.684   6.959
 1270EOH      O 5082   0.456   1.894   3.912
 1270EOH      C 5083   0.367   2.006   3.917
 1270EOH      C 5084   0.368   2.080   3.782
 1270EOH      H 5085   0.411   1.820   3.875
 1271EOH      O 5086   2.608   4.795   2.584
 1271EOH      C 5087   2.669   4.849   2.466
 1271EOH      C 5088   2.760   4.743   2.402
 1271EOH      H 5089   2.538   4.738   2.556
 1272EOH      O 5090   3.594   7.187   6.490
 1272EOH      C 5091   3.596   7.312   6.560
 1272EOH      C 5092   3.452   7.354   6.597
 1272EOH      H 5093   3.683   7.159   6.475
 1273EOH      O 5094   6.394   4.538   3.800
 1273EOH      C 5095   6.514   4.462   3.784
 1273EOH      C 5096   6.503   4.380   3.654
 1273EOH      H 5097   6.394   4.573   3.889
 1274EOH      O 5098   2.290   5.498   6.879
 1274EOH      C 5099   2.155   5.452   6.893
 1274EOH      C 5100   2.126   5.430   7.043
 1274EOH      H 5101   2.345   5.421   6.885
 1275EOH      O 5102   4.435   4.139   3.867
 1275EOH      C 5103   4.477   4.014   3.922
 1275EOH      C 5104   4.628   4.022   3.953
 1275EOH      H 5105   4.446   4.206   3.932
 1276EOH      O 5106   2.674   5.332   0.267
 1276EOH      C 5107   2.634   5.204   0.317
 1276EOH      C 5108   2.670   5.095   0.215
 1276EOH      H 5109   2.759   5.321   0.227
 1277EOH      O 5110   1.720   7.673   1.332
 1277EOH      C 5111   1.627   7.765   1.275
 1277EOH      C 5112   1.525   7.690   1.187
 1277EOH      H 5113   1.672   7.599   1.367
 1278EOH      O 5114   1.601   7.869   6.710
 1278EOH      C 5115   1.711   7.955   6.737
 1278EOH      C 5116   1.774   7.915   6.872
 1278EOH      H 5117   1.634   7.787   6.679
 1279EOH      O 5118   6.925   5.818   2.163
 1279EOH      C 5119   7.060   5.774   2.184
 1279EOH      C 5120   7.148   5.837   2.075
 1279EOH      H 5121   6.898   5.783   2.080
 1280EOH      O 5122   6.650   0.429   6.999
 1280EOH      C 5123   6.683   0.438   6.860
 1280EOH      C 5124   6.801   0.534   6.841
 1280EOH      H 5125   6.729   0.406   7.046
 1281EOH      O 5126   3.711   4.591   6.692
 1281EOH      C 5127   3.828   4.606   6.611
 1281EOH      C 5128   3.947   4.542   6.684
 1281EOH      H 5129   3.704   4.501   6.718
 1282EOH      O 5130   0.289   1.240   3.071
 1282EOH      C 5131   0.379   1.339   3.122
 1282EOH      C 5132   0.496   1.356   3.023
 1282EOH      H 5133   0.212   1.238   3.126
 1283EOH      O 5134   6.117   5.709   6.626
 1283EOH      C 5135   6.159   5.632   6.513
 1283EOH      C 5136   6.200   5.726   6.398
 1283EOH      H 5137   6.194   5.751   6.661
 1284EOH      O 5138   6.197   5.940   3.399
 1284EOH      C 5139   6.101   5.856   3.461
 1284EOH      C 5140   6.173   5.738   3.529
 1284EOH      H 5141   6.246   5.986   3.466
 1285EOH      O 5142   0.728   4.981   1.639
 1285EOH      C 5143   0.601   4.920   1.667
 1285EOH      C 5144   0.515   5.019   1.748
 1285EOH      H 5145   0.766   4.935   1.566
 1286EOH      O 5146   7.681   2.390   1.748
 1286EOH      C 5147   7.680   2.284   1.844
 1286EOH      C 5148   7.651   2.151   1.773
 1286EOH      H 5149   7.764   2.390   1.703
 1287EOH      O 5150   7.030   2.643   0.375
 1287EOH      C 5151   7.172   2.645   0.368
 1287EOH      C 5152   7.216   2.591   0.230
 1287EOH      H 5153   6.996   2.697   0.305
 1288EOH      O 5154   6.767   3.623   7.129
 1288EOH      C 5155   6.794   3.507   7.208
 1288EOH      C 5156   6.850   3.394   7.119
 1288EOH      H 5157   6.834   3.688   7.146
 1289EOH      O 5158   0.050   3.408   1.757
 1289EOH      C 5159   0.065   3.537   1.817
 1289EOH      C 5160  -0.006   3.643   1.730
 1289EOH      H 5161  -0.042   3.396   1.739
 1290EOH      O 5162   5.770   5.638   6.358
 1290EOH      C 5163   5.807   5.507   6.316
 1290EOH      C 5164   5.857   5.423   6.435
 1290EOH      H 5165   5.717   5.629   6.436
 1291EOH      O 5166   7.041   0.862   3.127
 1291EOH      C 5167   7.146   0.786   3.067
 1291EOH      C 5168   7.118   0.635   3.086
 1291EOH      H 5169   6.969   0.866   3.067
 1292EOH      O 5170   1.971   6.872   1.651
 1292EOH      C 5171   2.076   6.776   1.666
 1292EOH      C 5172   2.146   6.758   1.530
 1292EOH      H 5173   2.009   6.946   1.606
 1293EOH      O 5174   4.184   0.885   3.830
 1293EOH      C 5175   4.231   0.762   3.886
 1293EOH      C 5176   4.287   0.672   3.774
 1293EOH      H 5177   4.255   0.948   3.829
 1294EOH      O 5178   6.410   7.471   7.767
 1294EOH      C 5179   6.443   7.482   7.628
 1294EOH      C 5180   6.457   7.342   7.567
 1294EOH      H 5181   6.316   7.461   7.774
 1295EOH      O 5182   2.613   2.764   5.696
 1295EOH      C 5183   2.688   2.771   5.574
 1295EOH      C 5184   2.837   2.745   5.605
 1295EOH      H 5185   2.526   2.733   5.675
 1296EOH      O 5186   4.004   6.037   7.150
 1296EOH      C 5187   3.992   6.176   7.180
 1296EOH      C 5188   3.963   6.254   7.051
 1296EOH      H 5189   3.921   6.006   7.117
 1297EOH      O 5190   3.266   1.458   5.318
 1297EOH      C 5191   3.393   1.470   5.254
 1297EOH      C 5192   3.374   1.499   5.104
 1297EOH      H 5193   3.223   1.543   5.315
 1298EOH      O 5194   5.977   6.377   3.846
 1298EOH      C 5195   5.953   6.285   3.739
 1298EOH      C 5196   5.981   6.356   3.605
 1298EOH      H 5197   6.002   6.327   3.923
 1299EOH      O 5198   4.267   4.211   1.565
 1299EOH      C 5199   4.180   4.321   1.592
 1299EOH      C 5200   4.206   4.376   1.733
 1299EOH      H 5201   4.355   4.245   1.555
 1300EOH      O 5202   3.345   3.510   0.187
 1300EOH      C 5203   3.432   3.620   0.215
 1300EOH      C 5204   3.578   3.577   0.191
 1300EOH      H 5205   3.257   3.537   0.209
 1301EOH      O 5206   5.340   7.734   6.743
 1301EOH      C 5207   5.324   7.665   6.867
 1301EOH      C 5208   5.336   7.765   6.983
 1301EOH      H 5209   5.276   7.804   6.741
 1302EOH      O 5210   5.958   4.133   2.857
 1302EOH      C 5211   5.887   4.189   2.747
 1302EOH      C 5212   5.740   4.213   2.786
 1302EOH      H 5213   5.992   4.204   2.909
 1303EOH      O 5214   6.091   7.237   3.241
 1303EOH      C 5215   6.226   7.223   3.287
 1303EOH      C 5216   6.293   7.362   3.290
 1303EOH      H 5217   6.046   7.294   3.301
 1304EOH      O 5218   1.337   5.458   2.748
 1304EOH      C 5219   1.343   5.523   2.875
 1304EOH      C 5220   1.288   5.430   2.984
 1304EOH      H 5221   1.248   5.432   2.732
 1305EOH      O 5222   3.013   3.832   1.828
 1305EOH      C 5223   3.155   3.820   1.821
 1305EOH      C 5224   3.216   3.842   1.961
 1305EOH      H 5225   2.980   3.757   1.874
 1306EOH      O 5226   6.893   5.596   3.099
 1306EOH      C 5227   6.792   5.550   3.189
 1306EOH      C 5228   6.654   5.599   3.142
 1306EOH      H 5229   6.882   5.550   3.017
 1307EOH      O 5230   1.803   3.050   3.900
 1307EOH      C 5231   1.728   3.158   3.842
 1307EOH      C 5232   1.585   3.108   3.815
 1307EOH      H 5233   1.788   3.050   3.993
 1308EOH      O 5234   6.401   4.653   1.474
 1308EOH      C 5235   6.263   4.633   1.441
 1308EOH      C 5236   6.176   4.721   1.532
 1308EOH      H 5237   6.445   4.693   1.400
 1309EOH      O 5238   1.555   6.662   5.763
 1309EOH      C 5239   1.511   6.556   5.678
 1309EOH      C 5240   1.531   6.422   5.750
 1309EOH      H 5241   1.479   6.701   5.802
 1310EOH      O 5242   6.766   3.898   4.448
 1310EOH      C 5243   6.645   3.957   4.496
 1310EOH      C 5244   6.547   3.975   4.379
 1310EOH      H 5245   6.751   3.806   4.432
 1311EOH      O 5246   1.358   2.189   5.685
 1311EOH      C 5247   1.285   2.275   5.773
 1311EOH      C 5248   1.190   2.364   5.690
 1311EOH      H 5249   1.295   2.142   5.632
 1312EOH      O 5250   0.192   3.906   6.827
 1312EOH      C 5251   0.130   3.814   6.917
 1312EOH      C 5252   0.103   3.682   6.843
 1312EOH      H 5253   0.213   3.985   6.874
 1313EOH      O 5254   5.058   2.999   1.874
 1313EOH      C 5255   5.060   2.856   1.868
 1313EOH      C 5256   5.141   2.801   1.987
 1313EOH      H 5257   5.016   3.032   1.796
 1314EOH      O 5258   6.014   4.490   5.393
 1314EOH      C 5259   5.895   4.417   5.360
 1314EOH      C 5260   5.785   4.450   5.463
 1314EOH      H 5261   5.994   4.582   5.389
 1315EOH      O 5262   6.288   4.777   3.678
 1315EOH      C 5263   6.347   4.867   3.584
 1315EOH      C 5264   6.295   5.009   3.613
 1315EOH      H 5265   6.330   4.693   3.673
 1316EOH      O 5266   6.784   3.575   6.314
 1316EOH      C 5267   6.805   3.713   6.281
 1316EOH      C 5268   6.842   3.792   6.408
 1316EOH      H 5269   6.866   3.540   6.347
 1317EOH      O 5270   4.868   3.620   5.650
 1317EOH      C 5271   4.984   3.612   5.733
 1317EOH      C 5272   4.996   3.472   5.795
 1317EOH      H 5273   4.876   3.556   5.580
 1318EOH      O 5274   4.758   3.609   2.779
 1318EOH      C 5275   4.701   3.734   2.816
 1318EOH      C 5276   4.635   3.722   2.955
 1318EOH      H 5277   4.836   3.595   2.831
 1319EOH      O 5278   0.191   3.965   1.048
 1319EOH      C 5279   0.250   4.011   0.926
 1319EOH      C 5280   0.374   4.096   0.959
 1319EOH      H 5281   0.224   3.879   1.067
 1320EOH      O 5282   3.954   3.983   5.670
 1320EOH      C 5283   4.085   3.970   5.728
 1320EOH      C 5284   4.071   3.952   5.881
 1320EOH      H 5285   3.915   3.897   5.668
 1321EOH      O 5286   5.191   0.451   5.516
 1321EOH      C 5287   5.309   0.530   5.536
 1321EOH      C 5288   5.270   0.672   5.583
 1321EOH      H 5289   5.158   0.424   5.601
 1322EOH      O 5290   4.186   3.474   6.661
 1322EOH      C 5291   4.299   3.388   6.675
 1322EOH      C 5292   4.268   3.279   6.780
 1322EOH      H 5293   4.112   3.423   6.633
 1323EOH      O 5294   5.865   1.954   0.643
 1323EOH      C 5295   5.921   2.027   0.753
 1323EOH      C 5296   5.817   2.125   0.808
 1323EOH      H 5297   5.797   1.897   0.677
 1324EOH      O 5298   4.964   6.463   7.030
 1324EOH      C 5299   5.007   6.599   7.019
 1324EOH      C 5300   5.100   6.633   7.137
 1324EOH      H 5301   5.040   6.407   7.034
 1325EOH      O 5302   6.166   3.723   1.359
 1325EOH      C 5303   6.075   3.822   1.409
 1325EOH      C 5304   6.002   3.764   1.532
 1325EOH      H 5305   6.227   3.701   1.427
 1326EOH      O 5306   7.694   7.566   2.419
 1326EOH      C 5307   7.753   7.567   2.549
 1326EOH      C 5308   7.818   7.704   2.576
 1326EOH      H 5309   7.625   7.630   2.417
 1327EOH      O 5310   0.819   7.482   4.876
 1327EOH      C 5311   0.730   7.401   4.955
 1327EOH      C 5312   0.609   7.360   4.869
 1327EOH      H 5313   0.837   7.435   4.796
 1328EOH      O 5314   5.450   5.860   5.101
 1328EOH      C 5315   5.398   5.884   5.231
 1328EOH      C 5316   5.258   5.820   5.240
 1328EOH      H 5317   5.462   5.766   5.092
 1329EOH      O 5318   5.791   1.214   0.209
 1329EOH      C 5319   5.919   1.262   0.251
 1329EOH      C 5320   6.026   1.224   0.147
 1329EOH      H 5321   5.760   1.269   0.139
 1330EOH      O 5322   4.920   1.767   3.401
 1330EOH      C 5323   4.927   1.633   3.449
 1330EOH      C 5324   5.023   1.552   3.360
 1330EOH      H 5325   4.999   1.812   3.428
 1331EOH      O 5326   6.547   2.277   3.469
 1331EOH      C 5327   6.447   2.177   3.490
 1331EOH      C 5328   6.341   2.230   3.588
 1331EOH      H 5329   6.504   2.354   3.435
 1332EOH      O 5330   7.345   5.823   1.575
 1332EOH      C 5331   7.259   5.748   1.489
 1332EOH      C 5332   7.189   5.843   1.390
 1332EOH      H 5333   7.423   5.845   1.527
 1333EOH      O 5334   3.315   2.051   2.502
 1333EOH      C 5335   3.236   1.938   2.467
 1333EOH      C 5336   3.326   1.814   2.448
 1333EOH      H 5337   3.255   2.124   2.511
 1334EOH      O 5338   3.980   0.729   4.478
 1334EOH      C 5339   3.998   0.591   4.509
 1334EOH      C 5340   3.982   0.507   4.381
 1334EOH      H 5341   4.057   0.759   4.433
 1335EOH      O 5342   0.391   3.998   2.449
 1335EOH      C 5343   0.265   3.941   2.413
 1335EOH      C 5344   0.165   3.954   2.529
 1335EOH      H 5345   0.378   4.089   2.468
 1336EOH      O 5346   2.185   6.304   7.153
 1336EOH      C 5347   2.174   6.272   7.292
 1336EOH      C 5348   2.313   6.229   7.344
 1336EOH      H 5349   2.247   6.374   7.144
 1337EOH      O 5350   7.656   2.482   3.904
 1337EOH      C 5351   7.536   2.423   3.955
 1337EOH      C 5352   7.434   2.410   3.841
 1337EOH      H 5353   7.702   2.416   3.854
 1338EOH      O 5354   2.868   3.975   4.064
 1338EOH      C 5355   2.822   4.072   4.157
 1338EOH      C 5356   2.842   4.215   4.102
 1338EOH      H 5357   2.805   3.967   3.994
 1339EOH      O 5358   1.528   6.357   6.259
 1339EOH      C 5359   1.491   6.405   6.389
 1339EOH      C 5360   1.458   6.286   6.480
 1339EOH      H 5361   1.598   6.294   6.270
 1340EOH      O 5362   5.351   1.959   6.183
 1340EOH      C 5363   5.247   1.918   6.094
 1340EOH      C 5364   5.156   2.039   6.064
 1340EOH      H 5365   5.413   1.889   6.189
 1341EOH      O 5366   4.466   1.227   2.288
 1341EOH      C 5367   4.355   1.282   2.217
 1341EOH      C 5368   4.225   1.243   2.291
 1341EOH      H 5369   4.545   1.247   2.241
 1342EOH      O 5370   4.637   2.701   4.363
 1342EOH      C 5371   4.778   2.714   4.341
 1342EOH      C 5372   4.834   2.825   4.432
 1342EOH      H 5373   4.604   2.638   4.301
 1343EOH      O 5374   4.154   7.095   3.154
 1343EOH      C 5375   4.182   6.970   3.089
 1343EOH      C 5376   4.220   6.864   3.193
 1343EOH      H 5377   4.084   7.081   3.215
 1344EOH      O 5378   6.073   2.026   6.640
 1344EOH      C 5379   6.117   1.890   6.627
 1344EOH      C 5380   6.120   1.825   6.766
 1344EOH      H 5381   5.979   2.028   6.631
 1345EOH      O 5382   5.074   5.648   7.393
 1345EOH      C 5383   4.982   5.645   7.283
 1345EOH      C 5384   4.837   5.659   7.334
 1345EOH      H 5385   5.140   5.583   7.375
 1346EOH      O 5386   0.652   2.777   1.037
 1346EOH      C 5387   0.681   2.729   0.905
 1346EOH      C 5388   0.675   2.847   0.807
 1346EOH      H 5389   0.733   2.805   1.077
 1347EOH      O 5390   7.685   0.774   5.841
 1347EOH      C 5391   7.565   0.730   5.779
 1347EOH      C 5392   7.477   0.852   5.746
 1347EOH      H 5393   7.754   0.772   5.776
 1348EOH      O 5394   3.233   5.288   6.702
 1348EOH      C 5395   3.300   5.366   6.801
 1348EOH      C 5396   3.378   5.480   6.734
 1348EOH      H 5397   3.167   5.343   6.661
 1349EOH      O 5398   1.716   0.870   5.348
 1349EOH      C 5399   1.615   0.829   5.256
 1349EOH      C 5400   1.670   0.835   5.112
 1349EOH      H 5401   1.778   0.800   5.357
 1350EOH      O 5402   1.721   4.271   1.184
 1350EOH      C 5403   1.601   4.201   1.151
 1350EOH      C 5404   1.508   4.196   1.275
 1350EOH      H 5405   1.700   4.363   1.193
 1351EOH      O 5406   4.428   1.673   6.442
 1351EOH      C 5407   4.393   1.760   6.550
 1351EOH      C 5408   4.433   1.695   6.684
 1351EOH      H 5409   4.523   1.668   6.438
 1352EOH      O 5410   0.892   1.111   1.143
 1352EOH      C 5411   0.971   1.019   1.068
 1352EOH      C 5412   1.018   1.087   0.939
 1352EOH      H 5413   0.950   1.177   1.179
 1353EOH      O 5414   2.642   6.899   4.748
 1353EOH      C 5415   2.534   6.835   4.817
 1353EOH      C 5416   2.567   6.685   4.832
 1353EOH      H 5417   2.692   6.951   4.809
 1354EOH      O 5418   0.853   1.451   0.651
 1354EOH      C 5419   0.928   1.566   0.688
 1354EOH      C 5420   0.886   1.687   0.602
 1354EOH      H 5421   0.761   1.470   0.663
 1355EOH      O 5422   0.821   6.618   5.065
 1355EOH      C 5423   0.881   6.746   5.041
 1355EOH      C 5424   0.993   6.770   5.143
 1355EOH      H 5425   0.884   6.551   5.043
 1356EOH      O 5426   7.563   0.105   1.683
 1356EOH      C 5427   7.454   0.036   1.621
 1356EOH      C 5428   7.439  -0.104   1.684
 1356EOH      H 5429   7.568   0.191   1.645
 1357EOH      O 5430   2.298   1.048   3.313
 1357EOH      C 5431   2.286   1.185   3.276
 1357EOH      C 5432   2.374   1.271   3.369
 1357EOH      H 5433   2.383   1.017   3.285
 1358EOH      O 5434   3.670   4.856   1.439
 1358EOH      C 5435   3.593   4.754   1.375
 1358EOH      C 5436   3.470   4.720   1.461
 1358EOH      H 5437   3.641   4.940   1.407
 1359EOH      O 5438   6.650   0.854   1.228
 1359EOH      C 5439   6.747   0.931   1.300
 1359EOH      C 5440   6.815   1.031   1.205
 1359EOH      H 5441   6.604   0.801   1.291
 1360EOH      O 5442   5.300   7.109   4.007
 1360EOH      C 5443   5.389   6.998   3.993
 1360EOH      C 5444   5.487   6.997   4.113
 1360EOH      H 5445   5.215   7.082   3.976
 1361EOH      O 5446   1.070   0.311   3.937
 1361EOH      C 5447   0.983   0.282   4.047
 1361EOH      C 5448   0.838   0.278   3.997
 1361EOH      H 5449   1.158   0.317   3.971
 1362EOH      O 5450   0.308   0.118   6.009
 1362EOH      C 5451   0.268   0.208   5.905
 1362EOH      C 5452   0.182   0.321   5.964
 1362EOH      H 5453   0.376   0.063   5.975
 1363EOH      O 5454   3.584   2.105   4.630
 1363EOH      C 5455   3.663   2.052   4.523
 1363EOH      C 5456   3.753   1.939   4.577
 1363EOH      H 5457   3.509   2.049   4.643
 1364EOH      O 5458   5.093   6.701   3.592
 1364EOH      C 5459   4.971   6.667   3.659
 1364EOH      C 5460   4.936   6.519   3.632
 1364EOH      H 5461   5.125   6.779   3.635
 1365EOH      O 5462   2.345   4.496   4.135
 1365EOH      C 5463   2.428   4.591   4.068
 1365EOH      C 5464   2.484   4.531   3.938
 1365EOH      H 5465   2.336   4.528   4.224
 1366EOH      O 5466   1.822   5.793   3.979
 1366EOH      C 5467   1.723   5.804   3.877
 1366EOH      C 5468   1.709   5.950   3.833
 1366EOH      H 5469   1.907   5.813   3.941
 1367EOH      O 5470   1.938   3.868   2.688
 1367EOH      C 5471   2.057   3.838   2.761
 1367EOH      C 5472   2.046   3.699   2.825
 1367EOH      H 5473   1.924   3.799   2.624
 1368EOH      O 5474   6.589   3.701   5.459
 1368EOH      C 5475   6.675   3.616   5.535
 1368EOH      C 5476   6.725   3.501   5.446
 1368EOH      H 5477   6.563   3.773   5.514
 1369EOH      O 5478   1.220   3.771   3.750
 1369EOH      C 5479   1.282   3.895   3.716
 1369EOH      C 5480   1.218   3.949   3.587
 1369EOH      H 5481   1.132   3.789   3.779
 1370EOH      O 5482   7.705   2.230   3.738
 1370EOH      C 5483   7.811   2.182   3.655
 1370EOH      C 5484   7.785   2.035   3.619
 1370EOH      H 5485   7.624   2.219   3.690
 1371EOH      O 5486   5.573   7.254   1.783
 1371EOH      C 5487   5.459   7.259   1.696
 1371EOH      C 5488   5.331   7.239   1.779
 1371EOH      H 5489   5.574   7.334   1.833
 1372EOH      O 5490   6.790   0.044   1.045
 1372EOH      C 5491   6.700   0.112   0.956
 1372EOH      C 5492   6.778   0.216   0.873
 1372EOH      H 5493   6.835   0.112   1.094
 1373EOH      O 5494   1.217   2.040   5.531
 1373EOH      C 5495   1.126   1.952   5.597
 1373EOH      C 5496   0.983   2.011   5.590
 1373EOH      H 5497   1.291   1.989   5.502
 1374EOH      O 5498   0.344   2.999   5.655
 1374EOH      C 5499   0.474   2.991   5.713
 1374EOH      C 5500   0.569   3.087   5.639
 1374EOH      H 5501   0.291   3.053   5.713
 1375EOH      O 5502   5.465   6.662   0.536
 1375EOH      C 5503   5.347   6.722   0.591
 1375EOH      C 5504   5.229   6.701   0.494
 1375EOH      H 5505   5.451   6.568   0.533
 1376EOH      O 5506   0.170   4.589   5.538
 1376EOH      C 5507   0.083   4.483   5.496
 1376EOH      C 5508  -0.001   4.434   5.615
 1376EOH      H 5509   0.116   4.663   5.562
 1377EOH      O 5510   6.207   2.279   7.304
 1377EOH      C 5511   6.251   2.209   7.187
 1377EOH      C 5512   6.297   2.312   7.082
 1377EOH      H 5513   6.284   2.317   7.345
 1378EOH      O 5514   0.282   4.943   3.144
 1378EOH      C 5515   0.391   5.027   3.183
 1378EOH      C 5516   0.486   5.046   3.063
 1378EOH      H 5517   0.230   4.989   3.081
 1379EOH      O 5518   2.564   5.832   6.504
 1379EOH      C 5519   2.552   5.696   6.461
 1379EOH      C 5520   2.510   5.605   6.577
 1379EOH      H 5521   2.480   5.862   6.535
 1380EOH      O 5522   4.752   4.461   0.158
 1380EOH      C 5523   4.694   4.383   0.263
 1380EOH      C 5524   4.651   4.246   0.209
 1380EOH      H 5525   4.842   4.433   0.144
 1381EOH      O 5526   6.158   0.228   3.379
 1381EOH      C 5527   6.165   0.105   3.306
 1381EOH      C 5528   6.310   0.072   3.267
 1381EOH      H 5529   6.197   0.214   3.464
 1382EOH      O 5530   5.353   4.687   4.692
 1382EOH      C 5531   5.363   4.816   4.632
 1382EOH      C 5532   5.507   4.869   4.650
 1382EOH      H 5533   5.418   4.630   4.652
 1383EOH      O 5534   4.759   2.337   5.851
 1383EOH      C 5535   4.810   2.394   5.730
 1383EOH      C 5536   4.876   2.283   5.646
 1383EOH      H 5537   4.782   2.245   5.850
 1384EOH      O 5538   7.870   7.347   0.093
 1384EOH      C 5539   7.935   7.429  -0.004
 1384EOH      C 5540   8.008   7.543   0.068
 1384EOH      H 5541   7.936   7.317   0.154
 1385EOH      O 5542   2.243   0.262   4.263
 1385EOH      C 5543   2.346   0.300   4.355
 1385EOH      C 5544   2.287   0.307   4.497
 1385EOH      H 5545   2.215   0.174   4.285
 1386EOH      O 5546   4.798   5.309   0.255
 1386EOH      C 5547   4.735   5.396   0.348
 1386EOH      C 5548   4.613   5.462   0.281
 1386EOH      H 5549   4.853   5.249   0.304
 1387EOH      O 5550   1.037   7.836   5.220
 1387EOH      C 5551   0.979   7.718   5.163
 1387EOH      C 5552   1.063   7.672   5.042
 1387EOH      H 5553   1.121   7.813   5.257
 1388EOH      O 5554   1.166   2.714   6.735
 1388EOH      C 5555   1.295   2.775   6.731
 1388EOH      C 5556   1.283   2.916   6.670
 1388EOH      H 5557   1.109   2.767   6.789
 1389EOH      O 5558   0.036   1.738   4.046
 1389EOH      C 5559  -0.017   1.840   3.961
 1389EOH      C 5560  -0.006   1.977   4.030
 1389EOH      H 5561   0.130   1.747   4.049
 1390EOH      O 5562   2.798   0.709   5.775
 1390EOH      C 5563   2.763   0.800   5.670
 1390EOH      C 5564   2.776   0.945   5.720
 1390EOH      H 5565   2.888   0.724   5.798
 1391EOH      O 5566   5.771   7.792   1.903
 1391EOH      C 5567   5.814   7.928   1.911
 1391EOH      C 5568   5.733   8.004   2.018
 1391EOH      H 5569   5.809   7.746   1.977
 1392EOH      O 5570   6.617   6.894   0.987
 1392EOH      C 5571   6.581   6.973   1.101
 1392EOH      C 5572   6.446   7.043   1.074
 1392EOH      H 5573   6.556   6.823   0.979
 1393EOH      O 5574   7.376   3.729   1.006
 1393EOH      C 5575   7.241   3.724   0.958
 1393EOH      C 5576   7.239   3.707   0.805
 1393EOH      H 5577   7.426   3.661   0.963
 1394EOH      O 5578   1.462   4.211   5.749
 1394EOH      C 5579   1.327   4.256   5.749
 1394EOH      C 5580   1.287   4.299   5.607
 1394EOH      H 5581   1.467   4.132   5.697
 1395EOH      O 5582   4.548   4.770   7.749
 1395EOH      C 5583   4.463   4.656   7.739
 1395EOH      C 5584   4.514   4.546   7.834
 1395EOH      H 5585   4.558   4.791   7.840
 1396EOH      O 5586   7.307   5.899   4.902
 1396EOH      C 5587   7.186   5.974   4.914
 1396EOH      C 5588   7.204   6.111   4.846
 1396EOH      H 5589   7.312   5.862   4.815
 1397EOH      O 5590   5.966   3.135   1.646
 1397EOH      C 5591   5.892   3.256   1.664
 1397EOH      C 5592   5.918   3.311   1.805
 1397EOH      H 5593   6.057   3.158   1.633
 1398EOH      O 5594   4.103   6.134   2.276
 1398EOH      C 5595   4.200   6.098   2.178
 1398EOH      C 5596   4.150   6.139   2.038
 1398EOH      H 5597   4.101   6.228   2.281
 1399EOH      O 5598   5.657   2.711   4.122
 1399EOH      C 5599   5.678   2.743   3.984
 1399EOH      C 5600   5.586   2.859   3.942
 1399EOH      H 5601   5.622   2.788   4.165
 1400EOH      O 5602   0.771   5.504   4.074
 1400EOH      C 5603   0.790   5.407   4.177
 1400EOH      C 5604   0.938   5.405   4.219
 1400EOH      H 5605   0.788   5.589   4.111
 1401EOH      O 5606   2.121   5.334   5.583
 1401EOH      C 5607   2.135   5.413   5.465
 1401EOH      C 5608   2.126   5.321   5.341
 1401EOH      H 5609   2.033   5.300   5.585
 1402EOH      O 5610   3.667   4.782   4.128
 1402EOH      C 5611   3.745   4.875   4.053
 1402EOH      C 5612   3.681   4.899   3.915
 1402EOH      H 5613   3.585   4.823   4.152
 1403EOH      O 5614   6.607   6.422   0.196
 1403EOH      C 5615   6.748   6.411   0.174
 1403EOH      C 5616   6.802   6.286   0.244
 1403EOH      H 5617   6.566   6.344   0.162
 1404EOH      O 5618   4.527   7.538   2.385
 1404EOH      C 5619   4.549   7.405   2.431
 1404EOH      C 5620   4.701   7.382   2.446
 1404EOH      H 5621   4.438   7.546   2.355
 1405EOH      O 5622   5.671   5.017   0.827
 1405EOH      C 5623   5.681   5.122   0.730
 1405EOH      C 5624   5.828   5.165   0.715
 1405EOH      H 5625   5.700   4.936   0.787
 1406EOH      O 5626   2.985   0.455   0.746
 1406EOH      C 5627   3.083   0.352   0.759
 1406EOH      C 5628   3.087   0.269   0.629
 1406EOH      H 5629   2.988   0.511   0.822
 1407EOH      O 5630   2.047   1.603   5.854
 1407EOH      C 5631   2.155   1.647   5.772
 1407EOH      C 5632   2.259   1.722   5.857
 1407EOH      H 5633   2.084   1.561   5.930
 1408EOH      O 5634   7.652   5.606   2.305
 1408EOH      C 5635   7.549   5.666   2.384
 1408EOH      C 5636   7.461   5.556   2.446
 1408EOH      H 5637   7.730   5.599   2.359
 1409EOH      O 5638   1.756   1.228   1.385
 1409EOH      C 5639   1.660   1.280   1.293
 1409EOH      C 5640   1.553   1.359   1.371
 1409EOH      H 5641   1.813   1.299   1.410
 1410EOH      O 5642   1.803   7.027   1.531
 1410EOH      C 5643   1.801   7.154   1.596
 1410EOH      C 5644   1.685   7.160   1.697
 1410EOH      H 5645   1.827   6.960   1.594
 1411EOH      O 5646   7.777   7.005   6.113
 1411EOH      C 5647   7.808   6.905   6.210
 1411EOH      C 5648   7.867   6.781   6.141
 1411EOH      H 5649   7.849   7.011   6.052
 1412EOH      O 5650   0.426   3.067   3.203
 1412EOH      C 5651   0.492   2.965   3.128
 1412EOH      C 5652   0.389   2.887   3.044
 1412EOH      H 5653   0.395   3.133   3.144
 1413EOH      O 5654   4.540   1.453   4.241
 1413EOH      C 5655   4.571   1.320   4.196
 1413EOH      C 5656   4.723   1.302   4.190
 1413EOH      H 5657   4.508   1.447   4.329
 1414EOH      O 5658   3.352   3.783   3.272
 1414EOH      C 5659   3.459   3.852   3.336
 1414EOH      C 5660   3.503   3.970   3.248
 1414EOH      H 5661   3.316   3.720   3.332
 1415EOH      O 5662   1.942   4.760   0.637
 1415EOH      C 5663   2.083   4.780   0.632
 1415EOH      C 5664   2.136   4.737   0.494
 1415EOH      H 5665   1.913   4.780   0.725
 1416EOH      O 5666   1.378   1.499   2.091
 1416EOH      C 5667   1.430   1.621   2.038
 1416EOH      C 5668   1.433   1.611   1.884
 1416EOH      H 5669   1.293   1.484   2.053
 1417EOH      O 5670   3.487   7.392   5.223
 1417EOH      C 5671   3.621   7.419   5.266
 1417EOH      C 5672   3.720   7.360   5.165
 1417EOH      H 5673   3.428   7.438   5.280
 1418EOH      O 5674   2.752   6.167   5.557
 1418EOH      C 5675   2.767   6.306   5.585
 1418EOH      C 5676   2.829   6.377   5.464
 1418EOH      H 5677   2.692   6.158   5.484
 1419EOH      O 5678   3.338   6.367   0.917
 1419EOH      C 5679   3.248   6.457   0.982
 1419EOH      C 5680   3.116   6.464   0.902
 1419EOH      H 5681   3.307   6.279   0.931
 1420EOH      O 5682   1.269   7.785   3.305
 1420EOH      C 5683   1.159   7.876   3.314
 1420EOH      C 5684   1.174   7.984   3.205
 1420EOH      H 5685   1.257   7.730   3.229
 1421EOH      O 5686   0.112   2.826   4.398
 1421EOH      C 5687   0.012   2.898   4.470
 1421EOH      C 5688  -0.087   2.960   4.370
 1421EOH      H 5689   0.179   2.799   4.459
 1422EOH      O 5690   5.786   3.802   2.296
 1422EOH      C 5691   5.765   3.773   2.435
 1422EOH      C 5692   5.844   3.874   2.520
 1422EOH      H 5693   5.755   3.890   2.280
 1423EOH      O 5694   1.509   2.461   5.296
 1423EOH      C 5695   1.548   2.426   5.163
 1423EOH      C 5696   1.426   2.373   5.086
 1423EOH      H 5697   1.455   2.539   5.293
 1424EOH      O 5698   2.059   5.844   3.889
 1424EOH      C 5699   2.096   5.974   3.935
 1424EOH      C 5700   2.079   5.979   4.088
 1424EOH      H 5701   2.134   5.788   3.898
 1425EOH      O 5702   1.667   4.489   4.952
 1425EOH      C 5703   1.599   4.614   4.967
 1425EOH      C 5704   1.599   4.688   4.832
 1425EOH      H 5705   1.613   4.434   4.896
 1426EOH      O 5706   1.924   4.837   4.748
 1426EOH      C 5707   1.856   4.954   4.792
 1426EOH      C 5708   1.881   5.071   4.695
 1426EOH      H 5709   1.885   4.763   4.791
 1427EOH      O 5710   6.849   4.349   5.144
 1427EOH      C 5711   6.883   4.438   5.038
 1427EOH      C 5712   7.018   4.505   5.069
 1427EOH      H 5713   6.905   4.273   5.138
 1428EOH      O 5714   2.210   1.015   6.089
 1428EOH      C 5715   2.079   0.991   6.140
 1428EOH      C 5716   1.979   0.980   6.023
 1428EOH      H 5717   2.243   0.934   6.054
 1429EOH      O 5718   0.354   2.060   6.915
 1429EOH      C 5719   0.333   1.919   6.919
 1429EOH      C 5720   0.420   1.856   7.029
 1429EOH      H 5721   0.297   2.100   6.979
 1430EOH      O 5722   4.751   1.442   7.332
 1430EOH      C 5723   4.866   1.388   7.397
 1430EOH      C 5724   4.989   1.408   7.307
 1430EOH      H 5725   4.673   1.413   7.378
 1431EOH      O 5726   0.895   0.691   3.070
 1431EOH      C 5727   0.858   0.641   3.198
 1431EOH      C 5728   0.809   0.758   3.286
 1431EOH      H 5729   0.818   0.721   3.025
 1432EOH      O 5730   4.322   2.044   0.038
 1432EOH      C 5731   4.385   2.140   0.123
 1432EOH      C 5732   4.283   2.244   0.172
 1432EOH      H 5733   4.262   1.993   0.091
 1433EOH      O 5734   5.403   5.008   1.520
 1433EOH      C 5735   5.311   5.099   1.580
 1433EOH      C 5736   5.385   5.227   1.624
 1433EOH      H 5737   5.417   5.034   1.430
 1434EOH      O 5738   2.792   1.846   5.221
 1434EOH      C 5739   2.688   1.795   5.306
 1434EOH      C 5740   2.579   1.731   5.218
 1434EOH      H 5741   2.843   1.906   5.273
 1435EOH      O 5742   6.427   2.486   7.583
 1435EOH      C 5743   6.449   2.377   7.673
 1435EOH      C 5744   6.600   2.364   7.700
 1435EOH      H 5745   6.473   2.561   7.617
 1436EOH      O 5746   5.433   1.261   7.500
 1436EOH      C 5747   5.344   1.353   7.564
 1436EOH      C 5748   5.337   1.483   7.482
 1436EOH      H 5749   5.399   1.243   7.413
 1437EOH      O 5750   4.164   0.796   0.450
 1437EOH      C 5751   4.163   0.663   0.399
 1437EOH      C 5752   4.142   0.666   0.247
 1437EOH      H 5753   4.244   0.839   0.423
 1438EOH      O 5754   2.890   4.965   4.637
 1438EOH      C 5755   2.880   4.825   4.611
 1438EOH      C 5756   2.966   4.748   4.713
 1438EOH      H 5757   2.807   5.006   4.621
 1439EOH      O 5758   0.887   5.782   3.344
 1439EOH      C 5759   0.911   5.923   3.340
 1439EOH      C 5760   0.778   5.997   3.367
 1439EOH      H 5761   0.869   5.757   3.433
 1440EOH      O 5762   2.695   3.955   6.960
 1440EOH      C 5763   2.634   3.904   7.079
 1440EOH      C 5764   2.685   3.986   7.200
 1440EOH      H 5765   2.632   3.952   6.890
 1441EOH      O 5766   1.607   7.304   6.163
 1441EOH      C 5767   1.517   7.253   6.064
 1441EOH      C 5768   1.488   7.105   6.093
 1441EOH      H 5769   1.564   7.298   6.246
 1442EOH      O 5770   4.229   3.473   0.426
 1442EOH      C 5771   4.115   3.526   0.356
 1442EOH      C 5772   4.018   3.591   0.456
 1442EOH      H 5773   4.275   3.546   0.464
 1443EOH      O 5774   3.541   5.998   0.570
 1443EOH      C 5775   3.557   6.004   0.712
 1443EOH      C 5776   3.490   5.881   0.775
 1443EOH      H 5777   3.450   6.012   0.550
 1444EOH      O 5778   0.950   5.598   2.613
 1444EOH      C 5779   0.909   5.462   2.595
 1444EOH      C 5780   1.008   5.368   2.667
 1444EOH      H 5781   0.923   5.626   2.699
 1445EOH      O 5782   4.753   3.020   0.072
 1445EOH      C 5783   4.730   3.145   0.138
 1445EOH      C 5784   4.694   3.120   0.286
 1445EOH      H 5785   4.839   2.990   0.097
 1446EOH      O 5786   4.206   0.233   1.564
 1446EOH      C 5787   4.204   0.094   1.599
 1446EOH      C 5788   4.347   0.038   1.598
 1446EOH      H 5789   4.250   0.279   1.634
 1447EOH      O 5790   0.775   7.379   2.456
 1447EOH      C 5791   0.709   7.265   2.400
 1447EOH      C 5792   0.800   7.142   2.406
 1447EOH      H 5793   0.708   7.442   2.478
 1448EOH      O 5794   4.965   1.965   2.501
 1448EOH      C 5795   4.995   2.069   2.594
 1448EOH      C 5796   4.938   2.202   2.543
 1448EOH      H 5797   4.875   1.940   2.515
 1449EOH      O 5798   4.666   7.416   1.689
 1449EOH      C 5799   4.801   7.394   1.645
 1449EOH      C 5800   4.879   7.527   1.644
 1449EOH      H 5801   4.665   7.491   1.746
 1450EOH      O 5802   6.615   3.137   4.906
 1450EOH      C 5803   6.499   3.197   4.963
 1450EOH      C 5804   6.393   3.220   4.853
 1450EOH      H 5805   6.592   3.053   4.870
 1451EOH      O 5806   6.086   6.003   2.880
 1451EOH      C 5807   6.224   6.041   2.883
 1451EOH      C 5808   6.255   6.128   2.761
 1451EOH      H 5809   6.036   6.072   2.920
 1452EOH      O 5810   4.956   4.006   2.056
 1452EOH      C 5811   5.041   3.906   2.000
 1452EOH      C 5812   5.170   3.974   1.948
 1452EOH      H 5813   4.995   4.035   2.137
 1453EOH      O 5814   4.095   3.869   4.913
 1453EOH      C 5815   4.016   3.752   4.937
 1453EOH      C 5816   4.079   3.671   5.052
 1453EOH      H 5817   4.079   3.931   4.982
 1454EOH      O 5818   4.418   0.465   6.750
 1454EOH      C 5819   4.286   0.501   6.789
 1454EOH      C 5820   4.198   0.522   6.665
 1454EOH      H 5821   4.469   0.448   6.827
 1455EOH      O 5822   4.084   5.443   6.236
 1455EOH      C 5823   4.087   5.304   6.204
 1455EOH      C 5824   4.232   5.262   6.171
 1455EOH      H 5825   4.128   5.456   6.319
 1456EOH      O 5826   7.853   7.607   5.098
 1456EOH      C 5827   7.711   7.610   5.114
 1456EOH      C 5828   7.674   7.544   5.248
 1456EOH      H 5829   7.892   7.669   5.159
 1457EOH      O 5830   2.233   4.326   3.469
 1457EOH      C 5831   2.114   4.293   3.397
 1457EOH      C 5832   1.992   4.357   3.465
 1457EOH      H 5833   2.303   4.273   3.436
 1458EOH      O 5834   6.296   6.586   5.019
 1458EOH      C 5835   6.274   6.685   5.120
 1458EOH      C 5836   6.399   6.690   5.210
 1458EOH      H 5837   6.354   6.623   4.954
 1459EOH      O 5838   6.985   4.617   3.235
 1459EOH      C 5839   7.090   4.616   3.137
 1459EOH      C 5840   7.212   4.690   3.195
 1459EOH      H 5841   6.907   4.586   3.192
 1460EOH      O 5842   0.856   7.373   2.935
 1460EOH      C 5843   0.746   7.465   2.929
 1460EOH      C 5844   0.746   7.537   2.793
 1460EOH      H 5845   0.846   7.309   2.866
 1461EOH      O 5846   2.556   0.637   4.081
 1461EOH      C 5847   2.619   0.753   4.135
 1461EOH      C 5848   2.520   0.870   4.140
 1461EOH      H 5849   2.490   0.607   4.142
 1462EOH      O 5850   4.008   4.376   4.693
 1462EOH      C 5851   3.951   4.363   4.824
 1462EOH      C 5852   3.922   4.214   4.850
 1462EOH      H 5853   4.091   4.331   4.693
 1463EOH      O 5854   2.998   0.918   6.754
 1463EOH      C 5855   2.975   1.009   6.646
 1463EOH      C 5856   3.104   1.028   6.563
 1463EOH      H 5857   2.984   0.831   6.720
 1464EOH      O 5858   6.794   6.176   3.406
 1464EOH      C 5859   6.744   6.044   3.382
 1464EOH      C 5860   6.847   5.963   3.302
 1464EOH      H 5861   6.873   6.168   3.457
 1465EOH      O 5862   7.281   1.359   4.027
 1465EOH      C 5863   7.196   1.299   4.126
 1465EOH      C 5864   7.283   1.229   4.232
 1465EOH      H 5865   7.329   1.429   4.068
 1466EOH      O 5866   5.508   6.391   4.635
 1466EOH      C 5867   5.503   6.530   4.665
 1466EOH      C 5868   5.399   6.555   4.776
 1466EOH      H 5869   5.576   6.351   4.686
 1467EOH      O 5870   4.587   4.697   5.721
 1467EOH      C 5871   4.479   4.709   5.814
 1467EOH      C 5872   4.470   4.583   5.902
 1467EOH      H 5873   4.668   4.704   5.769
 1468EOH      O 5874   2.937   3.695   2.898
 1468EOH      C 5875   3.078   3.705   2.882
 1468EOH      C 5876   3.145   3.591   2.960
 1468EOH      H 5877   2.909   3.612   2.863
 1469EOH      O 5878   5.262   5.412   2.317
 1469EOH      C 5879   5.225   5.317   2.417
 1469EOH      C 5880   5.081   5.270   2.391
 1469EOH      H 5881   5.345   5.450   2.341
 1470EOH      O 5882   3.548   0.910   3.507
 1470EOH      C 5883   3.614   0.975   3.398
 1470EOH      C 5884   3.511   1.057   3.319
 1470EOH      H 5885   3.517   0.978   3.565
 1471EOH      O 5886   5.983   0.576   0.445
 1471EOH      C 5887   5.897   0.518   0.346
 1471EOH      C 5888   5.762   0.591   0.347
 1471EOH      H 5889   6.028   0.649   0.406
 1472EOH      O 5890   4.909   1.595   1.753
 1472EOH      C 5891   4.978   1.689   1.671
 1472EOH      C 5892   5.129   1.679   1.699
 1472EOH      H 5893   4.963   1.519   1.763
 1473EOH      O 5894   4.130   1.571   2.346
 1473EOH      C 5895   4.201   1.657   2.255
 1473EOH      C 5896   4.268   1.771   2.334
 1473EOH      H 5897   4.193   1.531   2.403
 1474EOH      O 5898   4.420   4.670   7.030
 1474EOH      C 5899   4.278   4.668   7.022
 1474EOH      C 5900   4.236   4.570   6.911
 1474EOH      H 5901   4.449   4.584   7.058
 1475EOH      O 5902   0.753   1.788   5.281
 1475EOH      C 5903   0.705   1.904   5.349
 1475EOH      C 5904   0.686   2.021   5.251
 1475EOH      H 5905   0.727   1.713   5.332
 1476EOH      O 5906   5.650   2.882   5.739
 1476EOH      C 5907   5.597   2.968   5.840
 1476EOH      C 5908   5.659   2.934   5.976
 1476EOH      H 5909   5.742   2.901   5.730
 1477EOH      O 5910   3.593   3.851   5.022
 1477EOH      C 5911   3.552   3.947   4.924
 1477EOH      C 5912   3.540   3.879   4.787
 1477EOH      H 5913   3.522   3.790   5.034
 1478EOH      O 5914   6.454   4.821   7.770
 1478EOH      C 5915   6.526   4.942   7.799
 1478EOH      C 5916   6.552   4.951   7.950
 1478EOH      H 5917   6.444   4.816   7.676
 1479EOH      O 5918   3.209   5.851   6.313
 1479EOH      C 5919   3.352   5.855   6.312
 1479EOH      C 5920   3.402   5.915   6.444
 1479EOH      H 5921   3.181   5.765   6.339
 1480EOH      O 5922   1.751   3.253   6.132
 1480EOH      C 5923   1.642   3.283   6.045
 1480EOH      C 5924   1.511   3.288   6.127
 1480EOH      H 5925   1.777   3.333   6.175
 1481EOH      O 5926   1.675   4.081   6.796
 1481EOH      C 5927   1.816   4.057   6.789
 1481EOH      C 5928   1.884   4.112   6.916
 1481EOH      H 5929   1.637   4.020   6.857
 1482EOH      O 5930   2.643   5.604   0.431
 1482EOH      C 5931   2.665   5.726   0.361
 1482EOH      C 5932   2.627   5.847   0.450
 1482EOH      H 5933   2.665   5.533   0.373
 1483EOH      O 5934   7.846   0.016   3.785
 1483EOH      C 5935   7.850   0.053   3.923
 1483EOH      C 5936   7.834   0.206   3.936
 1483EOH      H 5937   7.767   0.052   3.747
 1484EOH      O 5938   4.109   0.071   6.434
 1484EOH      C 5939   4.233   0.058   6.362
 1484EOH      C 5940   4.272  -0.091   6.355
 1484EOH      H 5941   4.041   0.029   6.384
 1485EOH      O 5942   0.736   7.141   2.844
 1485EOH      C 5943   0.810   7.041   2.914
 1485EOH      C 5944   0.949   7.024   2.850
 1485EOH      H 5945   0.664   7.167   2.898
 1486EOH      O 5946   2.462   7.557   7.645
 1486EOH      C 5947   2.603   7.575   7.647
 1486EOH      C 5948   2.661   7.520   7.778
 1486EOH      H 5949   2.445   7.467   7.671
 1487EOH      O 5950   0.271   0.823   6.317
 1487EOH      C 5951   0.248   0.687   6.279
 1487EOH      C 5952   0.121   0.637   6.351
 1487EOH      H 5953   0.196   0.873   6.287
 1488EOH      O 5954   7.368   3.867   7.413
 1488EOH      C 5955   7.365   3.914   7.278
 1488EOH      C 5956   7.272   4.037   7.270
 1488EOH      H 5957   7.440   3.909   7.457
 1489EOH      O 5958   3.911   5.321   3.687
 1489EOH      C 5959   3.863   5.424   3.774
 1489EOH      C 5960   3.759   5.510   3.700
 1489EOH      H 5961   3.838   5.269   3.659
 1490EOH      O 5962   3.946   5.463   0.292
 1490EOH      C 5963   3.890   5.587   0.248
 1490EOH      C 5964   3.907   5.693   0.358
 1490EOH      H 5965   4.037   5.476   0.312
 1491EOH      O 5966   3.169   7.237   6.157
 1491EOH      C 5967   3.028   7.253   6.170
 1491EOH      C 5968   2.980   7.361   6.071
 1491EOH      H 5969   3.189   7.147   6.181
 1492EOH      O 5970   3.348   5.629   7.035
 1492EOH      C 5971   3.269   5.657   7.151
 1492EOH      C 5972   3.148   5.743   7.111
 1492EOH      H 5973   3.410   5.562   7.059
 1493EOH      O 5974   3.794   4.244   0.790
 1493EOH      C 5975   3.687   4.212   0.701
 1493EOH      C 5976   3.630   4.075   0.739
 1493EOH      H 5977   3.759   4.245   0.878
 1494EOH      O 5978   4.401   2.753   5.570
 1494EOH      C 5979   4.364   2.619   5.535
 1494EOH      C 5980   4.226   2.587   5.595
 1494EOH      H 5981   4.325   2.808   5.563
 1495EOH      O 5982   0.111   6.974   2.609
 1495EOH      C 5983   0.007   7.023   2.523
 1495EOH      C 5984   0.015   7.177   2.515
 1495EOH      H 5985   0.194   6.989   2.566
 1496EOH      O 5986   1.107   5.179   0.478
 1496EOH      C 5987   1.066   5.108   0.595
 1496EOH      C 5988   0.944   5.020   0.560
 1496EOH      H 5989   1.196   5.207   0.489
 1497EOH      O 5990   4.053   2.009   3.654
 1497EOH      C 5991   4.181   2.054   3.610
 1497EOH      C 5992   4.281   2.045   3.728
 1497EOH      H 5993   4.002   1.984   3.578
 1498EOH      O 5994   4.619   1.769   0.483
 1498EOH      C 5995   4.660   1.886   0.411
 1498EOH      C 5996   4.687   1.849   0.265
 1498EOH      H 5997   4.590   1.796   0.568
 1499EOH      O 5998   0.251   0.980   2.083
 1499EOH      C 5999   0.303   1.081   1.996
 1499EOH      C 6000   0.428   1.027   1.924
 1499EOH      H 6001   0.232   0.904   2.030
 1500EOH      O 6002   2.451   1.990   1.185
 1500EOH      C 6003   2.567   1.923   1.235
 1500EOH      C 6004   2.587   1.958   1.384
 1500EOH      H 6005   2.374   1.945   1.217
 1501EOH      O 6006   4.588   7.273   6.963
 1501EOH      C 6007   4.564   7.412   6.944
 1501EOH      C 6008   4.590   7.489   7.075
 1501EOH      H 6009   4.682   7.260   6.961
 1502EOH      O 6010   7.279   2.006   0.986
 1502EOH      C 6011   7.401   2.075   1.013
 1502EOH      C 6012   7.426   2.182   0.906
 1502EOH      H 6013   7.207   2.065   0.999
 1503EOH      O 6014   2.211   1.748   7.012
 1503EOH      C 6015   2.078   1.700   6.991
 1503EOH      C 6016   2.059   1.565   7.061
 1503EOH      H 6017   2.219   1.833   6.972
 1504EOH      O 6018   3.847   3.771   0.065
 1504EOH      C 6019   3.759   3.857  -0.009
 1504EOH      C 6020   3.680   3.946   0.089
 1504EOH      H 6021   3.910   3.825   0.109
 1505EOH      O 6022   4.484   4.299   2.274
 1505EOH      C 6023   4.426   4.170   2.292
 1505EOH      C 6024   4.446   4.086   2.164
 1505EOH      H 6025   4.573   4.286   2.247
 1506EOH      O 6026   1.886   6.313   1.453
 1506EOH      C 6027   2.002   6.363   1.384
 1506EOH      C 6028   2.128   6.292   1.436
 1506EOH      H 6029   1.810   6.353   1.414
 1507EOH      O 6030   5.823   7.234   5.417
 1507EOH      C 6031   5.785   7.141   5.315
 1507EOH      C 6032   5.911   7.083   5.248
 1507EOH      H 6033   5.747   7.252   5.470
 1508EOH      O 6034   7.684   6.523   6.004
 1508EOH      C 6035   7.697   6.396   5.940
 1508EOH      C 6036   7.598   6.387   5.822
 1508EOH      H 6037   7.728   6.588   5.951
 1509EOH      O 6038   3.105   6.204   7.276
 1509EOH      C 6039   2.998   6.204   7.181
 1509EOH      C 6040   2.870   6.259   7.247
 1509EOH      H 6041   3.135   6.293   7.286
 1510EOH      O 6042   0.244   0.396   5.253
 1510EOH      C 6043   0.243   0.539   5.252
 1510EOH      C 6044   0.355   0.591   5.160
 1510EOH      H 6045   0.217   0.369   5.166
 1511EOH      O 6046   6.386   1.276   2.229
 1511EOH      C 6047   6.256   1.334   2.208
 1511EOH      C 6048   6.215   1.320   2.060
 1511EOH      H 6049   6.373   1.186   2.252
 1512EOH      O 6050   0.388   1.524   3.603
 1512EOH      C 6051   0.460   1.644   3.631
 1512EOH      C 6052   0.390   1.762   3.561
 1512EOH      H 6053   0.316   1.516   3.663
 1513EOH      O 6054   2.787   1.446   2.540
 1513EOH      C 6055   2.874   1.405   2.645
 1513EOH      C 6056   2.907   1.255   2.629
 1513EOH      H 6057   2.824   1.416   2.459
 1514EOH      O 6058   2.788   1.691   3.800
 1514EOH      C 6059   2.764   1.825   3.757
 1514EOH      C 6060   2.809   1.841   3.611
 1514EOH      H 6061   2.715   1.638   3.772
 1515EOH      O 6062   2.116   2.035   0.815
 1515EOH      C 6063   2.069   1.998   0.945
 1515EOH      C 6064   1.973   1.878   0.933
 1515EOH      H 6065   2.210   2.033   0.817
 1516EOH      O 6066   3.600   6.573   5.018
 1516EOH      C 6067   3.650   6.440   5.030
 1516EOH      C 6068   3.757   6.416   4.922
 1516EOH      H 6069   3.528   6.582   5.079
 1517EOH      O 6070   0.715   5.140   4.846
 1517EOH      C 6071   0.720   5.004   4.803
 1517EOH      C 6072   0.597   4.974   4.715
 1517EOH      H 6073   0.790   5.156   4.901
 1518EOH      O 6074   2.583   2.616   1.690
 1518EOH      C 6075   2.689   2.533   1.644
 1518EOH      C 6076   2.635   2.435   1.538
 1518EOH      H 6077   2.555   2.671   1.618
 1519EOH      O 6078   6.420   1.739   4.377
 1519EOH      C 6079   6.409   1.843   4.280
 1519EOH      C 6080   6.436   1.786   4.140
 1519EOH      H 6081   6.351   1.677   4.360
 1520EOH      O 6082   4.215   7.673   2.329
 1520EOH      C 6083   4.081   7.636   2.296
 1520EOH      C 6084   4.040   7.512   2.378
 1520EOH      H 6085   4.218   7.768   2.334
 1521EOH      O 6086   5.871   7.463   5.314
 1521EOH      C 6087   5.988   7.525   5.367
 1521EOH      C 6088   5.977   7.529   5.521
 1521EOH      H 6089   5.866   7.375   5.348
 1522EOH      O 6090   7.739   6.744   2.070
 1522EOH      C 6091   7.775   6.677   2.191
 1522EOH      C 6092   7.891   6.752   2.257
 1522EOH      H 6093   7.698   6.826   2.092
 1523EOH      O 6094   3.833   1.302   7.661
 1523EOH      C 6095   3.883   1.270   7.791
 1523EOH      C 6096   3.775   1.196   7.871
 1523EOH      H 6097   3.840   1.225   7.607
 1524EOH      O 6098   6.310   6.966   1.691
 1524EOH      C 6099   6.385   6.929   1.808
 1524EOH      C 6100   6.531   6.900   1.768
 1524EOH      H 6101   6.345   7.049   1.660
 1525EOH      O 6102   4.417   5.329   0.802
 1525EOH      C 6103   4.298   5.369   0.870
 1525EOH      C 6104   4.268   5.517   0.839
 1525EOH      H 6105   4.399   5.325   0.710
 1526EOH      O 6106   6.250   6.738   2.469
 1526EOH      C 6107   6.370   6.668   2.435
 1526EOH      C 6108   6.428   6.725   2.304
 1526EOH      H 6109   6.275   6.824   2.500
 1527EOH      O 6110   2.991   1.664   0.796
 1527EOH      C 6111   2.963   1.634   0.933
 1527EOH      C 6112   2.811   1.626   0.954
 1527EOH      H 6113   2.977   1.586   0.745
 1528EOH      O 6114   4.409   2.746   1.444
 1528EOH      C 6115   4.294   2.823   1.408
 1528EOH      C 6116   4.274   2.934   1.514
 1528EOH      H 6117   4.485   2.802   1.440
 1529EOH      O 6118   5.994   2.731   3.255
 1529EOH      C 6119   5.893   2.632   3.282
 1529EOH      C 6120   5.776   2.698   3.356
 1529EOH      H 6121   5.990   2.752   3.163
 1530EOH      O 6122   5.915   7.537   2.009
 1530EOH      C 6123   5.810   7.450   2.050
 1530EOH      C 6124   5.679   7.490   1.979
 1530EOH      H 6125   5.956   7.501   1.932
 1531EOH      O 6126   4.344   1.081   3.820
 1531EOH      C 6127   4.454   1.149   3.881
 1531EOH      C 6128   4.547   1.208   3.774
 1531EOH      H 6129   4.293   1.147   3.775
 1532EOH      O 6130   1.424   1.932   2.614
 1532EOH      C 6131   1.403   1.933   2.755
 1532EOH      C 6132   1.364   1.792   2.802
 1532EOH      H 6133   1.507   1.890   2.596
 1533EOH      O 6134   6.599   1.653   1.632
 1533EOH      C 6135   6.608   1.592   1.761
 1533EOH      C 6136   6.550   1.449   1.753
 1533EOH      H 6137   6.653   1.603   1.572
 1534EOH      O 6138   7.028   5.463   6.696
 1534EOH      C 6139   6.976   5.574   6.770
 1534EOH      C 6140   7.080   5.688   6.767
 1534EOH      H 6141   6.960   5.397   6.692
 1535EOH      O 6142   0.309   4.681   3.497
 1535EOH      C 6143   0.399   4.693   3.387
 1535EOH      C 6144   0.540   4.722   3.440
 1535EOH      H 6145   0.322   4.596   3.536
 1536EOH      O 6146   1.193   3.689   0.247
 1536EOH      C 6147   1.159   3.811   0.181
 1536EOH      C 6148   1.205   3.929   0.269
 1536EOH      H 6149   1.206   3.622   0.181
 1537EOH      O 6150   3.443   4.052   2.121
 1537EOH      C 6151   3.453   4.194   2.109
 1537EOH      C 6152   3.332   4.246   2.029
 1537EOH      H 6153   3.417   4.018   2.037
 1538EOH      O 6154   5.771   0.114   5.239
 1538EOH      C 6155   5.711   0.009   5.162
 1538EOH      C 6156   5.716  -0.123   5.241
 1538EOH      H 6157   5.742   0.105   5.328
 1539EOH      O 6158   2.885   1.641   1.921
 1539EOH      C 6159   2.795   1.700   1.826
 1539EOH      C 6160   2.736   1.830   1.883
 1539EOH      H 6161   2.964   1.694   1.923
 1540EOH      O 6162   3.517   7.348   7.456
 1540EOH      C 6163   3.508   7.226   7.530
 1540EOH      C 6164   3.598   7.235   7.654
 1540EOH      H 6165   3.459   7.411   7.496
 1541EOH      O 6166   2.244   7.101   1.783
 1541EOH      C 6167   2.363   7.178   1.763
 1541EOH      C 6168   2.373   7.216   1.614
 1541EOH      H 6169   2.172   7.160   1.795
 1542EOH      O 6170   0.761   3.045   4.118
 1542EOH      C 6171   0.731   3.181   4.083
 1542EOH      C 6172   0.829   3.274   4.157
 1542EOH      H 6173   0.843   3.022   4.077
 1543EOH      O 6174   1.806   2.430   3.698
 1543EOH      C 6175   1.693   2.382   3.771
 1543EOH      C 6176   1.610   2.287   3.682
 1543EOH      H 6177   1.863   2.356   3.679
 1544EOH      O 6178   1.119   3.158   6.004
 1544EOH      C 6179   1.143   3.056   6.102
 1544EOH      C 6180   1.158   2.920   6.032
 1544EOH      H 6181   1.195   3.164   5.948
 1545EOH      O 6182   1.872   7.447   4.374
 1545EOH      C 6183   1.780   7.554   4.357
 1545EOH      C 6184   1.737   7.563   4.209
 1545EOH      H 6185   1.839   7.371   4.328
 1546EOH      O 6186   7.287   0.969   5.058
 1546EOH      C 6187   7.159   1.024   5.028
 1546EOH      C 6188   7.057   0.910   5.009
 1546EOH      H 6189   7.273   0.887   5.103
 1547EOH      O 6190   6.152   4.842   0.871
 1547EOH      C 6191   6.265   4.869   0.955
 1547EOH      C 6192   6.332   4.737   0.998
 1547EOH      H 6193   6.162   4.893   0.792
 1548EOH      O 6194   0.916   6.388   6.360
 1548EOH      C 6195   0.832   6.296   6.289
 1548EOH      C 6196   0.705   6.269   6.372
 1548EOH      H 6197   0.889   6.476   6.337
 1549EOH      O 6198   6.554   7.544   5.952
 1549EOH      C 6199   6.444   7.553   5.861
 1549EOH      C 6200   6.346   7.437   5.889
 1549EOH      H 6201   6.533   7.596   6.028
 1550EOH      O 6202   5.167   5.496   4.381
 1550EOH      C 6203   5.251   5.494   4.265
 1550EOH      C 6204   5.387   5.558   4.298
 1550EOH      H 6205   5.094   5.438   4.364
 1551EOH      O 6206   4.857   0.577   6.503
 1551EOH      C 6207   4.858   0.694   6.420
 1551EOH      C 6208   4.826   0.818   6.505
 1551EOH      H 6209   4.937   0.574   6.553
 1552EOH      O 6210   3.267   6.967   6.949
 1552EOH      C 6211   3.389   6.894   6.965
 1552EOH      C 6212   3.441   6.912   7.109
 1552EOH      H 6213   3.196   6.914   6.983
 1553EOH      O 6214   4.229   2.881   3.499
 1553EOH      C 6215   4.310   2.823   3.601
 1553EOH      C 6216   4.404   2.717   3.540
 1553EOH      H 6217   4.286   2.935   3.447
 1554EOH      O 6218   0.210   1.449   3.771
 1554EOH      C 6219   0.220   1.462   3.913
 1554EOH      C 6220   0.128   1.360   3.983
 1554EOH      H 6221   0.221   1.358   3.749
 1555EOH      O 6222   0.163   3.204   1.862
 1555EOH      C 6223   0.299   3.187   1.821
 1555EOH      C 6224   0.305   3.172   1.668
 1555EOH      H 6225   0.128   3.281   1.821
 1556EOH      O 6226   4.020   4.324   0.700
 1556EOH      C 6227   4.064   4.422   0.794
 1556EOH      C 6228   4.146   4.531   0.723
 1556EOH      H 6229   3.937   4.291   0.729
 1557EOH      O 6230   5.919   2.112   0.174
 1557EOH      C 6231   5.795   2.103   0.245
 1557EOH      C 6232   5.734   1.964   0.217
 1557EOH      H 6233   5.988   2.111   0.239
 1558EOH      O 6234   2.550   4.880   5.057
 1558EOH      C 6235   2.532   4.986   5.152
 1558EOH      C 6236   2.600   4.948   5.285
 1558EOH      H 6237   2.466   4.855   5.023
 1559EOH      O 6238   5.622   5.906   4.778
 1559EOH      C 6239   5.546   6.019   4.818
 1559EOH      C 6240   5.397   5.991   4.791
 1559EOH      H 6241   5.592   5.832   4.828
 1560EOH      O 6242   4.097   3.418   2.111
 1560EOH      C 6243   3.973   3.477   2.151
 1560EOH      C 6244   3.863   3.438   2.050
 1560EOH      H 6245   4.092   3.325   2.127
 1561EOH      O 6246   4.153   3.754   4.463
 1561EOH      C 6247   4.138   3.889   4.420
 1561EOH      C 6248   4.207   3.983   4.520
 1561EOH      H 6249   4.245   3.733   4.464
 1562EOH      O 6250   1.441   3.955   5.124
 1562EOH      C 6251   1.420   4.044   5.014
 1562EOH      C 6252   1.492   3.989   4.889
 1562EOH      H 6253   1.394   3.875   5.106
 1563EOH      O 6254   3.469   2.574   2.243
 1563EOH      C 6255   3.423   2.708   2.259
 1563EOH      C 6256   3.543   2.799   2.289
 1563EOH      H 6257   3.515   2.569   2.160
 1564EOH      O 6258   6.232   1.437   7.624
 1564EOH      C 6259   6.165   1.481   7.506
 1564EOH      C 6260   6.013   1.474   7.527
 1564EOH      H 6261   6.258   1.512   7.675
 1565EOH      O 6262   2.369   4.750   1.780
 1565EOH      C 6263   2.416   4.873   1.836
 1565EOH      C 6264   2.439   4.973   1.722
 1565EOH      H 6265   2.281   4.763   1.750
 1566EOH      O 6266   2.364   2.703   7.221
 1566EOH      C 6267   2.303   2.771   7.112
 1566EOH      C 6268   2.188   2.859   7.166
 1566EOH      H 6269   2.413   2.766   7.272
 1567EOH      O 6270   1.235   5.222   5.970
 1567EOH      C 6271   1.193   5.340   5.900
 1567EOH      C 6272   1.138   5.444   6.001
 1567EOH      H 6273   1.308   5.245   6.026
 1568EOH      O 6274   7.397   2.815   0.065
 1568EOH      C 6275   7.460   2.886  -0.043
 1568EOH      C 6276   7.593   2.944   0.006
 1568EOH      H 6277   7.418   2.723   0.055
 1569EOH      O 6278   4.671   6.465   3.467
 1569EOH      C 6279   4.531   6.487   3.448
 1569EOH      C 6280   4.484   6.408   3.324
 1569EOH      H 6281   4.691   6.375   3.448
 1570EOH      O 6282   5.226   6.273   7.208
 1570EOH      C 6283   5.310   6.162   7.243
 1570EOH      C 6284   5.365   6.095   7.115
 1570EOH      H 6285   5.189   6.306   7.288
 1571EOH      O 6286   0.937   0.302   7.597
 1571EOH      C 6287   1.060   0.248   7.550
 1571EOH      C 6288   1.063   0.096   7.574
 1571EOH      H 6289   0.866   0.248   7.565
 1572EOH      O 6290   7.380   6.219   0.566
 1572EOH      C 6291   7.453   6.172   0.453
 1572EOH      C 6292   7.356   6.116   0.347
 1572EOH      H 6293   7.320   6.287   0.538
 1573EOH      O 6294   3.879   1.765   6.741
 1573EOH      C 6295   3.789   1.695   6.827
 1573EOH      C 6296   3.704   1.597   6.743
 1573EOH      H 6297   3.967   1.736   6.759
 1574EOH      O 6298   3.289   0.925   7.125
 1574EOH      C 6299   3.272   0.862   6.998
 1574EOH      C 6300   3.164   0.753   7.007
 1574EOH      H 6301   3.226   0.994   7.134
 1575EOH      O 6302   2.367   0.447   5.250
 1575EOH      C 6303   2.353   0.357   5.361
 1575EOH      C 6304   2.391   0.429   5.492
 1575EOH      H 6305   2.296   0.509   5.254
 1576EOH      O 6306   1.608   0.565   4.890
 1576EOH      C 6307   1.574   0.541   4.753
 1576EOH      C 6308   1.421   0.523   4.741
 1576EOH      H 6309   1.583   0.654   4.911
 1577EOH      O 6310   3.021   4.944   2.776
 1577EOH      C 6311   3.116   4.890   2.683
 1577EOH      C 6312   3.164   4.753   2.734
 1577EOH      H 6313   2.939   4.900   2.763
 1578EOH      O 6314   3.727   0.566   5.902
 1578EOH      C 6315   3.601   0.594   5.842
 1578EOH      C 6316   3.487   0.552   5.936
 1578EOH      H 6317   3.736   0.618   5.981
 1579EOH      O 6318   5.023   3.753   6.817
 1579EOH      C 6319   4.981   3.617   6.799
 1579EOH      C 6320   4.954   3.554   6.937
 1579EOH      H 6321   4.946   3.806   6.828
 1580EOH      O 6322   7.390   5.112   3.180
 1580EOH      C 6323   7.324   5.237   3.156
 1580EOH      C 6324   7.313   5.316   3.288
 1580EOH      H 6325   7.475   5.131   3.218
 1581EOH      O 6326   2.947   1.023   6.997
 1581EOH      C 6327   2.806   1.046   6.989
 1581EOH      C 6328   2.739   1.010   7.123
 1581EOH      H 6329   2.974   0.989   6.913
 1582EOH      O 6330   2.295   7.184   1.238
 1582EOH      C 6331   2.427   7.240   1.240
 1582EOH      C 6332   2.432   7.362   1.146
 1582EOH      H 6333   2.244   7.226   1.305
 1583EOH      O 6334   4.699   4.800   4.660
 1583EOH      C 6335   4.775   4.709   4.740
 1583EOH      C 6336   4.746   4.737   4.889
 1583EOH      H 6337   4.626   4.752   4.624
 1584EOH      O 6338   1.321   7.082   2.432
 1584EOH      C 6339   1.296   7.027   2.562
 1584EOH      C 6340   1.426   7.033   2.644
 1584EOH      H 6341   1.353   7.170   2.444
 1585EOH      O 6342   2.296   7.269   3.751
 1585EOH      C 6343   2.345   7.143   3.798
 1585EOH      C 6344   2.285   7.112   3.936
 1585EOH      H 6345   2.203   7.261   3.735
 1586EOH      O 6346   1.662   4.366   7.827
 1586EOH      C 6347   1.622   4.419   7.954
 1586EOH      C 6348   1.481   4.479   7.941
 1586EOH      H 6349   1.619   4.282   7.815
 1587EOH      O 6350   3.355   2.727   7.815
 1587EOH      C 6351   3.475   2.803   7.831
 1587EOH      C 6352   3.572   2.769   7.717
 1587EOH      H 6353   3.309   2.760   7.740
 1588EOH      O 6354   6.871   2.965   3.134
 1588EOH      C 6355   6.814   3.096   3.121
 1588EOH      C 6356   6.770   3.146   3.260
 1588EOH      H 6357   6.953   2.973   3.181
 1589EOH      O 6358   7.624   1.410   7.773
 1589EOH      C 6359   7.545   1.293   7.752
 1589EOH      C 6360   7.556   1.249   7.604
 1589EOH      H 6361   7.715   1.387   7.759
 1590EOH      O 6362   1.112   0.907   5.192
 1590EOH      C 6363   1.217   0.814   5.218
 1590EOH      C 6364   1.276   0.768   5.084
 1590EOH      H 6365   1.151   0.992   5.180
 1591EOH      O 6366   5.705   2.728   3.020
 1591EOH      C 6367   5.698   2.834   2.924
 1591EOH      C 6368   5.551   2.864   2.893
 1591EOH      H 6369   5.668   2.760   3.101
 1592EOH      O 6370   1.087   6.194   6.931
 1592EOH      C 6371   1.131   6.096   6.836
 1592EOH      C 6372   1.087   5.956   6.883
 1592EOH      H 6373   0.995   6.210   6.917
 1593EOH      O 6374   1.691   1.601   7.478
 1593EOH      C 6375   1.788   1.707   7.483
 1593EOH      C 6376   1.735   1.828   7.404
 1593EOH      H 6377   1.615   1.628   7.527
 1594EOH      O 6378   2.409   5.259   6.910
 1594EOH      C 6379   2.535   5.262   6.978
 1594EOH      C 6380   2.614   5.385   6.931
 1594EOH      H 6381   2.381   5.169   6.910
 1595EOH      O 6382   5.332   3.709   0.662
 1595EOH      C 6383   5.266   3.776   0.770
 1595EOH      C 6384   5.253   3.679   0.889
 1595EOH      H 6385   5.415   3.676   0.694
 1596EOH      O 6386   7.287   3.852   3.851
 1596EOH      C 6387   7.361   3.963   3.800
 1596EOH      C 6388   7.439   4.032   3.914
 1596EOH      H 6389   7.348   3.793   3.892
 1597EOH      O 6390   2.549   1.925   3.428
 1597EOH      C 6391   2.462   1.830   3.367
 1597EOH      C 6392   2.337   1.811   3.454
 1597EOH      H 6393   2.625   1.933   3.372
 1598EOH      O 6394   7.292   1.468   1.887
 1598EOH      C 6395   7.322   1.411   2.015
 1598EOH      C 6396   7.277   1.509   2.125
 1598EOH      H 6397   7.208   1.435   1.858
 1599EOH      O 6398   2.954   1.885   6.307
 1599EOH      C 6399   3.070   1.887   6.391
 1599EOH      C 6400   3.133   2.028   6.388
 1599EOH      H 6401   2.924   1.797   6.297
 1600EOH      O 6402   1.192   1.132   0.058
 1600EOH      C 6403   1.133   1.084  -0.063
 1600EOH      C 6404   1.240   1.079  -0.173
 1600EOH      H 6405   1.224   1.059   0.108
 1601EOH      O 6406   0.335   2.637   6.252
 1601EOH      C 6407   0.238   2.532   6.258
 1601EOH      C 6408   0.272   2.423   6.154
 1601EOH      H 6409   0.421   2.601   6.265
 1602EOH      O 6410   3.687   6.013   4.858
 1602EOH      C 6411   3.755   6.074   4.748
 1602EOH      C 6412   3.650   6.125   4.648
 1602EOH      H 6413   3.719   5.924   4.865
 1603EOH      O 6414   2.799   0.586   1.022
 1603EOH      C 6415   2.851   0.468   1.083
 1603EOH      C 6416   2.864   0.489   1.235
 1603EOH      H 6417   2.704   0.582   1.027
 1604EOH      O 6418   0.037   1.861   2.518
 1604EOH      C 6419  -0.062   1.796   2.597
 1604EOH      C 6420  -0.168   1.732   2.506
 1604EOH      H 6421   0.085   1.796   2.470
 1605EOH      O 6422   7.202   6.041   6.459
 1605EOH      C 6423   7.222   6.013   6.598
 1605EOH      C 6424   7.095   6.053   6.675
 1605EOH      H 6425   7.154   5.970   6.420
 1606EOH      O 6426   5.554   5.280   4.541
 1606EOH      C 6427   5.417   5.242   4.529
 1606EOH      C 6428   5.397   5.156   4.403
 1606EOH      H 6429   5.562   5.327   4.623
 1607EOH      O 6430   7.554   2.411   1.130
 1607EOH      C 6431   7.537   2.483   1.252
 1607EOH      C 6432   7.426   2.415   1.335
 1607EOH      H 6433   7.608   2.336   1.147
 1608EOH      O 6434   2.472   7.550   3.414
 1608EOH      C 6435   2.516   7.514   3.545
 1608EOH      C 6436   2.420   7.573   3.650
 1608EOH      H 6437   2.397   7.497   3.391
 1609EOH      O 6438   3.987   6.881   2.193
 1609EOH      C 6439   4.004   7.022   2.183
 1609EOH      C 6440   4.110   7.051   2.075
 1609EOH      H 6441   4.066   6.843   2.229
 1610EOH      O 6442   6.765   6.772   6.114
 1610EOH      C 6443   6.693   6.696   6.017
 1610EOH      C 6444   6.786   6.658   5.900
 1610EOH      H 6445   6.834   6.716   6.148
 1611EOH      O 6446   6.624   4.172   2.568
 1611EOH      C 6447   6.520   4.083   2.524
 1611EOH      C 6448   6.398   4.094   2.617
 1611EOH      H 6449   6.705   4.137   2.536
 1612EOH      O 6450   0.722   0.678   3.877
 1612EOH      C 6451   0.581   0.697   3.888
 1612EOH      C 6452   0.532   0.784   3.771
 1612EOH      H 6453   0.739   0.623   3.803
 1613EOH      O 6454   6.233   3.665   7.617
 1613EOH      C 6455   6.202   3.539   7.677
 1613EOH      C 6456   6.081   3.554   7.771
 1613EOH      H 6457   6.327   3.672   7.610
 1614EOH      O 6458   7.488   1.550   5.461
 1614EOH      C 6459   7.482   1.676   5.528
 1614EOH      C 6460   7.603   1.689   5.623
 1614EOH      H 6461   7.555   1.554   5.394
 1615EOH      O 6462   5.316   5.474   5.288
 1615EOH      C 6463   5.182   5.426   5.290
 1615EOH      C 6464   5.104   5.483   5.170
 1615EOH      H 6465   5.366   5.419   5.229
 1616EOH      O 6466   0.730   5.629   7.005
 1616EOH      C 6467   0.599   5.635   6.950
 1616EOH      C 6468   0.497   5.587   7.056
 1616EOH      H 6469   0.738   5.694   7.072
 1617EOH      O 6470   6.714   5.429   0.013
 1617EOH      C 6471   6.774   5.304   0.047
 1617EOH      C 6472   6.752   5.273   0.196
 1617EOH      H 6473   6.621   5.421   0.027
 1618EOH      O 6474   4.922   0.893   5.835
 1618EOH      C 6475   4.994   0.770   5.821
 1618EOH      C 6476   4.979   0.685   5.947
 1618EOH      H 6477   4.830   0.876   5.818
 1619EOH      O 6478   1.284   4.848   0.111
 1619EOH      C 6479   1.226   4.936   0.208
 1619EOH      C 6480   1.113   5.017   0.142
 1619EOH      H 6481   1.373   4.829   0.137
 1620EOH      O 6482   6.507   0.367   1.015
 1620EOH      C 6483   6.539   0.406   1.149
 1620EOH      C 6484   6.632   0.528   1.145
 1620EOH      H 6485   6.468   0.442   0.972
 1621EOH      O 6486   3.091   2.233   2.386
 1621EOH      C 6487   3.024   2.220   2.260
 1621EOH      C 6488   2.882   2.280   2.268
 1621EOH      H 6489   3.133   2.318   2.388
 1622EOH      O 6490   3.667   3.424   3.329
 1622EOH      C 6491   3.544   3.363   3.371
 1622EOH      C 6492   3.461   3.465   3.450
 1622EOH      H 6493   3.648   3.477   3.253
 1623EOH      O 6494   5.754   5.319   4.727
 1623EOH      C 6495   5.875   5.353   4.796
 1623EOH      C 6496   5.957   5.226   4.822
 1623EOH      H 6497   5.777   5.295   4.638
 1624EOH      O 6498   2.249   6.266   4.066
 1624EOH      C 6499   2.160   6.376   4.040
 1624EOH      C 6500   2.038   6.366   4.133
 1624EOH      H 6501   2.327   6.279   4.014
 1625EOH      O 6502   0.501   0.441   2.490
 1625EOH      C 6503   0.404   0.489   2.584
 1625EOH      C 6504   0.280   0.539   2.508
 1625EOH      H 6505   0.465   0.365   2.447
 1626EOH      O 6506   7.028   0.316   3.544
 1626EOH      C 6507   6.911   0.324   3.462
 1626EOH      C 6508   6.901   0.463   3.398
 1626EOH      H 6509   7.099   0.281   3.492
 1627EOH      O 6510   4.580   4.845   6.426
 1627EOH      C 6511   4.632   4.725   6.368
 1627EOH      C 6512   4.782   4.712   6.399
 1627EOH      H 6513   4.590   4.839   6.520
 1628EOH      O 6514   7.608   1.120   0.278
 1628EOH      C 6515   7.471   1.110   0.237
 1628EOH      C 6516   7.386   1.062   0.356
 1628EOH      H 6517   7.617   1.196   0.333
 1629EOH      O 6518   0.114   1.539   2.500
 1629EOH      C 6519   0.102   1.397   2.485
 1629EOH      C 6520  -0.010   1.343   2.575
 1629EOH      H 6521   0.047   1.580   2.447
 1630EOH      O 6522   6.981   5.027   2.547
 1630EOH      C 6523   6.880   5.010   2.646
 1630EOH      C 6524   6.874   4.862   2.688
 1630EOH      H 6525   7.066   5.013   2.587
 1631EOH      O 6526   0.689   2.085   4.294
 1631EOH      C 6527   0.635   2.175   4.391
 1631EOH      C 6528   0.664   2.121   4.532
 1631EOH      H 6529   0.666   2.117   4.208
 1632EOH      O 6530   6.899   3.085   2.616
 1632EOH      C 6531   6.883   3.119   2.478
 1632EOH      C 6532   6.758   3.047   2.422
 1632EOH      H 6533   6.974   3.132   2.649
 1633EOH      O 6534   5.665   0.739   2.426
 1633EOH      C 6535   5.735   0.786   2.311
 1633EOH      C 6536   5.858   0.698   2.285
 1633EOH      H 6537   5.629   0.654   2.405
 1634EOH      O 6538   3.163   6.080   1.781
 1634EOH      C 6539   3.237   5.987   1.701
 1634EOH      C 6540   3.357   6.061   1.638
 1634EOH      H 6541   3.219   6.108   1.851
 1635EOH      O 6542   1.988   1.071   4.211
 1635EOH      C 6543   1.924   0.975   4.295
 1635EOH      C 6544   1.998   0.840   4.288
 1635EOH      H 6545   1.936   1.150   4.213
 1636EOH      O 6546   6.382   7.888   0.606
 1636EOH      C 6547   6.520   7.865   0.636
 1636EOH      C 6548   6.609   7.950   0.544
 1636EOH      H 6549   6.362   7.979   0.623
 1637EOH      O 6550   2.429   1.825   7.413
 1637EOH      C 6551   2.331   1.782   7.318
 1637EOH      C 6552   2.195   1.847   7.353
 1637EOH      H 6553   2.441   1.918   7.403
 1638EOH      O 6554   7.506   4.487   0.493
 1638EOH      C 6555   7.492   4.350   0.532
 1638EOH      C 6556   7.504   4.262   0.406
 1638EOH      H 6557   7.593   4.500   0.461
 1639EOH      O 6558   3.477   7.196   2.305
 1639EOH      C 6559   3.361   7.147   2.372
 1639EOH      C 6560   3.294   7.038   2.286
 1639EOH      H 6561   3.551   7.147   2.337
 1640EOH      O 6562   0.971   1.306   1.935
 1640EOH      C 6563   0.973   1.304   2.078
 1640EOH      C 6564   0.955   1.448   2.130
 1640EOH      H 6565   0.885   1.333   1.908
 1641EOH      O 6566   7.086   7.499   1.120
 1641EOH      C 6567   7.162   7.579   1.029
 1641EOH      C 6568   7.292   7.506   0.992
 1641EOH      H 6569   6.998   7.532   1.121
 1642EOH      O 6570   3.442   4.489   5.989
 1642EOH      C 6571   3.394   4.550   5.868
 1642EOH      C 6572   3.476   4.498   5.748
 1642EOH      H 6573   3.381   4.513   6.057
 1643EOH      O 6574   4.093   6.404   0.760
 1643EOH      C 6575   4.071   6.421   0.620
 1643EOH      C 6576   4.196   6.372   0.543
 1643EOH      H 6577   4.072   6.314   0.783
 1644EOH      O 6578   5.550   3.916   1.262
 1644EOH      C 6579   5.680   3.866   1.295
 1644EOH      C 6580   5.666   3.729   1.364
 1644EOH      H 6581   5.490   3.843   1.264
 1645EOH      O 6582   1.906   1.199   2.566
 1645EOH      C 6583   1.895   1.336   2.606
 1645EOH      C 6584   1.792   1.407   2.515
 1645EOH      H 6585   1.824   1.157   2.584
 1646EOH      O 6586   0.017   1.126   1.539
 1646EOH      C 6587   0.035   1.090   1.676
 1646EOH      C 6588   0.068   0.940   1.686
 1646EOH      H 6589   0.102   1.146   1.502
 1647EOH      O 6590   3.427   1.262   3.580
 1647EOH      C 6591   3.395   1.208   3.709
 1647EOH      C 6592   3.307   1.083   3.692
 1647EOH      H 6593   3.462   1.349   3.593
 1648EOH      O 6594   5.948   2.234   4.224
 1648EOH      C 6595   5.919   2.333   4.323
 1648EOH      C 6596   6.043   2.422   4.344
 1648EOH      H 6597   5.983   2.280   4.149
 1649EOH      O 6598   7.194   6.477   3.159
 1649EOH      C 6599   7.118   6.500   3.278
 1649EOH      C 6600   7.005   6.600   3.247
 1649EOH      H 6601   7.135   6.444   3.093
 1650EOH      O 6602   1.653   6.938   3.761
 1650EOH      C 6603   1.577   6.910   3.879
 1650EOH      C 6604   1.598   6.764   3.922
 1650EOH      H 6605   1.741   6.959   3.787
 1651EOH      O 6606   4.777   2.474   6.536
 1651EOH      C 6607   4.820   2.418   6.412
 1651EOH      C 6608   4.847   2.532   6.312
 1651EOH      H 6609   4.847   2.528   6.567
 1652EOH      O 6610   1.753   4.427   7.329
 1652EOH      C 6611   1.870   4.363   7.380
 1652EOH      C 6612   1.909   4.246   7.287
 1652EOH      H 6613   1.775   4.478   7.253
 1653EOH      O 6614   3.370   4.782   4.706
 1653EOH      C 6615   3.468   4.863   4.641
 1653EOH      C 6616   3.600   4.785   4.624
 1653EOH      H 6617   3.367   4.700   4.659
 1654EOH      O 6618   0.577   1.596   2.009
 1654EOH      C 6619   0.625   1.503   1.913
 1654EOH      C 6620   0.610   1.361   1.972
 1654EOH      H 6621   0.590   1.685   1.978
 1655EOH      O 6622   5.253   7.178   5.012
 1655EOH      C 6623   5.347   7.138   4.912
 1655EOH      C 6624   5.458   7.052   4.975
 1655EOH      H 6625   5.197   7.104   5.031
 1656EOH      O 6626   0.701   7.309   4.068
 1656EOH      C 6627   0.574   7.369   4.041
 1656EOH      C 6628   0.585   7.522   4.055
 1656EOH      H 6629   0.756   7.326   3.993
 1657EOH      O 6630   5.043   7.135   3.149
 1657EOH      C 6631   4.904   7.103   3.136
 1657EOH      C 6632   4.882   7.025   3.005
 1657EOH      H 6633   5.093   7.056   3.134
 1658EOH      O 6634   4.636   0.107   6.976
 1658EOH      C 6635   4.599   0.215   6.890
 1658EOH      C 6636   4.721   0.260   6.809
 1658EOH      H 6637   4.640   0.028   6.924
 1659EOH      O 6638   6.535   1.331   4.906
 1659EOH      C 6639   6.596   1.405   4.799
 1659EOH      C 6640   6.744   1.432   4.835
 1659EOH      H 6641   6.598   1.267   4.933
 1660EOH      O 6642   4.188   7.359   2.129
 1660EOH      C 6643   4.330   7.347   2.124
 1660EOH      C 6644   4.391   7.486   2.098
 1660EOH      H 6645   4.153   7.274   2.152
 1661EOH      O 6646   5.454   5.113   6.566
 1661EOH      C 6647   5.438   5.203   6.676
 1661EOH      C 6648   5.412   5.124   6.805
 1661EOH      H 6649   5.520   5.050   6.591
 1662EOH      O 6650   3.541   6.788   6.069
 1662EOH      C 6651   3.550   6.930   6.055
 1662EOH      C 6652   3.546   6.995   6.194
 1662EOH      H 6653   3.617   6.758   6.117
 1663EOH      O 6654   4.475   1.244   3.425
 1663EOH      C 6655   4.438   1.379   3.456
 1663EOH      C 6656   4.351   1.437   3.343
 1663EOH      H 6657   4.404   1.187   3.449
 1664EOH      O 6658   4.983   1.272   4.774
 1664EOH      C 6659   4.931   1.353   4.879
 1664EOH      C 6660   4.843   1.465   4.819
 1664EOH      H 6661   4.912   1.249   4.716
 1665EOH      O 6662   1.183   7.283   7.448
 1665EOH      C 6663   1.077   7.232   7.367
 1665EOH      C 6664   0.954   7.204   7.455
 1665EOH      H 6665   1.185   7.377   7.440
 1666EOH      O 6666   0.437   3.735   3.422
 1666EOH      C 6667   0.452   3.620   3.337
 1666EOH      C 6668   0.568   3.533   3.389
 1666EOH      H 6669   0.386   3.709   3.497
 1667EOH      O 6670   3.146   5.457   1.636
 1667EOH      C 6671   3.123   5.567   1.547
 1667EOH      C 6672   3.047   5.516   1.422
 1667EOH      H 6673   3.063   5.429   1.672
 1668EOH      O 6674   2.800   6.190   2.880
 1668EOH      C 6675   2.720   6.141   2.987
 1668EOH      C 6676   2.582   6.209   2.983
 1668EOH      H 6677   2.764   6.157   2.798
 1669EOH      O 6678   5.328   3.068   5.633
 1669EOH      C 6679   5.354   3.088   5.493
 1669EOH      C 6680   5.502   3.125   5.473
 1669EOH      H 6681   5.371   2.989   5.659
 1670EOH      O 6682   7.053   4.819   4.849
 1670EOH      C 6683   6.972   4.748   4.755
 1670EOH      C 6684   6.824   4.765   4.792
 1670EOH      H 6685   7.051   4.911   4.827
 1671EOH      O 6686   4.644   4.937   1.958
 1671EOH      C 6687   4.562   4.821   1.969
 1671EOH      C 6688   4.506   4.784   1.830
 1671EOH      H 6689   4.721   4.916   1.908
 1672EOH      O 6690   0.707   2.225   7.125
 1672EOH      C 6691   0.638   2.341   7.076
 1672EOH      C 6692   0.676   2.463   7.162
 1672EOH      H 6693   0.799   2.237   7.110
 1673EOH      O 6694   4.504   4.870   5.201
 1673EOH      C 6695   4.526   5.011   5.192
 1673EOH      C 6696   4.507   5.076   5.331
 1673EOH      H 6697   4.587   4.828   5.218
 1674EOH      O 6698   3.349   5.431   5.191
 1674EOH      C 6699   3.247   5.432   5.291
 1674EOH      C 6700   3.117   5.375   5.232
 1674EOH      H 6701   3.372   5.341   5.174
 1675EOH      O 6702   7.749   4.460   2.617
 1675EOH      C 6703   7.608   4.449   2.592
 1675EOH      C 6704   7.529   4.497   2.715
 1675EOH      H 6705   7.793   4.435   2.537
 1676EOH      O 6706   1.555   3.036   7.354
 1676EOH      C 6707   1.467   3.037   7.467
 1676EOH      C 6708   1.469   3.176   7.532
 1676EOH      H 6709   1.521   3.094   7.288
 1677EOH      O 6710   3.620   2.445   4.962
 1677EOH      C 6711   3.592   2.336   4.873
 1677EOH      C 6712   3.642   2.205   4.937
 1677EOH      H 6713   3.580   2.426   5.045
 1678EOH      O 6714   5.264   4.969   2.384
 1678EOH      C 6715   5.312   4.977   2.250
 1678EOH      C 6716   5.466   4.963   2.249
 1678EOH      H 6717   5.170   4.973   2.384
 1679EOH      O 6718   4.116   3.479   0.935
 1679EOH      C 6719   4.128   3.578   1.038
 1679EOH      C 6720   4.072   3.524   1.171
 1679EOH      H 6721   4.201   3.440   0.923
 1680EOH      O 6722   6.922   6.626   7.556
 1680EOH      C 6723   6.851   6.701   7.655
 1680EOH      C 6724   6.915   6.673   7.793
 1680EOH      H 6725   6.997   6.677   7.530
 1681EOH      O 6726   0.550   6.834   7.613
 1681EOH      C 6727   0.519   6.749   7.501
 1681EOH      C 6728   0.470   6.613   7.553
 1681EOH      H 6729   0.472   6.844   7.664
 1682EOH      O 6730   7.364   2.939   2.977
 1682EOH      C 6731   7.246   3.014   2.948
 1682EOH      C 6732   7.222   3.121   3.056
 1682EOH      H 6733   7.436   3.000   2.980
 1683EOH      O 6734   5.784   7.611   6.648
 1683EOH      C 6735   5.785   7.750   6.683
 1683EOH      C 6736   5.748   7.833   6.559
 1683EOH      H 6737   5.694   7.581   6.652
 1684EOH      O 6738   4.124   1.220   6.646
 1684EOH      C 6739   4.081   1.335   6.720
 1684EOH      C 6740   4.048   1.448   6.621
 1684EOH      H 6741   4.183   1.249   6.579
 1685EOH      O 6742   5.121   7.810   2.893
 1685EOH      C 6743   5.150   7.934   2.958
 1685EOH      C 6744   5.182   8.040   2.852
 1685EOH      H 6745   5.028   7.794   2.898
 1686EOH      O 6746   6.281   1.867   2.462
 1686EOH      C 6747   6.268   1.760   2.368
 1686EOH      C 6748   6.177   1.650   2.427
 1686EOH      H 6749   6.195   1.897   2.485
 1687EOH      O 6750   1.042   1.362   1.656
 1687EOH      C 6751   0.950   1.320   1.555
 1687EOH      C 6752   0.809   1.303   1.617
 1687EOH      H 6753   1.041   1.300   1.728
 1688EOH      O 6754   2.563   4.949   6.865
 1688EOH      C 6755   2.550   4.971   6.724
 1688EOH      C 6756   2.516   4.838   6.654
 1688EOH      H 6757   2.480   4.920   6.899
 1689EOH      O 6758   6.816   3.379   6.003
 1689EOH      C 6759   6.729   3.487   5.970
 1689EOH      C 6760   6.609   3.434   5.889
 1689EOH      H 6761   6.779   3.334   6.077
 1690EOH      O 6762   4.915   6.744   5.145
 1690EOH      C 6763   4.778   6.705   5.157
 1690EOH      C 6764   4.769   6.552   5.158
 1690EOH      H 6765   4.965   6.664   5.137
 1691EOH      O 6766   7.461   1.334   6.561
 1691EOH      C 6767   7.577   1.287   6.631
 1691EOH      C 6768   7.536   1.241   6.772
 1691EOH      H 6769   7.392   1.270   6.570
 1692EOH      O 6770   6.355   5.800   5.086
 1692EOH      C 6771   6.292   5.882   4.988
 1692EOH      C 6772   6.225   6.003   5.056
 1692EOH      H 6773   6.399   5.730   5.041
 1693EOH      O 6774   4.127   0.715   5.697
 1693EOH      C 6775   4.000   0.776   5.721
 1693EOH      C 6776   3.896   0.717   5.625
 1693EOH      H 6777   4.122   0.624   5.724
 1694EOH      O 6778   5.354   6.241   3.532
 1694EOH      C 6779   5.268   6.289   3.636
 1694EOH      C 6780   5.300   6.437   3.664
 1694EOH      H 6781   5.329   6.286   3.452
 1695EOH      O 6782   0.765   7.510   1.477
 1695EOH      C 6783   0.864   7.585   1.405
 1695EOH      C 6784   0.850   7.557   1.255
 1695EOH      H 6785   0.689   7.565   1.486
 1696EOH      O 6786   7.342   7.598   6.109
 1696EOH      C 6787   7.307   7.478   6.039
 1696EOH      C 6788   7.233   7.515   5.909
 1696EOH      H 6789   7.433   7.616   6.092
 1697EOH      O 6790   6.442   7.418   6.678
 1697EOH      C 6791   6.338   7.325   6.642
 1697EOH      C 6792   6.217   7.340   6.736
 1697EOH      H 6793   6.415   7.504   6.649
 1698EOH      O 6794   4.008   6.237   1.265
 1698EOH      C 6795   4.146   6.255   1.233
 1698EOH      C 6796   4.214   6.117   1.225
 1698EOH      H 6797   3.961   6.214   1.186
 1699EOH      O 6798   1.380   2.968   2.980
 1699EOH      C 6799   1.291   3.013   2.877
 1699EOH      C 6800   1.240   2.893   2.795
 1699EOH      H 6801   1.328   2.930   3.049
 1700EOH      O 6802   4.239   7.328   3.096
 1700EOH      C 6803   4.167   7.374   2.981
 1700EOH      C 6804   4.218   7.299   2.856
 1700EOH      H 6805   4.212   7.240   3.115
 1701EOH      O 6806   0.537   3.124   7.006
 1701EOH      C 6807   0.402   3.151   7.044
 1701EOH      C 6808   0.341   3.251   6.943
 1701EOH      H 6809   0.575   3.060   7.065
 1702EOH      O 6810   2.164   0.221   7.091
 1702EOH      C 6811   2.229   0.281   7.203
 1702EOH      C 6812   2.163   0.233   7.334
 1702EOH      H 6813   2.225   0.222   7.019
 1703EOH      O 6814   1.237   4.575   3.907
 1703EOH      C 6815   1.357   4.498   3.895
 1703EOH      C 6816   1.415   4.472   4.035
 1703EOH      H 6817   1.175   4.526   3.959
 1704EOH      O 6818   3.710   4.794   1.687
 1704EOH      C 6819   3.846   4.820   1.723
 1704EOH      C 6820   3.941   4.765   1.614
 1704EOH      H 6821   3.700   4.816   1.596
 1705EOH      O 6822   1.742   0.868   1.636
 1705EOH      C 6823   1.752   0.865   1.779
 1705EOH      C 6824   1.846   0.978   1.825
 1705EOH      H 6825   1.701   0.950   1.612
 1706EOH      O 6826   6.744   3.432   0.573
 1706EOH      C 6827   6.719   3.301   0.624
 1706EOH      C 6828   6.677   3.208   0.508
 1706EOH      H 6829   6.822   3.430   0.519
 1707EOH      O 6830   6.885   4.055   7.616
 1707EOH      C 6831   7.010   3.988   7.601
 1707EOH      C 6832   7.007   3.856   7.679
 1707EOH      H 6833   6.872   4.109   7.539
 1708EOH      O 6834   7.012   1.380   1.359
 1708EOH      C 6835   7.066   1.488   1.283
 1708EOH      C 6836   7.220   1.475   1.276
 1708EOH      H 6837   7.031   1.300   1.312
 1709EOH      O 6838   6.401   2.339   4.468
 1709EOH      C 6839   6.339   2.261   4.571
 1709EOH      C 6840   6.263   2.143   4.508
 1709EOH      H 6841   6.478   2.292   4.438
 1710EOH      O 6842   0.125   3.194   4.176
 1710EOH      C 6843   0.259   3.167   4.134
 1710EOH      C 6844   0.346   3.139   4.258
 1710EOH      H 6845   0.086   3.112   4.202
 1711EOH      O 6846   7.781   7.542   6.308
 1711EOH      C 6847   7.845   7.593   6.425
 1711EOH      C 6848   7.778   7.535   6.551
 1711EOH      H 6849   7.829   7.573   6.232
 1712EOH      O 6850   7.741   2.261   4.721
 1712EOH      C 6851   7.883   2.282   4.724
 1712EOH      C 6852   7.937   2.246   4.863
 1712EOH      H 6853   7.726   2.168   4.730
 1713EOH      O 6854   1.597   4.212   2.319
 1713EOH      C 6855   1.581   4.114   2.423
 1713EOH      C 6856   1.564   3.975   2.359
 1713EOH      H 6857   1.671   4.187   2.266
 1714EOH      O 6858   0.133   5.115   2.879
 1714EOH      C 6859   0.007   5.081   2.821
 1714EOH      C 6860  -0.101   5.178   2.871
 1714EOH      H 6861   0.161   5.197   2.840
 1715EOH      O 6862   5.120   6.198   4.244
 1715EOH      C 6863   5.068   6.084   4.176
 1715EOH      C 6864   5.156   6.053   4.054
 1715EOH      H 6865   5.210   6.179   4.265
 1716EOH      O 6866   5.514   7.326   2.393
 1716EOH      C 6867   5.413   7.308   2.294
 1716EOH      C 6868   5.318   7.429   2.303
 1716EOH      H 6869   5.564   7.402   2.368
 1717EOH      O 6870   6.033   2.691   5.090
 1717EOH      C 6871   6.003   2.787   5.191
 1717EOH      C 6872   5.906   2.893   5.133
 1717EOH      H 6873   5.951   2.654   5.060
 1718EOH      O 6874   5.588   2.924   6.720
 1718EOH      C 6875   5.556   3.043   6.647
 1718EOH      C 6876   5.430   3.109   6.707
 1718EOH      H 6877   5.636   2.866   6.662
 1719EOH      O 6878   0.447   4.028   5.937
 1719EOH      C 6879   0.367   4.111   6.022
 1719EOH      C 6880   0.363   4.052   6.164
 1719EOH      H 6881   0.538   4.047   5.953
 1720EOH      O 6882   6.881   1.131   5.792
 1720EOH      C 6883   6.987   1.202   5.857
 1720EOH      C 6884   7.124   1.152   5.809
 1720EOH      H 6885   6.879   1.158   5.702
 1721EOH      O 6886   1.584   1.473   6.719
 1721EOH      C 6887   1.607   1.335   6.747
 1721EOH      C 6888   1.757   1.304   6.735
 1721EOH      H 6889   1.491   1.485   6.709
 1722EOH      O 6890   2.732   6.103   1.840
 1722EOH      C 6891   2.790   6.163   1.957
 1722EOH      C 6892   2.911   6.080   2.004
 1722EOH      H 6893   2.785   6.127   1.765
 1723EOH      O 6894   2.769   2.089   0.081
 1723EOH      C 6895   2.876   2.180   0.054
 1723EOH      C 6896   2.860   2.304   0.143
 1723EOH      H 6897   2.777   2.061   0.171
 1724EOH      O 6898   0.790   5.056   3.684
 1724EOH      C 6899   0.881   4.993   3.595
 1724EOH      C 6900   0.899   5.081   3.470
 1724EOH      H 6901   0.719   5.092   3.632
 1725EOH      O 6902   5.052   6.678   4.022
 1725EOH      C 6903   4.977   6.561   4.055
 1725EOH      C 6904   5.041   6.437   3.990
 1725EOH      H 6905   5.130   6.678   4.076
 1726EOH      O 6906   5.921   0.902   4.423
 1726EOH      C 6907   5.811   0.954   4.347
 1726EOH      C 6908   5.864   1.017   4.217
 1726EOH      H 6909   5.885   0.856   4.497
 1727EOH      O 6910   3.782   0.742   6.095
 1727EOH      C 6911   3.904   0.710   6.163
 1727EOH      C 6912   4.015   0.806   6.118
 1727EOH      H 6913   3.757   0.829   6.123
 1728EOH      O 6914   7.895   6.507   5.702
 1728EOH      C 6915   7.998   6.409   5.691
 1728EOH      C 6916   8.135   6.476   5.717
 1728EOH      H 6917   7.823   6.479   5.647
 1729EOH      O 6918   3.953   0.997   2.293
 1729EOH      C 6919   3.881   0.898   2.367
 1729EOH      C 6920   3.895   0.762   2.298
 1729EOH      H 6921   4.043   0.969   2.289
 1730EOH      O 6922   1.933   0.181   1.535
 1730EOH      C 6923   1.823   0.261   1.490
 1730EOH      C 6924   1.792   0.226   1.344
 1730EOH      H 6925   1.924   0.097   1.492
 1731EOH      O 6926   3.258   0.553   5.660
 1731EOH      C 6927   3.150   0.645   5.674
 1731EOH      C 6928   3.134   0.684   5.822
 1731EOH      H 6929   3.267   0.530   5.569
 1732EOH      O 6930   1.802   2.147   6.406
 1732EOH      C 6931   1.827   2.265   6.484
 1732EOH      C 6932   1.835   2.387   6.391
 1732EOH      H 6933   1.709   2.142   6.389
 1733EOH      O 6934   6.722   6.324   7.569
 1733EOH      C 6935   6.599   6.394   7.586
 1733EOH      C 6936   6.562   6.400   7.736
 1733EOH      H 6937   6.793   6.384   7.584
 1734EOH      O 6938   0.492   6.137   3.762
 1734EOH      C 6939   0.480   6.085   3.629
 1734EOH      C 6940   0.501   6.198   3.527
 1734EOH      H 6941   0.583   6.159   3.777
 1735EOH      O 6942   5.600   5.462   7.174
 1735EOH      C 6943   5.513   5.368   7.111
 1735EOH      C 6944   5.391   5.342   7.201
 1735EOH      H 6945   5.559   5.547   7.174
 1736EOH      O 6946   5.582   2.850   5.266
 1736EOH      C 6947   5.544   2.726   5.207
 1736EOH      C 6948   5.639   2.615   5.255
 1736EOH      H 6949   5.523   2.916   5.234
 1737EOH      O 6950   0.425   4.087   1.335
 1737EOH      C 6951   0.557   4.142   1.324
 1737EOH      C 6952   0.644   4.051   1.236
 1737EOH      H 6953   0.379   4.101   1.254
 1738EOH      O 6954   3.496   5.593   3.350
 1738EOH      C 6955   3.617   5.569   3.278
 1738EOH      C 6956   3.680   5.437   3.325
 1738EOH      H 6957   3.427   5.544   3.309
 1739EOH      O 6958   3.187   6.802   7.604
 1739EOH      C 6959   3.325   6.765   7.615
 1739EOH      C 6960   3.409   6.858   7.524
 1739EOH      H 6961   3.176   6.886   7.647
 1740EOH      O 6962   5.623   1.064   1.812
 1740EOH      C 6963   5.579   1.055   1.676
 1740EOH      C 6964   5.540   0.908   1.648
 1740EOH      H 6965   5.591   1.146   1.847
 1741EOH      O 6966   7.696   6.951   4.086
 1741EOH      C 6967   7.557   6.922   4.100
 1741EOH      C 6968   7.521   6.795   4.021
 1741EOH      H 6969   7.742   6.913   4.159
 1742EOH      O 6970   4.293   1.069   3.446
 1742EOH      C 6971   4.288   0.939   3.506
 1742EOH      C 6972   4.162   0.865   3.459
 1742EOH      H 6973   4.290   1.055   3.352
 1743EOH      O 6974   6.967   7.095   5.449
 1743EOH      C 6975   6.977   7.053   5.585
 1743EOH      C 6976   7.118   7.084   5.638
 1743EOH      H 6977   6.993   7.186   5.444
 1744EOH      O 6978   5.739   5.910   1.813
 1744EOH      C 6979   5.864   5.962   1.858
 1744EOH      C 6980   5.926   6.045   1.744
 1744EOH      H 6981   5.680   5.984   1.801
 1745EOH      O 6982   5.780   4.695   6.165
 1745EOH      C 6983   5.718   4.801   6.238
 1745EOH      C 6984   5.778   4.807   6.380
 1745EOH      H 6985   5.868   4.721   6.144
 1746EOH      O 6986   4.820   7.730   0.455
 1746EOH      C 6987   4.876   7.846   0.517
 1746EOH      C 6988   4.982   7.908   0.425
 1746EOH      H 6989   4.738   7.711   0.497
 1747EOH      O 6990   0.684   3.210   7.320
 1747EOH      C 6991   0.631   3.338   7.283
 1747EOH      C 6992   0.567   3.408   7.404
 1747EOH      H 6993   0.764   3.227   7.367
 1748EOH      O 6994   5.178   2.254   7.438
 1748EOH      C 6995   5.309   2.227   7.390
 1748EOH      C 6996   5.411   2.315   7.464
 1748EOH      H 6997   5.171   2.222   7.527
 1749EOH      O 6998   5.980   2.455   3.579
 1749EOH      C 6999   5.925   2.325   3.602
 1749EOH      C 7000   5.777   2.322   3.560
 1749EOH      H 7001   6.000   2.464   3.487
 1750EOH      O 7002   6.475   2.355   6.716
 1750EOH      C 7003   6.362   2.268   6.704
 1750EOH      C 7004   6.405   2.125   6.741
 1750EOH      H 7005   6.503   2.356   6.806
 1751EOH      O 7006   6.082   4.355   7.777
 1751EOH      C 7007   6.060   4.325   7.639
 1751EOH      C 7008   5.965   4.204   7.628
 1751EOH      H 7009   6.157   4.412   7.783
 1752EOH      O 7010   2.767   1.613   6.110
 1752EOH      C 7011   2.782   1.578   5.972
 1752EOH      C 7012   2.862   1.448   5.960
 1752EOH      H 7013   2.675   1.629   6.126
 1753EOH      O 7014   7.900   3.465   4.423
 1753EOH      C 7015   7.948   3.440   4.555
 1753EOH      C 7016   7.970   3.288   4.573
 1753EOH      H 7017   7.967   3.439   4.362
 1754EOH      O 7018   3.857   4.216   1.622
 1754EOH      C 7019   3.781   4.241   1.504
 1754EOH      C 7020   3.857   4.190   1.380
 1754EOH      H 7021   3.862   4.123   1.634
 1755EOH      O 7022   3.586   5.031   5.083
 1755EOH      C 7023   3.528   4.925   5.006
 1755EOH      C 7024   3.632   4.812   4.991
 1755EOH      H 7025   3.615   4.993   5.164
 1756EOH      O 7026   2.905   2.927   1.923
 1756EOH      C 7027   2.793   3.007   1.964
 1756EOH      C 7028   2.723   3.066   1.840
 1756EOH      H 7029   2.871   2.849   1.881
 1757EOH      O 7030   6.103   0.553   2.646
 1757EOH      C 7031   6.023   0.672   2.649
 1757EOH      C 7032   6.100   0.784   2.720
 1757EOH      H 7033   6.182   0.571   2.597
 1758EOH      O 7034   5.270   2.101   1.404
 1758EOH      C 7035   5.256   2.241   1.431
 1758EOH      C 7036   5.202   2.313   1.307
 1758EOH      H 7037   5.184   2.068   1.380
 1759EOH      O 7038   6.969   3.422   1.810
 1759EOH      C 7039   6.959   3.350   1.687
 1759EOH      C 7040   7.091   3.364   1.607
 1759EOH      H 7041   7.024   3.374   1.870
 1760EOH      O 7042   1.465   5.304   7.309
 1760EOH      C 7043   1.585   5.349   7.373
 1760EOH      C 7044   1.640   5.468   7.292
 1760EOH      H 7045   1.483   5.300   7.217
 1761EOH      O 7046   0.893   7.552   2.313
 1761EOH      C 7047   1.028   7.540   2.267
 1761EOH      C 7048   1.123   7.615   2.363
 1761EOH      H 7049   0.874   7.478   2.368
 1762EOH      O 7050   0.225   0.724   4.782
 1762EOH      C 7051   0.136   0.821   4.726
 1762EOH      C 7052   0.149   0.954   4.803
 1762EOH      H 7053   0.310   0.735   4.741
 1763EOH      O 7054   2.499   5.355   1.863
 1763EOH      C 7055   2.475   5.421   1.738
 1763EOH      C 7056   2.374   5.342   1.655
 1763EOH      H 7057   2.418   5.355   1.911
 1764EOH      O 7058   6.716   7.125   6.002
 1764EOH      C 7059   6.583   7.079   5.977
 1764EOH      C 7060   6.492   7.111   6.097
 1764EOH      H 7061   6.713   7.219   6.013
 1765EOH      O 7062   6.058   1.164   6.472
 1765EOH      C 7063   6.189   1.202   6.428
 1765EOH      C 7064   6.293   1.142   6.524
 1765EOH      H 7065   6.053   1.069   6.472
 1766EOH      O 7066   4.053   0.860   1.163
 1766EOH      C 7067   4.081   0.981   1.235
 1766EOH      C 7068   3.998   1.096   1.176
 1766EOH      H 7069   3.962   0.838   1.176
 1767EOH      O 7070   3.739   4.561   2.901
 1767EOH      C 7071   3.639   4.657   2.936
 1767EOH      C 7072   3.638   4.771   2.831
 1767EOH      H 7073   3.705   4.510   2.828
 1768EOH      O 7074   6.683   1.444   0.941
 1768EOH      C 7075   6.587   1.532   0.883
 1768EOH      C 7076   6.547   1.481   0.744
 1768EOH      H 7077   6.639   1.362   0.958
 1769EOH      O 7078   2.648   1.916   3.092
 1769EOH      C 7079   2.774   1.850   3.085
 1769EOH      C 7080   2.771   1.741   2.977
 1769EOH      H 7081   2.623   1.939   3.004
 1770EOH      O 7082   2.105   2.862   4.157
 1770EOH      C 7083   2.117   2.725   4.197
 1770EOH      C 7084   2.125   2.635   4.072
 1770EOH      H 7085   2.174   2.881   4.095
 1771EOH      O 7086   3.598   2.668   3.034
 1771EOH      C 7087   3.708   2.719   2.958
 1771EOH      C 7088   3.816   2.610   2.944
 1771EOH      H 7089   3.518   2.695   2.991
 1772EOH      O 7090   5.825   2.343   5.201
 1772EOH      C 7091   5.795   2.224   5.275
 1772EOH      C 7092   5.757   2.110   5.179
 1772EOH      H 7093   5.918   2.347   5.189
 1773EOH      O 7094   3.086   5.902   5.521
 1773EOH      C 7095   3.082   5.768   5.472
 1773EOH      C 7096   3.038   5.672   5.584
 1773EOH      H 7097   3.000   5.925   5.552
 1774EOH      O 7098   0.123   5.566   3.607
 1774EOH      C 7099   0.227   5.662   3.587
 1774EOH      C 7100   0.234   5.756   3.709
 1774EOH      H 7101   0.139   5.521   3.688
 1775EOH      O 7102   1.203   1.103   6.141
 1775EOH      C 7103   1.188   0.962   6.158
 1775EOH      C 7104   1.146   0.933   6.303
 1775EOH      H 7105   1.119   1.138   6.116
 1776EOH      O 7106   3.423   4.573   2.311
 1776EOH      C 7107   3.290   4.530   2.281
 1776EOH      C 7108   3.189   4.643   2.314
 1776EOH      H 7109   3.440   4.653   2.264
 1777EOH      O 7110   2.958   6.548   4.439
 1777EOH      C 7111   3.033   6.473   4.535
 1777EOH      C 7112   3.179   6.460   4.488
 1777EOH      H 7113   3.004   6.628   4.422
 1778EOH      O 7114   2.903   0.692   6.189
 1778EOH      C 7115   2.925   0.605   6.300
 1778EOH      C 7116   2.925   0.686   6.431
 1778EOH      H 7117   2.893   0.639   6.112
 1779EOH      O 7118   3.060   6.016   4.252
 1779EOH      C 7119   3.090   6.153   4.282
 1779EOH      C 7120   3.135   6.225   4.154
 1779EOH      H 7121   2.976   6.014   4.207
 1780EOH      O 7122   4.507   6.099   6.777
 1780EOH      C 7123   4.452   6.070   6.907
 1780EOH      C 7124   4.344   6.174   6.940
 1780EOH      H 7125   4.470   6.181   6.749
 1781EOH      O 7126   1.056   4.331   4.609
 1781EOH      C 7127   0.956   4.347   4.711
 1781EOH      C 7128   0.821   4.381   4.646
 1781EOH      H 7129   1.032   4.257   4.556
 1782EOH      O 7130   6.376   5.160   6.090
 1782EOH      C 7131   6.404   5.036   6.026
 1782EOH      C 7132   6.544   4.987   6.066
 1782EOH      H 7133   6.283   5.174   6.086
 1783EOH      O 7134   5.499   3.295   1.028
 1783EOH      C 7135   5.406   3.187   1.040
 1783EOH      C 7136   5.413   3.130   1.183
 1783EOH      H 7137   5.477   3.362   1.090
 1784EOH      O 7138   4.989   7.418   5.394
 1784EOH      C 7139   4.859   7.394   5.449
 1784EOH      C 7140   4.782   7.527   5.457
 1784EOH      H 7141   4.986   7.400   5.302
 1785EOH      O 7142   5.357   7.587   5.875
 1785EOH      C 7143   5.437   7.699   5.838
 1785EOH      C 7144   5.522   7.741   5.960
 1785EOH      H 7145   5.415   7.516   5.899
 1786EOH      O 7146   1.455   6.780   5.062
 1786EOH      C 7147   1.580   6.851   5.061
 1786EOH      C 7148   1.588   6.940   4.936
 1786EOH      H 7149   1.385   6.844   5.065
 1787EOH      O 7150   7.426   3.354   0.062
 1787EOH      C 7151   7.285   3.343   0.083
 1787EOH      C 7152   7.223   3.255  -0.027
 1787EOH      H 7153   7.458   3.271   0.029
 1788EOH      O 7154   7.184   7.108   3.456
 1788EOH      C 7155   7.124   7.028   3.559
 1788EOH      C 7156   7.053   6.908   3.494
 1788EOH      H 7157   7.245   7.053   3.408
 1789EOH      O 7158   0.904   4.900   6.862
 1789EOH      C 7159   0.932   4.876   7.000
 1789EOH      C 7160   0.996   5.002   7.062
 1789EOH      H 7161   0.892   4.816   6.819
 1790EOH      O 7162   6.189   3.900   0.048
 1790EOH      C 7163   6.059   3.958   0.035
 1790EOH      C 7164   6.053   4.089   0.115
 1790EOH      H 7165   6.249   3.954  -0.001
 1791EOH      O 7166   7.570   1.707   4.831
 1791EOH      C 7167   7.513   1.820   4.897
 1791EOH      C 7168   7.377   1.782   4.960
 1791EOH      H 7169   7.611   1.652   4.896
 1792EOH      O 7170   4.501   3.682   3.437
 1792EOH      C 7171   4.395   3.630   3.356
 1792EOH      C 7172   4.259   3.664   3.421
 1792EOH      H 7173   4.497   3.777   3.433
 1793EOH      O 7174   0.797   0.285   3.661
 1793EOH      C 7175   0.832   0.379   3.559
 1793EOH      C 7176   0.741   0.503   3.570
 1793EOH      H 7177   0.849   0.306   3.737
 1794EOH      O 7178   5.534   5.335   4.842
 1794EOH      C 7179   5.520   5.249   4.956
 1794EOH      C 7180   5.432   5.128   4.920
 1794EOH      H 7181   5.623   5.326   4.810
 1795EOH      O 7182   1.730   1.869   0.263
 1795EOH      C 7183   1.833   1.845   0.166
 1795EOH      C 7184   1.768   1.833   0.027
 1795EOH      H 7185   1.760   1.938   0.321
 1796EOH      O 7186   3.156   7.606   7.730
 1796EOH      C 7187   3.153   7.598   7.873
 1796EOH      C 7188   3.278   7.665   7.931
 1796EOH      H 7189   3.126   7.692   7.705
 1797EOH      O 7190   5.898   6.379   3.214
 1797EOH      C 7191   5.821   6.498   3.194
 1797EOH      C 7192   5.831   6.587   3.319
 1797EOH      H 7193   5.986   6.405   3.238
 1798EOH      O 7194   6.292   3.081   1.353
 1798EOH      C 7195   6.365   3.073   1.230
 1798EOH      C 7196   6.464   2.956   1.238
 1798EOH      H 7197   6.243   3.002   1.364
 1799EOH      O 7198   0.094   7.110   6.406
 1799EOH      C 7199   0.089   7.161   6.539
 1799EOH      C 7200   0.198   7.269   6.557
 1799EOH      H 7201   0.006   7.110   6.372
 1800EOH      O 7202   2.312   6.960   5.870
 1800EOH      C 7203   2.287   6.940   5.731
 1800EOH      C 7204   2.398   7.006   5.647
 1800EOH      H 7205   2.243   6.916   5.917
 1801EOH      O 7206   4.316   3.057   5.126
 1801EOH      C 7207   4.393   2.939   5.100
 1801EOH      C 7208   4.411   2.863   5.233
 1801EOH      H 7209   4.233   3.030   5.164
 1802EOH      O 7210   2.429   0.065   1.018
 1802EOH      C 7211   2.425   0.176   1.109
 1802EOH      C 7212   2.541   0.165   1.210
 1802EOH      H 7213   2.490   0.085   0.949
 1803EOH      O 7214   6.581   2.319   3.950
 1803EOH      C 7215   6.644   2.277   3.830
 1803EOH      C 7216   6.797   2.285   3.846
 1803EOH      H 7217   6.487   2.316   3.937
 1804EOH      O 7218   2.897   5.034   3.887
 1804EOH      C 7219   2.773   4.962   3.885
 1804EOH      C 7220   2.687   5.013   3.768
 1804EOH      H 7221   2.961   4.989   3.833
 1805EOH      O 7222   6.395   2.782   4.459
 1805EOH      C 7223   6.386   2.684   4.564
 1805EOH      C 7224   6.526   2.629   4.597
 1805EOH      H 7225   6.484   2.815   4.459
 1806EOH      O 7226   3.734   2.013   0.968
 1806EOH      C 7227   3.757   1.872   0.955
 1806EOH      C 7228   3.636   1.795   1.011
 1806EOH      H 7229   3.674   2.040   0.901
 1807EOH      O 7230   4.824   5.523   2.937
 1807EOH      C 7231   4.897   5.593   3.038
 1807EOH      C 7232   5.039   5.535   3.048
 1807EOH      H 7233   4.865   5.541   2.853
 1808EOH      O 7234   5.113   6.307   7.779
 1808EOH      C 7235   5.214   6.212   7.744
 1808EOH      C 7236   5.194   6.174   7.596
 1808EOH      H 7237   5.030   6.272   7.749
 1809EOH      O 7238   2.771   7.497   4.704
 1809EOH      C 7239   2.689   7.569   4.610
 1809EOH      C 7240   2.608   7.469   4.525
 1809EOH      H 7241   2.822   7.560   4.752
 1810EOH      O 7242   2.691   7.340   0.648
 1810EOH      C 7243   2.557   7.353   0.694
 1810EOH      C 7244   2.460   7.334   0.576
 1810EOH      H 7245   2.749   7.338   0.723
 1811EOH      O 7246   6.992   2.791   3.639
 1811EOH      C 7247   6.887   2.797   3.736
 1811EOH      C 7248   6.770   2.708   3.691
 1811EOH      H 7249   7.002   2.700   3.613
 1812EOH      O 7250   3.143   5.204   7.448
 1812EOH      C 7251   3.182   5.073   7.405
 1812EOH      C 7252   3.265   5.004   7.514
 1812EOH      H 7253   3.077   5.234   7.389
 1813EOH      O 7254   3.564   3.434   2.231
 1813EOH      C 7255   3.517   3.567   2.214
 1813EOH      C 7256   3.368   3.564   2.175
 1813EOH      H 7257   3.498   3.385   2.279
 1814EOH      O 7258   5.411   2.410   7.010
 1814EOH      C 7259   5.278   2.425   7.058
 1814EOH      C 7260   5.186   2.324   6.985
 1814EOH      H 7261   5.463   2.482   7.042
 1815EOH      O 7262   5.066   0.962   0.857
 1815EOH      C 7263   5.019   1.089   0.813
 1815EOH      C 7264   5.060   1.198   0.914
 1815EOH      H 7265   5.160   0.964   0.861
 1816EOH      O 7266   7.485   0.926   7.336
 1816EOH      C 7267   7.367   0.852   7.299
 1816EOH      C 7268   7.262   0.949   7.242
 1816EOH      H 7269   7.522   0.962   7.257
 1817EOH      O 7270   3.522   2.693   1.806
 1817EOH      C 7271   3.656   2.709   1.854
 1817EOH      C 7272   3.668   2.843   1.930
 1817EOH      H 7273   3.523   2.622   1.743
 1818EOH      O 7274   7.870   4.789   7.091
 1818EOH      C 7275   7.893   4.898   7.181
 1818EOH      C 7276   7.790   5.009   7.153
 1818EOH      H 7277   7.829   4.719   7.140
 1819EOH      O 7278   0.013   5.770   4.551
 1819EOH      C 7279   0.065   5.657   4.621
 1819EOH      C 7280   0.037   5.529   4.540
 1819EOH      H 7281   0.062   5.780   4.470
 1820EOH      O 7282   6.851   6.102   0.520
 1820EOH      C 7283   6.927   6.182   0.612
 1820EOH      C 7284   7.042   6.252   0.539
 1820EOH      H 7285   6.830   6.156   0.446
 1821EOH      O 7286   3.033   2.674   0.133
 1821EOH      C 7287   3.091   2.802   0.162
 1821EOH      C 7288   2.982   2.897   0.214
 1821EOH      H 7289   3.019   2.628   0.214
 1822EOH      O 7290   5.845   4.076   7.292
 1822EOH      C 7291   5.970   4.137   7.257
 1822EOH      C 7292   5.975   4.165   7.105
 1822EOH      H 7293   5.780   4.144   7.298
 1823EOH      O 7294   0.674   3.842   1.621
 1823EOH      C 7295   0.786   3.810   1.538
 1823EOH      C 7296   0.889   3.924   1.545
 1823EOH      H 7297   0.704   3.847   1.711
 1824EOH      O 7298   2.427   7.886   4.674
 1824EOH      C 7299   2.392   7.889   4.812
 1824EOH      C 7300   2.240   7.873   4.826
 1824EOH      H 7301   2.394   7.805   4.638
 1825EOH      O 7302   3.329   6.416   6.343
 1825EOH      C 7303   3.380   6.539   6.397
 1825EOH      C 7304   3.321   6.657   6.319
 1825EOH      H 7305   3.235   6.419   6.347
 1826EOH      O 7306   0.353   1.331   1.751
 1826EOH      C 7307   0.427   1.316   1.629
 1826EOH      C 7308   0.331   1.282   1.513
 1826EOH      H 7309   0.306   1.412   1.746
 1827EOH      O 7310   0.465   1.827   0.417
 1827EOH      C 7311   0.497   1.796   0.552
 1827EOH      C 7312   0.409   1.680   0.600
 1827EOH      H 7313   0.478   1.749   0.364
 1828EOH      O 7314   7.006   4.112   5.118
 1828EOH      C 7315   7.027   4.082   4.979
 1828EOH      C 7316   7.143   4.168   4.925
 1828EOH      H 7317   7.056   4.050   5.169
 1829EOH      O 7318   0.667   4.215   6.950
 1829EOH      C 7319   0.727   4.335   6.998
 1829EOH      C 7320   0.866   4.352   6.935
 1829EOH      H 7321   0.634   4.229   6.862
 1830EOH      O 7322   0.125   7.474   5.696
 1830EOH      C 7323   0.021   7.389   5.744
 1830EOH      C 7324   0.012   7.261   5.659
 1830EOH      H 7325   0.207   7.427   5.703
 1831EOH      O 7326   1.870   7.039   6.877
 1831EOH      C 7327   1.792   6.920   6.864
 1831EOH      C 7328   1.702   6.931   6.740
 1831EOH      H 7329   1.914   7.037   6.961
 1832EOH      O 7330   7.867   5.305   4.139
 1832EOH      C 7331   7.749   5.235   4.177
 1832EOH      C 7332   7.682   5.174   4.052
 1832EOH      H 7333   7.908   5.340   4.216
 1833EOH      O 7334   3.991   5.807   1.179
 1833EOH      C 7335   4.035   5.774   1.311
 1833EOH      C 7336   4.174   5.708   1.303
 1833EOH      H 7337   4.065   5.842   1.132
 1834EOH      O 7338   7.406   7.878   7.804
 1834EOH      C 7339   7.320   7.931   7.906
 1834EOH      C 7340   7.182   7.962   7.846
 1834EOH      H 7341   7.443   7.796   7.835
 1835EOH      O 7342   1.383   0.751   3.527
 1835EOH      C 7343   1.293   0.646   3.489
 1835EOH      C 7344   1.177   0.705   3.408
 1835EOH      H 7345   1.331   0.816   3.571
 1836EOH      O 7346   7.519   0.734   3.572
 1836EOH      C 7347   7.399   0.785   3.629
 1836EOH      C 7348   7.278   0.704   3.580
 1836EOH      H 7349   7.561   0.675   3.634
 1837EOH      O 7350   3.606   6.609   5.607
 1837EOH      C 7351   3.498   6.693   5.647
 1837EOH      C 7352   3.393   6.693   5.534
 1837EOH      H 7353   3.682   6.629   5.660
 1838EOH      O 7354   5.292   6.667   7.576
 1838EOH      C 7355   5.244   6.563   7.491
 1838EOH      C 7356   5.364   6.481   7.440
 1838EOH      H 7357   5.305   6.629   7.662
 1839EOH      O 7358   6.240   4.093   6.238
 1839EOH      C 7359   6.228   4.199   6.333
 1839EOH      C 7360   6.208   4.333   6.259
 1839EOH      H 7361   6.248   4.012   6.285
 1840EOH      O 7362   1.697   3.696   1.398
 1840EOH      C 7363   1.823   3.652   1.346
 1840EOH      C 7364   1.932   3.753   1.387
 1840EOH      H 7365   1.706   3.707   1.491
 1841EOH      O 7366   4.750   2.199   5.325
 1841EOH      C 7367   4.870   2.136   5.280
 1841EOH      C 7368   4.886   2.156   5.129
 1841EOH      H 7369   4.754   2.291   5.302
 1842EOH      O 7370   6.370   1.407   5.291
 1842EOH      C 7371   6.496   1.344   5.267
 1842EOH      C 7372   6.487   1.198   5.313
 1842EOH      H 7373   6.322   1.412   5.210
 1843EOH      O 7374   1.095   0.631   5.608
 1843EOH      C 7375   0.989   0.542   5.646
 1843EOH      C 7376   0.906   0.608   5.758
 1843EOH      H 7377   1.059   0.694   5.547
 1844EOH      O 7378   5.789   4.026   6.841
 1844EOH      C 7379   5.681   3.983   6.924
 1844EOH      C 7380   5.547   4.019   6.857
 1844EOH      H 7381   5.808   3.958   6.779
 1845EOH      O 7382   2.049   3.599   6.655
 1845EOH      C 7383   2.146   3.500   6.690
 1845EOH      C 7384   2.197   3.431   6.562
 1845EOH      H 7385   2.049   3.665   6.724
 1846EOH      O 7386   7.584   2.815   5.873
 1846EOH      C 7387   7.717   2.763   5.880
 1846EOH      C 7388   7.715   2.623   5.944
 1846EOH      H 7389   7.525   2.749   5.907
 1847EOH      O 7390   2.878   6.636   1.970
 1847EOH      C 7391   2.922   6.513   2.026
 1847EOH      C 7392   3.037   6.456   1.941
 1847EOH      H 7393   2.945   6.701   1.986
 1848EOH      O 7394   2.515   2.788   3.590
 1848EOH      C 7395   2.536   2.658   3.535
 1848EOH      C 7396   2.593   2.672   3.392
 1848EOH      H 7397   2.598   2.832   3.599
 1849EOH      O 7398   6.696   2.549   5.215
 1849EOH      C 7399   6.675   2.687   5.245
 1849EOH      C 7400   6.641   2.702   5.395
 1849EOH      H 7401   6.777   2.521   5.256
 1850EOH      O 7402   7.062   1.761   2.266
 1850EOH      C 7403   7.009   1.890   2.235
 1850EOH      C 7404   7.126   1.989   2.218
 1850EOH      H 7405   7.118   1.736   2.193
 1851EOH      O 7406   3.435   6.279   4.838
 1851EOH      C 7407   3.315   6.231   4.898
 1851EOH      C 7408   3.206   6.341   4.890
 1851EOH      H 7409   3.497   6.207   4.839
 1852EOH      O 7410   4.270   6.849   0.677
 1852EOH      C 7411   4.362   6.751   0.628
 1852EOH      C 7412   4.457   6.708   0.740
 1852EOH      H 7413   4.207   6.805   0.732
 1853EOH      O 7414   1.717   7.383   3.477
 1853EOH      C 7415   1.820   7.332   3.563
 1853EOH      C 7416   1.955   7.334   3.488
 1853EOH      H 7417   1.712   7.477   3.490
 1854EOH      O 7418   2.013   2.427   2.957
 1854EOH      C 7419   1.925   2.537   2.930
 1854EOH      C 7420   1.786   2.483   2.891
 1854EOH      H 7421   1.971   2.372   3.021
 1855EOH      O 7422   2.443   0.861   2.585
 1855EOH      C 7423   2.475   0.745   2.507
 1855EOH      C 7424   2.461   0.621   2.597
 1855EOH      H 7425   2.350   0.876   2.578
 1856EOH      O 7426   0.827   7.355   6.299
 1856EOH      C 7427   0.957   7.390   6.347
 1856EOH      C 7428   0.952   7.529   6.412
 1856EOH      H 7429   0.769   7.349   6.374
 1857EOH      O 7430   4.097   4.173   2.468
 1857EOH      C 7431   4.122   4.304   2.520
 1857EOH      C 7432   3.995   4.356   2.590
 1857EOH      H 7433   4.177   4.141   2.428
 1858EOH      O 7434   0.995   7.618   5.658
 1858EOH      C 7435   0.996   7.748   5.597
 1858EOH      C 7436   1.112   7.830   5.655
 1858EOH      H 7437   1.056   7.565   5.609
 1859EOH      O 7438   7.269   5.683   7.346
 1859EOH      C 7439   7.320   5.791   7.424
 1859EOH      C 7440   7.237   5.803   7.554
 1859EOH      H 7441   7.228   5.621   7.404
 1860EOH      O 7442   6.567   5.120   0.846
 1860EOH      C 7443   6.451   5.156   0.770
 1860EOH      C 7444   6.410   5.301   0.804
 1860EOH      H 7445   6.643   5.153   0.801
 1861EOH      O 7446   6.830   2.720   6.365
 1861EOH      C 7447   6.844   2.859   6.336
 1861EOH      C 7448   6.713   2.932   6.374
 1861EOH      H 7449   6.804   2.711   6.456
 1862EOH      O 7450   2.606   6.886   1.530
 1862EOH      C 7451   2.573   6.835   1.659
 1862EOH      C 7452   2.514   6.694   1.646
 1862EOH      H 7453   2.672   6.830   1.492
 1863EOH      O 7454   5.621   5.609   6.566
 1863EOH      C 7455   5.685   5.647   6.688
 1863EOH      C 7456   5.638   5.788   6.728
 1863EOH      H 7457   5.530   5.594   6.584
 1864EOH      O 7458   0.572   1.038   7.441
 1864EOH      C 7459   0.523   1.039   7.307
 1864EOH      C 7460   0.389   0.964   7.300
 1864EOH      H 7461   0.533   1.112   7.486
 1865EOH      O 7462   7.844   4.060   4.516
 1865EOH      C 7463   7.824   4.078   4.375
 1865EOH      C 7464   7.724   4.193   4.350
 1865EOH      H 7465   7.895   4.133   4.549
 1866EOH      O 7466   2.998   2.421   5.384
 1866EOH      C 7467   3.109   2.485   5.321
 1866EOH      C 7468   3.175   2.586   5.418
 1866EOH      H 7469   3.029   2.351   5.439
 1867EOH      O 7470   4.424   5.893   6.607
 1867EOH      C 7471   4.348   5.979   6.521
 1867EOH      C 7472   4.290   5.900   6.402
 1867EOH      H 7473   4.476   5.948   6.664
 1868EOH      O 7474   5.985   0.466   4.364
 1868EOH      C 7475   5.980   0.325   4.389
 1868EOH      C 7476   6.090   0.287   4.490
 1868EOH      H 7477   5.924   0.486   4.295
 1869EOH      O 7478   0.808   7.687   5.841
 1869EOH      C 7479   0.702   7.591   5.842
 1869EOH      C 7480   0.658   7.563   5.697
 1869EOH      H 7481   0.876   7.654   5.784
 1870EOH      O 7482   4.418   2.514   1.822
 1870EOH      C 7483   4.379   2.424   1.718
 1870EOH      C 7484   4.301   2.306   1.778
 1870EOH      H 7485   4.341   2.554   1.858
 1871EOH      O 7486   4.979   5.959   5.109
 1871EOH      C 7487   4.974   6.087   5.172
 1871EOH      C 7488   4.971   6.068   5.325
 1871EOH      H 7489   5.069   5.927   5.112
 1872EOH      O 7490   6.513   3.511   2.697
 1872EOH      C 7491   6.599   3.422   2.626
 1872EOH      C 7492   6.630   3.300   2.715
 1872EOH      H 7493   6.429   3.469   2.706
 1873EOH      O 7494   6.770   5.870   5.202
 1873EOH      C 7495   6.632   5.907   5.199
 1873EOH      C 7496   6.618   6.044   5.130
 1873EOH      H 7497   6.786   5.824   5.283
 1874EOH      O 7498   6.987   7.869   6.019
 1874EOH      C 7499   7.046   7.820   6.140
 1874EOH      C 7500   6.937   7.808   6.248
 1874EOH      H 7501   6.953   7.795   5.971
 1875EOH      O 7502   3.724   0.114   3.408
 1875EOH      C 7503   3.825   0.124   3.510
 1875EOH      C 7504   3.879   0.268   3.516
 1875EOH      H 7505   3.660   0.181   3.425
 1876EOH      O 7506   1.493   1.484   1.051
 1876EOH      C 7507   1.523   1.613   0.998
 1876EOH      C 7508   1.630   1.600   0.889
 1876EOH      H 7509   1.448   1.434   0.985
 1877EOH      O 7510   5.447   6.913   2.312
 1877EOH      C 7511   5.425   6.947   2.449
 1877EOH      C 7512   5.344   6.834   2.517
 1877EOH      H 7513   5.513   6.846   2.309
 1878EOH      O 7514   0.824   4.363   0.023
 1878EOH      C 7515   0.917   4.255   0.026
 1878EOH      C 7516   1.003   4.257  -0.101
 1878EOH      H 7517   0.862   4.439   0.064
 1879EOH      O 7518   7.339   4.827   1.270
 1879EOH      C 7519   7.385   4.960   1.244
 1879EOH      C 7520   7.480   5.006   1.356
 1879EOH      H 7521   7.413   4.768   1.266
 1880EOH      O 7522   4.139   7.168   4.651
 1880EOH      C 7523   4.169   7.031   4.679
 1880EOH      C 7524   4.162   6.949   4.549
 1880EOH      H 7525   4.211   7.204   4.602
 1881EOH      O 7526   3.912   6.343   4.124
 1881EOH      C 7527   3.843   6.317   4.001
 1881EOH      C 7528   3.715   6.403   3.994
 1881EOH      H 7529   3.967   6.419   4.114
 1882EOH      O 7530   5.554   4.071   0.439
 1882EOH      C 7531   5.613   3.953   0.494
 1882EOH      C 7532   5.732   3.910   0.406
 1882EOH      H 7533   5.623   4.135   0.428
 1883EOH      O 7534   1.980   7.062   5.916
 1883EOH      C 7535   1.875   7.045   6.012
 1883EOH      C 7536   1.896   7.142   6.130
 1883EOH      H 7537   1.981   7.152   5.890
 1884EOH      O 7538   0.020   7.730   0.848
 1884EOH      C 7539   0.088   7.738   0.973
 1884EOH      C 7540   0.101   7.597   1.034
 1884EOH      H 7541   0.072   7.678   0.789
 1885EOH      O 7542   7.023   2.006   5.593
 1885EOH      C 7543   6.973   2.138   5.570
 1885EOH      C 7544   7.079   2.242   5.610
 1885EOH      H 7545   7.084   2.008   5.665
 1886EOH      O 7546   3.255   2.255   3.594
 1886EOH      C 7547   3.309   2.137   3.535
 1886EOH      C 7548   3.258   2.013   3.612
 1886EOH      H 7549   3.161   2.254   3.586
 1887EOH      O 7550   0.375   6.146   4.241
 1887EOH      C 7551   0.491   6.205   4.300
 1887EOH      C 7552   0.599   6.096   4.319
 1887EOH      H 7553   0.396   6.121   4.152
 1888EOH      O 7554   3.261   1.315   2.541
 1888EOH      C 7555   3.325   1.438   2.575
 1888EOH      C 7556   3.243   1.509   2.685
 1888EOH      H 7557   3.320   1.265   2.485
 1889EOH      O 7558   5.467   4.406   0.299
 1889EOH      C 7559   5.376   4.416   0.409
 1889EOH      C 7560   5.261   4.315   0.389
 1889EOH      H 7561   5.491   4.315   0.291
 1890EOH      O 7562   6.027   4.547   4.959
 1890EOH      C 7563   6.114   4.537   5.072
 1890EOH      C 7564   6.244   4.463   5.034
 1890EOH      H 7565   6.064   4.608   4.898
 1891EOH      O 7566   6.555   5.273   4.836
 1891EOH      C 7567   6.680   5.221   4.790
 1891EOH      C 7568   6.759   5.162   4.909
 1891EOH      H 7569   6.505   5.200   4.870
 1892EOH      O 7570   0.667   2.956   7.153
 1892EOH      C 7571   0.763   2.855   7.123
 1892EOH      C 7572   0.800   2.859   6.974
 1892EOH      H 7573   0.696   3.003   7.230
 1893EOH      O 7574   6.643   7.600   4.725
 1893EOH      C 7575   6.756   7.687   4.727
 1893EOH      C 7576   6.869   7.629   4.640
 1893EOH      H 7577   6.601   7.608   4.640
 1894EOH      O 7578   3.353   1.726   6.009
 1894EOH      C 7579   3.299   1.606   6.066
 1894EOH      C 7580   3.156   1.631   6.118
 1894EOH      H 7581   3.447   1.719   6.008
 1895EOH      O 7582   0.752   1.883   0.940
 1895EOH      C 7583   0.799   2.018   0.928
 1895EOH      C 7584   0.680   2.114   0.909
 1895EOH      H 7585   0.825   1.829   0.962
 1896EOH      O 7586   3.295   0.812   6.286
 1896EOH      C 7587   3.390   0.851   6.186
 1896EOH      C 7588   3.375   1.002   6.162
 1896EOH      H 7589   3.323   0.849   6.368
 1897EOH      O 7590   7.586   3.554   6.707
 1897EOH      C 7591   7.696   3.474   6.664
 1897EOH      C 7592   7.646   3.367   6.565
 1897EOH      H 7593   7.558   3.604   6.632
 1898EOH      O 7594   6.459   2.050   0.551
 1898EOH      C 7595   6.357   2.058   0.451
 1898EOH      C 7596   6.372   2.190   0.373
 1898EOH      H 7597   6.540   2.024   0.509
 1899EOH      O 7598   7.410   2.333   5.064
 1899EOH      C 7599   7.364   2.392   4.942
 1899EOH      C 7600   7.485   2.440   4.859
 1899EOH      H 7601   7.470   2.263   5.041
 1900EOH      O 7602   5.120   2.148   0.250
 1900EOH      C 7603   5.259   2.179   0.235
 1900EOH      C 7604   5.281   2.263   0.108
 1900EOH      H 7605   5.074   2.229   0.267
 1901EOH      O 7606   2.918   0.890   1.338
 1901EOH      C 7607   2.981   0.890   1.210
 1901EOH      C 7608   3.095   0.993   1.208
 1901EOH      H 7609   2.981   0.859   1.402
 1902EOH      O 7610   7.043   3.304   2.053
 1902EOH      C 7611   7.070   3.167   2.021
 1902EOH      C 7612   7.013   3.073   2.128
 1902EOH      H 7613   6.951   3.312   2.074
 1903EOH      O 7614   0.342   7.555   3.253
 1903EOH      C 7615   0.443   7.454   3.244
 1903EOH      C 7616   0.377   7.318   3.213
 1903EOH      H 7617   0.300   7.564   3.169
 1904EOH      O 7618   2.242   6.435   5.136
 1904EOH      C 7619   2.202   6.428   4.999
 1904EOH      C 7620   2.091   6.532   4.972
 1904EOH      H 7621   2.273   6.522   5.154
 1905EOH      O 7622   3.092   4.934   3.743
 1905EOH      C 7623   3.080   4.798   3.700
 1905EOH      C 7624   2.962   4.790   3.603
 1905EOH      H 7625   3.180   4.963   3.723
 1906EOH      O 7626   4.672   6.167   0.991
 1906EOH      C 7627   4.718   6.069   1.085
 1906EOH      C 7628   4.616   6.057   1.199
 1906EOH      H 7629   4.590   6.138   0.956
 1907EOH      O 7630   3.234   7.676   4.885
 1907EOH      C 7631   3.298   7.633   5.005
 1907EOH      C 7632   3.450   7.622   4.979
 1907EOH      H 7633   3.286   7.745   4.847
 1908EOH      O 7634   0.946   4.706   0.200
 1908EOH      C 7635   1.040   4.599   0.206
 1908EOH      C 7636   1.104   4.580   0.067
 1908EOH      H 7637   0.994   4.786   0.186
 1909EOH      O 7638   6.594   6.965   4.213
 1909EOH      C 7639   6.489   7.052   4.257
 1909EOH      C 7640   6.380   7.060   4.148
 1909EOH      H 7641   6.567   6.876   4.228
 1910EOH      O 7642   6.800   5.517   4.891
 1910EOH      C 7643   6.725   5.611   4.969
 1910EOH      C 7644   6.663   5.538   5.089
 1910EOH      H 7645   6.869   5.483   4.946
 1911EOH      O 7646   0.097   3.291   0.657
 1911EOH      C 7647   0.168   3.346   0.768
 1911EOH      C 7648   0.276   3.443   0.718
 1911EOH      H 7649   0.057   3.363   0.609
 1912EOH      O 7650   3.013   4.733   5.613
 1912EOH      C 7651   3.100   4.652   5.533
 1912EOH      C 7652   3.099   4.508   5.586
 1912EOH      H 7653   2.924   4.707   5.595
 1913EOH      O 7654   3.599   5.346   1.925
 1913EOH      C 7655   3.664   5.471   1.899
 1913EOH      C 7656   3.665   5.499   1.748
 1913EOH      H 7657   3.509   5.353   1.897
 1914EOH      O 7658   4.133   4.322   2.950
 1914EOH      C 7659   4.057   4.203   2.925
 1914EOH      C 7660   3.989   4.157   3.056
 1914EOH      H 7661   4.074   4.390   2.977
 1915EOH      O 7662   4.943   5.474   6.927
 1915EOH      C 7663   4.919   5.607   6.880
 1915EOH      C 7664   5.004   5.632   6.754
 1915EOH      H 7665   4.888   5.459   7.003
 1916EOH      O 7666   7.675   2.548   0.229
 1916EOH      C 7667   7.737   2.422   0.253
 1916EOH      C 7668   7.854   2.402   0.155
 1916EOH      H 7669   7.728   2.615   0.268
 1917EOH      O 7670   3.417   3.916   5.505
 1917EOH      C 7671   3.499   3.814   5.447
 1917EOH      C 7672   3.606   3.879   5.357
 1917EOH      H 7673   3.475   3.975   5.551
 1918EOH      O 7674   7.696   0.811   2.453
 1918EOH      C 7675   7.703   0.888   2.573
 1918EOH      C 7676   7.611   0.823   2.679
 1918EOH      H 7677   7.784   0.804   2.419
 1919EOH      O 7678   2.808   3.548   3.250
 1919EOH      C 7679   2.861   3.680   3.265
 1919EOH      C 7680   3.009   3.669   3.306
 1919EOH      H 7681   2.819   3.522   3.160
 1920EOH      O 7682   4.300   0.229   7.633
 1920EOH      C 7683   4.196   0.131   7.624
 1920EOH      C 7684   4.243   0.019   7.529
 1920EOH      H 7685   4.322   0.255   7.545
 1921EOH      O 7686   2.341   4.894   6.966
 1921EOH      C 7687   2.250   4.793   6.920
 1921EOH      C 7688   2.306   4.655   6.956
 1921EOH      H 7689   2.325   4.910   7.057
 1922EOH      O 7690   2.975   7.792   5.512
 1922EOH      C 7691   3.113   7.806   5.477
 1922EOH      C 7692   3.177   7.668   5.454
 1922EOH      H 7693   2.937   7.879   5.508
 1923EOH      O 7694   6.363   6.185   1.559
 1923EOH      C 7695   6.241   6.180   1.485
 1923EOH      C 7696   6.135   6.268   1.554
 1923EOH      H 7697   6.387   6.276   1.567
 1924EOH      O 7698   7.579   7.476   5.811
 1924EOH      C 7699   7.579   7.585   5.719
 1924EOH      C 7700   7.478   7.559   5.605
 1924EOH      H 7701   7.645   7.494   5.876
 1925EOH      O 7702   3.521   1.173   7.030
 1925EOH      C 7703   3.477   1.306   7.000
 1925EOH      C 7704   3.359   1.298   6.901
 1925EOH      H 7705   3.460   1.134   7.090
 1926EOH      O 7706   3.795   6.989   1.303
 1926EOH      C 7707   3.931   6.947   1.316
 1926EOH      C 7708   4.022   7.064   1.273
 1926EOH      H 7709   3.772   7.035   1.382
 1927EOH      O 7710   3.131   3.825   3.856
 1927EOH      C 7711   3.241   3.755   3.797
 1927EOH      C 7712   3.349   3.855   3.752
 1927EOH      H 7713   3.068   3.761   3.885
 1928EOH      O 7714   3.458   1.046   4.641
 1928EOH      C 7715   3.432   1.026   4.781
 1928EOH      C 7716   3.459   1.157   4.857
 1928EOH      H 7717   3.471   0.961   4.603
 1929EOH      O 7718   6.130   0.191   2.068
 1929EOH      C 7719   6.158   0.056   2.028
 1929EOH      C 7720   6.272   0.055   1.925
 1929EOH      H 7721   6.190   0.215   2.137
 1930EOH      O 7722   2.893   1.715   4.942
 1930EOH      C 7723   2.803   1.619   4.886
 1930EOH      C 7724   2.814   1.486   4.962
 1930EOH      H 7725   2.853   1.751   5.020
 1931EOH      O 7726   0.437   7.390   1.937
 1931EOH      C 7727   0.450   7.504   2.023
 1931EOH      C 7728   0.387   7.625   1.953
 1931EOH      H 7729   0.428   7.313   1.991
 1932EOH      O 7730   6.510   1.829   5.827
 1932EOH      C 7731   6.644   1.861   5.788
 1932EOH      C 7732   6.718   1.734   5.743
 1932EOH      H 7733   6.463   1.910   5.839
 1933EOH      O 7734   3.607   1.677   5.999
 1933EOH      C 7735   3.739   1.726   6.025
 1933EOH      C 7736   3.817   1.622   6.107
 1933EOH      H 7737   3.618   1.592   5.959
 1934EOH      O 7738   1.387   2.147   0.466
 1934EOH      C 7739   1.429   2.231   0.359
 1934EOH      C 7740   1.560   2.177   0.298
 1934EOH      H 7741   1.293   2.138   0.460
 1935EOH      O 7742   2.725   2.575   6.589
 1935EOH      C 7743   2.601   2.596   6.658
 1935EOH      C 7744   2.615   2.714   6.755
 1935EOH      H 7745   2.751   2.656   6.549
 1936EOH      O 7746   2.935   4.882   7.500
 1936EOH      C 7747   2.885   4.777   7.417
 1936EOH      C 7748   2.896   4.644   7.493
 1936EOH      H 7749   2.886   4.961   7.484
 1937EOH      O 7750   0.603   1.855   2.007
 1937EOH      C 7751   0.726   1.918   1.971
 1937EOH      C 7752   0.842   1.839   2.033
 1937EOH      H 7753   0.588   1.876   2.098
 1938EOH      O 7754   2.882   5.159   4.984
 1938EOH      C 7755   2.960   5.064   5.057
 1938EOH      C 7756   3.095   5.042   4.987
 1938EOH      H 7757   2.939   5.228   4.954
 1939EOH      O 7758   3.779   1.275   2.574
 1939EOH      C 7759   3.875   1.377   2.547
 1939EOH      C 7760   3.974   1.387   2.664
 1939EOH      H 7761   3.821   1.192   2.561
 1940EOH      O 7762   4.558   3.611   2.496
 1940EOH      C 7763   4.542   3.470   2.518
 1940EOH      C 7764   4.509   3.400   2.385
 1940EOH      H 7765   4.591   3.647   2.577
 1941EOH      O 7766   5.458   7.857   2.729
 1941EOH      C 7767   5.496   7.833   2.864
 1941EOH      C 7768   5.646   7.862   2.884
 1941EOH      H 7769   5.365   7.844   2.722
 1942EOH      O 7770   3.656   7.381   6.961
 1942EOH      C 7771   3.579   7.260   6.962
 1942EOH      C 7772   3.466   7.277   7.066
 1942EOH      H 7773   3.598   7.451   6.936
 1943EOH      O 7774   7.328   5.832   4.654
 1943EOH      C 7775   7.457   5.782   4.617
 1943EOH      C 7776   7.503   5.854   4.489
 1943EOH      H 7777   7.320   5.917   4.614
 1944EOH      O 7778   3.001   3.444   2.199
 1944EOH      C 7779   3.045   3.313   2.238
 1944EOH      C 7780   3.033   3.298   2.391
 1944EOH      H 7781   2.914   3.436   2.162
 1945EOH      O 7782   1.899   3.347   3.378
 1945EOH      C 7783   2.005   3.442   3.390
 1945EOH      C 7784   2.048   3.452   3.537
 1945EOH      H 7785   1.921   3.271   3.430
 1946EOH      O 7786   3.465   4.477   4.715
 1946EOH      C 7787   3.362   4.469   4.814
 1946EOH      C 7788   3.231   4.426   4.746
 1946EOH      H 7789   3.488   4.389   4.690
 1947EOH      O 7790   7.356   4.714   2.478
 1947EOH      C 7791   7.327   4.800   2.368
 1947EOH      C 7792   7.459   4.846   2.302
 1947EOH      H 7793   7.382   4.630   2.444
 1948EOH      O 7794   3.334   7.788   0.868
 1948EOH      C 7795   3.281   7.656   0.856
 1948EOH      C 7796   3.251   7.601   0.997
 1948EOH      H 7797   3.353   7.819   0.781
 1949EOH      O 7798   3.911   5.400   4.325
 1949EOH      C 7799   4.008   5.373   4.224
 1949EOH      C 7800   4.101   5.495   4.210
 1949EOH      H 7801   3.949   5.380   4.409
 1950EOH      O 7802   5.850   6.241   2.115
 1950EOH      C 7803   5.824   6.326   2.227
 1950EOH      C 7804   5.902   6.275   2.349
 1950EOH      H 7805   5.939   6.257   2.087
 1951EOH      O 7806   1.120   4.591   1.132
 1951EOH      C 7807   1.199   4.708   1.154
 1951EOH      C 7808   1.329   4.669   1.227
 1951EOH      H 7809   1.165   4.537   1.069
 1952EOH      O 7810   5.236   1.789   3.710
 1952EOH      C 7811   5.284   1.711   3.600
 1952EOH      C 7812   5.437   1.692   3.613
 1952EOH      H 7813   5.266   1.751   3.790
 1953EOH      O 7814   3.975   3.070   7.062
 1953EOH      C 7815   3.890   3.159   7.135
 1953EOH      C 7816   3.757   3.177   7.059
 1953EOH      H 7817   3.938   2.983   7.066
 1954EOH      O 7818   5.706   4.428   1.613
 1954EOH      C 7819   5.605   4.445   1.513
 1954EOH      C 7820   5.473   4.486   1.579
 1954EOH      H 7821   5.714   4.509   1.661
 1955EOH      O 7822   7.319   2.744   0.953
 1955EOH      C 7823   7.258   2.644   1.034
 1955EOH      C 7824   7.203   2.708   1.162
 1955EOH      H 7825   7.255   2.779   0.893
 1956EOH      O 7826   7.403   4.738   7.159
 1956EOH      C 7827   7.387   4.855   7.079
 1956EOH      C 7828   7.409   4.978   7.168
 1956EOH      H 7829   7.495   4.723   7.174
 1957EOH      O 7830   2.173   0.932   6.730
 1957EOH      C 7831   2.276   0.854   6.791
 1957EOH      C 7832   2.401   0.941   6.813
 1957EOH      H 7833   2.129   0.981   6.798
 1958EOH      O 7834   4.208   4.771   3.044
 1958EOH      C 7835   4.088   4.718   2.988
 1958EOH      C 7836   3.970   4.801   3.041
 1958EOH      H 7837   4.226   4.855   3.004
 1959EOH      O 7838   7.898   5.109   1.545
 1959EOH      C 7839   8.037   5.136   1.529
 1959EOH      C 7840   8.106   5.015   1.462
 1959EOH      H 7841   7.848   5.176   1.500
 1960EOH      O 7842   5.454   6.821   7.456
 1960EOH      C 7843   5.475   6.935   7.540
 1960EOH      C 7844   5.519   7.054   7.451
 1960EOH      H 7845   5.391   6.765   7.500
 1961EOH      O 7846   3.295   7.527   5.758
 1961EOH      C 7847   3.353   7.397   5.746
 1961EOH      C 7848   3.419   7.384   5.607
 1961EOH      H 7849   3.361   7.591   5.735
 1962EOH      O 7850   7.366   5.204   2.044
 1962EOH      C 7851   7.426   5.322   2.099
 1962EOH      C 7852   7.559   5.283   2.168
 1962EOH      H 7853   7.413   5.183   1.965
 1963EOH      O 7854   1.409   1.843   4.810
 1963EOH      C 7855   1.364   1.788   4.934
 1963EOH      C 7856   1.388   1.891   5.045
 1963EOH      H 7857   1.360   1.922   4.794
 1964EOH      O 7858   1.829   3.428   4.991
 1964EOH      C 7859   1.814   3.287   5.011
 1964EOH      C 7860   1.830   3.215   4.876
 1964EOH      H 7861   1.918   3.446   4.966
 1965EOH      O 7862   3.285   7.642   6.466
 1965EOH      C 7863   3.294   7.779   6.423
 1965EOH      C 7864   3.435   7.807   6.367
 1965EOH      H 7865   3.280   7.589   6.388
 1966EOH      O 7866   3.653   5.380   7.844
 1966EOH      C 7867   3.647   5.258   7.919
 1966EOH      C 7868   3.644   5.138   7.822
 1966EOH      H 7869   3.661   5.451   7.906
 1967EOH      O 7870   0.832   6.509   6.838
 1967EOH      C 7871   0.918   6.617   6.876
 1967EOH      C 7872   1.053   6.558   6.923
 1967EOH      H 7873   0.852   6.487   6.748
 1968EOH      O 7874   3.853   6.592   5.669
 1968EOH      C 7875   3.874   6.521   5.792
 1968EOH      C 7876   3.861   6.620   5.909
 1968EOH      H 7877   3.840   6.528   5.600
 1969EOH      O 7878   4.788   7.202   4.648
 1969EOH      C 7879   4.923   7.247   4.633
 1969EOH      C 7880   4.979   7.291   4.769
 1969EOH      H 7881   4.787   7.108   4.656
 1970EOH      O 7882   0.068   5.840   7.170
 1970EOH      C 7883   0.140   5.945   7.105
 1970EOH      C 7884   0.257   5.886   7.025
 1970EOH      H 7885   0.009   5.802   7.106
 1971EOH      O 7886   7.005   5.804   6.303
 1971EOH      C 7887   7.108   5.728   6.238
 1971EOH      C 7888   7.078   5.721   6.088
 1971EOH      H 7889   6.927   5.794   6.250
 1972EOH      O 7890   4.682   6.237   3.081
 1972EOH      C 7891   4.611   6.138   3.008
 1972EOH      C 7892   4.461   6.146   3.044
 1972EOH      H 7893   4.695   6.312   3.025
 1973EOH      O 7894   3.807   2.237   7.113
 1973EOH      C 7895   3.751   2.364   7.147
 1973EOH      C 7896   3.648   2.405   7.040
 1973EOH      H 7897   3.744   2.169   7.134
 1974EOH      O 7898   2.739   6.061   6.405
 1974EOH      C 7899   2.641   6.126   6.324
 1974EOH      C 7900   2.643   6.067   6.181
 1974EOH      H 7901   2.706   5.976   6.430
 1975EOH      O 7902   3.438   1.216   7.442
 1975EOH      C 7903   3.408   1.081   7.408
 1975EOH      C 7904   3.324   1.018   7.521
 1975EOH      H 7905   3.357   1.260   7.462
 1976EOH      O 7906   2.127   0.993   7.514
 1976EOH      C 7907   2.021   1.069   7.572
 1976EOH      C 7908   1.894   1.056   7.486
 1976EOH      H 7909   2.207   1.020   7.556
 1977EOH      O 7910   6.158   0.728   5.668
 1977EOH      C 7911   6.017   0.733   5.690
 1977EOH      C 7912   5.988   0.791   5.830
 1977EOH      H 7913   6.191   0.817   5.663
 1978EOH      O 7914   0.051   2.483   3.285
 1978EOH      C 7915  -0.024   2.395   3.200
 1978EOH      C 7916  -0.121   2.313   3.287
 1978EOH      H 7917   0.004   2.565   3.293
 1979EOH      O 7918   7.101   5.055   5.833
 1979EOH      C 7919   6.977   5.020   5.770
 1979EOH      C 7920   7.007   4.941   5.641
 1979EOH      H 7921   7.135   4.978   5.877
 1980EOH      O 7922   2.124   2.524   7.694
 1980EOH      C 7923   2.088   2.640   7.618
 1980EOH      C 7924   2.051   2.756   7.712
 1980EOH      H 7925   2.136   2.453   7.634
 1981EOH      O 7926   7.659   3.184   1.395
 1981EOH      C 7927   7.551   3.175   1.302
 1981EOH      C 7928   7.418   3.206   1.374
 1981EOH      H 7929   7.683   3.275   1.404
 1982EOH      O 7930   5.781   7.489   7.392
 1982EOH      C 7931   5.726   7.382   7.469
 1982EOH      C 7932   5.691   7.432   7.611
 1982EOH      H 7933   5.764   7.470   7.301
 1983EOH      O 7934   3.928   4.497   3.839
 1983EOH      C 7935   3.816   4.498   3.750
 1983EOH      C 7936   3.686   4.520   3.830
 1983EOH      H 7937   3.939   4.583   3.876
 1984EOH      O 7938   7.862   1.236   6.232
 1984EOH      C 7939   7.961   1.170   6.311
 1984EOH      C 7940   7.908   1.030   6.348
 1984EOH      H 7941   7.873   1.211   6.142
 1985EOH      O 7942   4.972   6.942   5.295
 1985EOH      C 7943   5.098   6.999   5.259
 1985EOH      C 7944   5.208   6.890   5.266
 1985EOH      H 7945   4.950   6.874   5.234
 1986EOH      O 7946   2.229   1.397   4.068
 1986EOH      C 7947   2.239   1.275   4.143
 1986EOH      C 7948   2.321   1.299   4.271
 1986EOH      H 7949   2.179   1.379   3.990
 1987EOH      O 7950   2.337   7.819   7.421
 1987EOH      C 7951   2.365   7.738   7.306
 1987EOH      C 7952   2.431   7.826   7.198
 1987EOH      H 7953   2.345   7.764   7.498
 1988EOH      O 7954   4.465   4.362   4.164
 1988EOH      C 7955   4.423   4.239   4.223
 1988EOH      C 7956   4.484   4.226   4.364
 1988EOH      H 7957   4.420   4.433   4.209
 1989EOH      O 7958   6.979   7.689   1.825
 1989EOH      C 7959   7.041   7.817   1.821
 1989EOH      C 7960   7.063   7.858   1.674
 1989EOH      H 7961   6.918   7.685   1.753
 1990EOH      O 7962   5.013   7.299   2.357
 1990EOH      C 7963   5.053   7.188   2.437
 1990EOH      C 7964   5.048   7.060   2.351
 1990EOH      H 7965   5.067   7.373   2.379
 1991EOH      O 7966   2.224   4.605   2.336
 1991EOH      C 7967   2.138   4.497   2.298
 1991EOH      C 7968   2.088   4.424   2.424
 1991EOH      H 7969   2.173   4.671   2.380
 1992EOH      O 7970   0.305   2.273   2.690
 1992EOH      C 7971   0.406   2.372   2.711
 1992EOH      C 7972   0.463   2.417   2.575
 1992EOH      H 7973   0.238   2.310   2.635
 1993EOH      O 7974   6.167   6.446   4.335
 1993EOH      C 7975   6.185   6.306   4.360
 1993EOH      C 7976   6.278   6.246   4.253
 1993EOH      H 7977   6.252   6.487   4.339
 1994EOH      O 7978   5.436   0.343   0.096
 1994EOH      C 7979   5.415   0.202   0.098
 1994EOH      C 7980   5.271   0.172   0.142
 1994EOH      H 7981   5.393   0.379   0.019
 1995EOH      O 7982   6.482   5.672   2.435
 1995EOH      C 7983   6.440   5.768   2.337
 1995EOH      C 7984   6.305   5.829   2.379
 1995EOH      H 7985   6.507   5.719   2.514
 1996EOH      O 7986   2.759   5.577   3.414
 1996EOH      C 7987   2.728   5.447   3.466
 1996EOH      C 7988   2.726   5.344   3.351
 1996EOH      H 7989   2.850   5.577   3.389
 1997EOH      O 7990   6.882   1.743   5.402
 1997EOH      C 7991   7.014   1.711   5.446
 1997EOH      C 7992   7.116   1.785   5.356
 1997EOH      H 7993   6.861   1.830   5.433
 1998EOH      O 7994   0.025   0.496   0.747
 1998EOH      C 7995   0.134   0.540   0.665
 1998EOH      C 7996   0.256   0.568   0.753
 1998EOH      H 7997   0.042   0.407   0.774
 1999EOH      O 7998   3.037   4.072   5.302
 1999EOH      C 7999   2.960   3.981   5.222
 1999EOH      C 8000   3.052   3.876   5.158
 1999EOH      H 8001   3.056   4.028   5.384
 2000EOH      O 8002   0.559   4.260   4.198
 2000EOH      C 8003   0.481   4.166   4.272
 2000EOH      C 8004   0.495   4.027   4.208
 2000EOH      H 8005   0.651   4.246   4.217
 2001EOH      O 8006   4.585   2.816   4.055
 2001EOH      C 8007   4.580   2.947   4.114
 2001EOH      C 8008   4.456   3.021   4.060
 2001EOH      H 8009   4.507   2.770   4.081
 2002EOH      O 8010   2.241   3.949   4.721
 2002EOH      C 8011   2.353   4.033   4.749
 2002EOH      C 8012   2.323   4.176   4.700
 2002EOH      H 8013   2.162   3.993   4.749
 2003EOH      O 8014   6.170   5.156   1.192
 2003EOH      C 8015   6.173   5.049   1.286
 2003EOH      C 8016   6.319   5.022   1.328
 2003EOH      H 8017   6.083   5.160   1.155
 2004EOH      O 8018   5.199   1.296   6.563
 2004EOH      C 8019   5.276   1.298   6.443
 2004EOH      C 8020   5.382   1.186   6.448
 2004EOH      H 8021   5.140   1.222   6.558
 2005EOH      O 8022   2.494   7.021   7.898
 2005EOH      C 8023   2.547   6.913   7.820
 2005EOH      C 8024   2.692   6.947   7.778
 2005EOH      H 8025   2.410   6.993   7.932
 2006EOH      O 8026   6.869   4.845   3.233
 2006EOH      C 8027   6.913   4.956   3.311
 2006EOH      C 8028   6.848   4.948   3.451
 2006EOH      H 8029   6.927   4.772   3.252
 2007EOH      O 8030   2.378   7.101   0.872
 2007EOH      C 8031   2.263   7.044   0.934
 2007EOH      C 8032   2.146   7.144   0.931
 2007EOH      H 8033   2.418   7.159   0.935
 2008EOH      O 8034   6.047   5.204   3.813
 2008EOH      C 8035   6.091   5.329   3.760
 2008EOH      C 8036   6.224   5.368   3.825
 2008EOH      H 8037   6.087   5.133   3.765
 2009EOH      O 8038   2.822   0.744   7.447
 2009EOH      C 8039   2.963   0.756   7.467
 2009EOH      C 8040   3.024   0.832   7.347
 2009EOH      H 8041   2.787   0.831   7.440
 2010EOH      O 8042   7.189   4.259   5.847
 2010EOH      C 8043   7.153   4.355   5.947
 2010EOH      C 8044   7.025   4.309   6.019
 2010EOH      H 8045   7.209   4.177   5.890
 2011EOH      O 8046   0.806   4.689   4.041
 2011EOH      C 8047   0.781   4.747   3.912
 2011EOH      C 8048   0.630   4.764   3.891
 2011EOH      H 8049   0.804   4.758   4.105
 2012EOH      O 8050   0.844   2.331   6.546
 2012EOH      C 8051   0.939   2.233   6.590
 2012EOH      C 8052   1.001   2.278   6.723
 2012EOH      H 8053   0.771   2.326   6.605
 2013EOH      O 8054   1.988   7.579   4.974
 2013EOH      C 8055   2.048   7.653   5.080
 2013EOH      C 8056   1.992   7.606   5.216
 2013EOH      H 8057   2.033   7.496   4.970
 2014EOH      O 8058   3.533   1.320   6.073
 2014EOH      C 8059   3.559   1.318   5.932
 2014EOH      C 8060   3.529   1.179   5.873
 2014EOH      H 8061   3.442   1.300   6.087
 2015EOH      O 8062   4.901   7.511   0.858
 2015EOH      C 8063   4.865   7.491   0.721
 2015EOH      C 8064   4.992   7.462   0.639
 2015EOH      H 8065   4.905   7.427   0.901
 2016EOH      O 8066   6.329   2.281   5.347
 2016EOH      C 8067   6.441   2.366   5.373
 2016EOH      C 8068   6.570   2.283   5.385
 2016EOH      H 8069   6.281   2.320   5.276
 2017EOH      O 8070   0.338   0.287   5.465
 2017EOH      C 8071   0.413   0.173   5.427
 2017EOH      C 8072   0.419   0.072   5.543
 2017EOH      H 8073   0.307   0.330   5.386
 2018EOH      O 8074   3.901   0.411   2.172
 2018EOH      C 8075   4.002   0.316   2.137
 2018EOH      C 8076   4.083   0.368   2.017
 2018EOH      H 8077   3.881   0.399   2.263
 2019EOH      O 8078   1.948   7.576   5.756
 2019EOH      C 8079   1.843   7.650   5.817
 2019EOH      C 8080   1.707   7.597   5.767
 2019EOH      H 8081   1.978   7.511   5.818
 2020EOH      O 8082   5.014   2.733   6.549
 2020EOH      C 8083   4.916   2.773   6.645
 2020EOH      C 8084   4.917   2.671   6.761
 2020EOH      H 8085   5.098   2.761   6.580
 2021EOH      O 8086   5.331   3.681   5.619
 2021EOH      C 8087   5.395   3.564   5.567
 2021EOH      C 8088   5.382   3.450   5.670
 2021EOH      H 8089   5.238   3.673   5.605
 2022EOH      O 8090   4.151   3.326   2.988
 2022EOH      C 8091   4.015   3.345   3.028
 2022EOH      C 8092   3.921   3.313   2.910
 2022EOH      H 8093   4.152   3.266   2.915
 2023EOH      O 8094   3.926   5.880   0.710
 2023EOH      C 8095   4.037   5.969   0.697
 2023EOH      C 8096   4.056   6.005   0.549
 2023EOH      H 8097   3.848   5.922   0.676
 2024EOH      O 8098   6.670   2.102   7.495
 2024EOH      C 8099   6.577   2.087   7.387
 2024EOH      C 8100   6.630   2.162   7.264
 2024EOH      H 8101   6.702   2.016   7.518
 2025EOH      O 8102   1.761   4.697   2.044
 2025EOH      C 8103   1.740   4.570   2.107
 2025EOH      C 8104   1.764   4.583   2.259
 2025EOH      H 8105   1.710   4.761   2.091
 2026EOH      O 8106   1.918   6.081   5.568
 2026EOH      C 8107   2.048   6.062   5.624
 2026EOH      C 8108   2.154   6.091   5.517
 2026EOH      H 8109   1.913   6.169   5.533
 2027EOH      O 8110   0.662   2.533   6.403
 2027EOH      C 8111   0.557   2.489   6.490
 2027EOH      C 8112   0.520   2.344   6.455
 2027EOH      H 8113   0.737   2.477   6.418
 2028EOH      O 8114   0.290   7.505   3.672
 2028EOH      C 8115   0.160   7.550   3.711
 2028EOH      C 8116   0.160   7.580   3.862
 2028EOH      H 8117   0.312   7.548   3.591
 2029EOH      O 8118   5.961   7.101   6.019
 2029EOH      C 8119   6.018   7.020   5.916
 2029EOH      C 8120   5.925   7.022   5.794
 2029EOH      H 8121   6.022   7.103   6.092
 2030EOH      O 8122   0.173   0.118   6.387
 2030EOH      C 8123   0.177   0.261   6.393
 2030EOH      C 8124   0.294   0.305   6.483
 2030EOH      H 8125   0.225   0.092   6.313
 2031EOH      O 8126   6.154   0.376   7.278
 2031EOH      C 8127   6.064   0.471   7.336
 2031EOH      C 8128   5.973   0.531   7.227
 2031EOH      H 8129   6.105   0.299   7.252
 2032EOH      O 8130   6.022   3.253   0.605
 2032EOH      C 8131   6.060   3.119   0.575
 2032EOH      C 8132   5.962   3.020   0.642
 2032EOH      H 8133   5.944   3.274   0.556
 2033EOH      O 8134   2.312   4.965   7.204
 2033EOH      C 8135   2.210   4.914   7.290
 2033EOH      C 8136   2.267   4.795   7.370
 2033EOH      H 8137   2.365   5.024   7.256
 2034EOH      O 8138   1.675   6.148   7.269
 2034EOH      C 8139   1.734   6.159   7.399
 2034EOH      C 8140   1.638   6.234   7.493
 2034EOH      H 8141   1.597   6.096   7.277
 2035EOH      O 8142   7.412   5.659   1.894
 2035EOH      C 8143   7.497   5.702   2.001
 2035EOH      C 8144   7.518   5.854   1.994
 2035EOH      H 8145   7.350   5.728   1.876
 2036EOH      O 8146   3.387   4.037   1.098
 2036EOH      C 8147   3.261   3.978   1.131
 2036EOH      C 8148   3.209   4.042   1.261
 2036EOH      H 8149   3.376   4.131   1.097
 2037EOH      O 8150   3.888   7.619   7.653
 2037EOH      C 8151   3.753   7.635   7.698
 2037EOH      C 8152   3.749   7.627   7.852
 2037EOH      H 8153   3.939   7.692   7.685
 2038EOH      O 8154   2.399   3.653   1.610
 2038EOH      C 8155   2.295   3.566   1.655
 2038EOH      C 8156   2.334   3.419   1.629
 2038EOH      H 8157   2.477   3.634   1.660
 2039EOH      O 8158   2.865   0.987   1.805
 2039EOH      C 8159   2.753   0.911   1.849
 2039EOH      C 8160   2.743   0.780   1.768
 2039EOH      H 8161   2.864   1.070   1.850
 2040EOH      O 8162   5.360   4.805   7.319
 2040EOH      C 8163   5.361   4.812   7.462
 2040EOH      C 8164   5.375   4.669   7.519
 2040EOH      H 8165   5.446   4.784   7.289
 2041EOH      O 8166   0.262   1.660   7.359
 2041EOH      C 8167   0.282   1.561   7.460
 2041EOH      C 8168   0.301   1.423   7.394
 2041EOH      H 8169   0.314   1.736   7.381
 2042EOH      O 8170   1.579   3.116   4.643
 2042EOH      C 8171   1.637   2.987   4.630
 2042EOH      C 8172   1.640   2.945   4.482
 2042EOH      H 8173   1.630   3.178   4.592
 2043EOH      O 8174   2.714   0.283   5.241
 2043EOH      C 8175   2.685   0.398   5.162
 2043EOH      C 8176   2.718   0.525   5.244
 2043EOH      H 8177   2.632   0.240   5.260
 2044EOH      O 8178   7.390   2.908   5.142
 2044EOH      C 8179   7.397   2.767   5.119
 2044EOH      C 8180   7.296   2.695   5.210
 2044EOH      H 8181   7.301   2.936   5.127
 2045EOH      O 8182   6.416   5.454   6.394
 2045EOH      C 8183   6.476   5.331   6.353
 2045EOH      C 8184   6.478   5.233   6.472
 2045EOH      H 8185   6.361   5.484   6.324
 2046EOH      O 8186   2.610   3.027   3.990
 2046EOH      C 8187   2.589   2.945   4.105
 2046EOH      C 8188   2.724   2.895   4.159
 2046EOH      H 8189   2.651   3.108   4.018
 2047EOH      O 8190   1.380   6.395   2.533
 2047EOH      C 8191   1.382   6.518   2.460
 2047EOH      C 8192   1.527   6.555   2.423
 2047EOH      H 8193   1.292   6.361   2.531
 2048EOH      O 8194   7.663   6.301   6.351
 2048EOH      C 8195   7.561   6.276   6.254
 2048EOH      C 8196   7.429   6.240   6.324
 2048EOH      H 8197   7.646   6.387   6.388
 2049EOH      O 8198   2.187   1.748   1.819
 2049EOH      C 8199   2.282   1.654   1.768
 2049EOH      C 8200   2.401   1.643   1.864
 2049EOH      H 8201   2.149   1.712   1.898
 2050EOH      O 8202   0.889   5.677   2.845
 2050EOH      C 8203   0.996   5.726   2.926
 2050EOH      C 8204   0.983   5.878   2.943
 2050EOH      H 8205   0.813   5.667   2.901
 2051EOH      O 8206   5.319   3.595   7.478
 2051EOH      C 8207   5.399   3.550   7.368
 2051EOH      C 8208   5.451   3.408   7.400
 2051EOH      H 8209   5.300   3.686   7.465
 2052EOH      O 8210   7.475   2.984   6.472
 2052EOH      C 8211   7.351   2.938   6.527
 2052EOH      C 8212   7.282   2.842   6.428
 2052EOH      H 8213   7.511   3.046   6.533
 2053EOH      O 8214   2.451   2.248   7.663
 2053EOH      C 8215   2.472   2.128   7.738
 2053EOH      C 8216   2.588   2.048   7.676
 2053EOH      H 8217   2.514   2.311   7.692
 2054EOH      O 8218   5.366   1.011   1.353
 2054EOH      C 8219   5.435   0.966   1.236
 2054EOH      C 8220   5.586   0.961   1.264
 2054EOH      H 8221   5.348   0.936   1.408
 2055EOH      O 8222   3.955   4.696   4.599
 2055EOH      C 8223   4.001   4.793   4.504
 2055EOH      C 8224   3.969   4.745   4.362
 2055EOH      H 8225   3.961   4.733   4.686
 2056EOH      O 8226   1.230   3.962   3.062
 2056EOH      C 8227   1.240   3.823   3.092
 2056EOH      C 8228   1.143   3.784   3.204
 2056EOH      H 8229   1.139   3.985   3.057
 2057EOH      O 8230   0.028   5.976   2.549
 2057EOH      C 8231   0.113   5.968   2.663
 2057EOH      C 8232   0.228   5.869   2.634
 2057EOH      H 8233   0.062   6.042   2.490
 2058EOH      O 8234   6.587   3.049   3.776
 2058EOH      C 8235   6.509   3.077   3.659
 2058EOH      C 8236   6.374   3.002   3.668
 2058EOH      H 8237   6.544   3.088   3.851
 2059EOH      O 8238   4.391   7.158   6.848
 2059EOH      C 8239   4.299   7.096   6.939
 2059EOH      C 8240   4.366   6.972   7.000
 2059EOH      H 8241   4.458   7.201   6.899
 2060EOH      O 8242   3.092   1.112   3.304
 2060EOH      C 8243   3.048   1.017   3.401
 2060EOH      C 8244   3.074   0.874   3.349
 2060EOH      H 8245   3.186   1.106   3.297
 2061EOH      O 8246   6.064   3.162   2.414
 2061EOH      C 8247   6.127   3.039   2.450
 2061EOH      C 8248   6.120   3.018   2.602
 2061EOH      H 8249   5.970   3.153   2.428
 2062EOH      O 8250   5.608   1.267   6.695
 2062EOH      C 8251   5.646   1.395   6.645
 2062EOH      C 8252   5.776   1.440   6.714
 2062EOH      H 8253   5.545   1.230   6.634
 2063EOH      O 8254   7.464   3.256   4.127
 2063EOH      C 8255   7.565   3.251   4.228
 2063EOH      C 8256   7.534   3.357   4.337
 2063EOH      H 8257   7.473   3.179   4.073
 2064EOH      O 8258   0.402   5.480   7.570
 2064EOH      C 8259   0.428   5.369   7.485
 2064EOH      C 8260   0.356   5.390   7.351
 2064EOH      H 8261   0.443   5.556   7.532
 2065EOH      O 8262   4.049   6.861   6.929
 2065EOH      C 8263   3.952   6.878   7.033
 2065EOH      C 8264   3.933   7.028   7.064
 2065EOH      H 8265   4.012   6.887   6.847
 2066EOH      O 8266   7.220   2.909   0.656
 2066EOH      C 8267   7.229   3.048   0.687
 2066EOH      C 8268   7.373   3.082   0.731
 2066EOH      H 8269   7.272   2.891   0.579
 2067EOH      O 8270   5.488   0.814   2.724
 2067EOH      C 8271   5.609   0.764   2.783
 2067EOH      C 8272   5.619   0.613   2.753
 2067EOH      H 8273   5.507   0.827   2.632
 2068EOH      O 8274   1.145   6.284   2.695
 2068EOH      C 8275   1.037   6.273   2.787
 2068EOH      C 8276   0.903   6.262   2.711
 2068EOH      H 8277   1.224   6.254   2.738
 2069EOH      O 8278   5.512   6.539   1.109
 2069EOH      C 8279   5.391   6.490   1.168
 2069EOH      C 8280   5.398   6.337   1.178
 2069EOH      H 8281   5.580   6.532   1.174
 2070EOH      O 8282   4.451   7.874   2.855
 2070EOH      C 8283   4.351   7.958   2.912
 2070EOH      C 8284   4.405   8.101   2.933
 2070EOH      H 8285   4.408   7.792   2.836
 2071EOH      O 8286   4.240   3.753   2.941
 2071EOH      C 8287   4.228   3.845   3.050
 2071EOH      C 8288   4.339   3.951   3.041
 2071EOH      H 8289   4.163   3.699   2.937
 2072EOH      O 8290   7.511   4.119   6.508
 2072EOH      C 8291   7.625   4.033   6.521
 2072EOH      C 8292   7.727   4.069   6.411
 2072EOH      H 8293   7.533   4.204   6.542
 2073EOH      O 8294   3.597   5.085   4.464
 2073EOH      C 8295   3.700   5.172   4.417
 2073EOH      C 8296   3.819   5.085   4.372
 2073EOH      H 8297   3.564   5.035   4.391
 2074EOH      O 8298   2.304   0.147   5.738
 2074EOH      C 8299   2.429   0.095   5.786
 2074EOH      C 8300   2.403  -0.023   5.881
 2074EOH      H 8301   2.255   0.076   5.699
 2075EOH      O 8302   6.696   0.558   5.893
 2075EOH      C 8303   6.628   0.466   5.808
 2075EOH      C 8304   6.480   0.508   5.795
 2075EOH      H 8305   6.722   0.633   5.841
 2076EOH      O 8306   0.050   4.381   2.751
 2076EOH      C 8307   0.065   4.440   2.881
 2076EOH      C 8308   0.214   4.437   2.919
 2076EOH      H 8309  -0.034   4.408   2.716
 2077EOH      O 8310   7.628   2.924   6.279
 2077EOH      C 8311   7.682   2.793   6.299
 2077EOH      C 8312   7.773   2.791   6.423
 2077EOH      H 8313   7.565   2.941   6.347
 2078EOH      O 8314   2.383   3.542   6.047
 2078EOH      C 8315   2.508   3.602   6.012
 2078EOH      C 8316   2.602   3.600   6.134
 2078EOH      H 8317   2.397   3.449   6.058
 2079EOH      O 8318   1.168   5.601   7.152
 2079EOH      C 8319   1.144   5.497   7.057
 2079EOH      C 8320   1.250   5.387   7.072
 2079EOH      H 8321   1.155   5.564   7.238
 2080EOH      O 8322   0.178   4.675   2.420
 2080EOH      C 8323   0.130   4.671   2.555
 2080EOH      C 8324   0.234   4.736   2.648
 2080EOH      H 8325   0.239   4.747   2.413
 2081EOH      O 8326   0.746   1.228   5.853
 2081EOH      C 8327   0.772   1.214   5.713
 2081EOH      C 8328   0.639   1.222   5.636
 2081EOH      H 8329   0.724   1.318   5.869
 2082EOH      O 8330   1.331   5.625   0.491
 2082EOH      C 8331   1.214   5.563   0.438
 2082EOH      C 8332   1.129   5.510   0.555
 2082EOH      H 8333   1.304   5.692   0.552
 2083EOH      O 8334   2.306   5.929   0.838
 2083EOH      C 8335   2.203   5.957   0.742
 2083EOH      C 8336   2.073   5.993   0.815
 2083EOH      H 8337   2.334   6.011   0.875
 2084EOH      O 8338   2.183   0.190   1.683
 2084EOH      C 8339   2.252   0.143   1.568
 2084EOH      C 8340   2.401   0.121   1.599
 2084EOH      H 8341   2.091   0.199   1.660
 2085EOH      O 8342   1.884   2.065   0.670
 2085EOH      C 8343   1.863   1.950   0.586
 2085EOH      C 8344   1.990   1.926   0.504
 2085EOH      H 8345   1.963   2.051   0.719
 2086EOH      O 8346   7.632   4.589   1.742
 2086EOH      C 8347   7.713   4.707   1.742
 2086EOH      C 8348   7.677   4.794   1.864
 2086EOH      H 8349   7.652   4.540   1.820
 2087EOH      O 8350   4.499   7.702   7.636
 2087EOH      C 8351   4.519   7.796   7.741
 2087EOH      C 8352   4.597   7.918   7.687
 2087EOH      H 8353   4.516   7.746   7.554
 2088EOH      O 8354   4.136   2.974   2.215
 2088EOH      C 8355   4.274   2.994   2.180
 2088EOH      C 8356   4.300   3.145   2.163
 2088EOH      H 8357   4.122   3.016   2.299
 2089EOH      O 8358   7.360   6.357   4.330
 2089EOH      C 8359   7.322   6.257   4.235
 2089EOH      C 8360   7.285   6.127   4.309
 2089EOH      H 8361   7.281   6.398   4.362
 2090EOH      O 8362   6.192   5.400   0.433
 2090EOH      C 8363   6.275   5.513   0.459
 2090EOH      C 8364   6.291   5.594   0.330
 2090EOH      H 8365   6.110   5.432   0.398
 2091EOH      O 8366   5.287   3.089   3.108
 2091EOH      C 8367   5.151   3.083   3.066
 2091EOH      C 8368   5.123   2.945   3.002
 2091EOH      H 8369   5.303   3.020   3.170
 2092EOH      O 8370   7.641   4.888   7.465
 2092EOH      C 8371   7.687   4.951   7.585
 2092EOH      C 8372   7.735   5.094   7.554
 2092EOH      H 8373   7.577   4.945   7.426
 2093EOH      O 8374   6.156   4.972   0.339
 2093EOH      C 8375   6.063   5.065   0.395
 2093EOH      C 8376   5.920   5.021   0.359
 2093EOH      H 8377   6.157   4.894   0.391
 2094EOH      O 8378   3.975   2.773   1.649
 2094EOH      C 8379   4.013   2.843   1.767
 2094EOH      C 8380   4.057   2.742   1.875
 2094EOH      H 8381   4.052   2.733   1.612
 2095EOH      O 8382   1.044   4.969   4.022
 2095EOH      C 8383   0.986   5.092   3.978
 2095EOH      C 8384   1.092   5.179   3.909
 2095EOH      H 8385   1.067   4.918   3.946
 2096EOH      O 8386   2.651   6.820   7.479
 2096EOH      C 8387   2.544   6.795   7.387
 2096EOH      C 8388   2.412   6.846   7.447
 2096EOH      H 8389   2.664   6.913   7.486
 2097EOH      O 8390   2.841   5.726   5.009
 2097EOH      C 8391   2.938   5.722   5.114
 2097EOH      C 8392   3.079   5.720   5.054
 2097EOH      H 8393   2.863   5.798   4.952
 2098EOH      O 8394   4.614   0.459   7.326
 2098EOH      C 8395   4.566   0.435   7.458
 2098EOH      C 8396   4.506   0.565   7.515
 2098EOH      H 8397   4.617   0.377   7.280
 2099EOH      O 8398   0.411   3.407   5.487
 2099EOH      C 8399   0.326   3.341   5.393
 2099EOH      C 8400   0.218   3.260   5.468
 2099EOH      H 8401   0.358   3.467   5.538
 2100EOH      O 8402   0.851   2.275   7.603
 2100EOH      C 8403   0.714   2.238   7.618
 2100EOH      C 8404   0.650   2.222   7.479
 2100EOH      H 8405   0.896   2.202   7.564
 2101EOH      O 8406   5.983   2.292   2.282
 2101EOH      C 8407   6.124   2.274   2.261
 2101EOH      C 8408   6.186   2.210   2.386
 2101EOH      H 8409   5.942   2.207   2.281
 2102EOH      O 8410   6.408   3.801   6.873
 2102EOH      C 8411   6.282   3.800   6.941
 2102EOH      C 8412   6.169   3.774   6.839
 2102EOH      H 8413   6.427   3.712   6.845
 2103EOH      O 8414   6.635   3.100   1.695
 2103EOH      C 8415   6.526   3.118   1.604
 2103EOH      C 8416   6.393   3.119   1.682
 2103EOH      H 8417   6.706   3.155   1.665
 2104EOH      O 8418   7.152   1.551   2.851
 2104EOH      C 8419   7.253   1.504   2.942
 2104EOH      C 8420   7.381   1.474   2.862
 2104EOH      H 8421   7.161   1.644   2.843
 2105EOH      O 8422   0.464   5.824   5.953
 2105EOH      C 8423   0.474   5.792   6.092
 2105EOH      C 8424   0.347   5.719   6.138
 2105EOH      H 8425   0.485   5.745   5.904
 2106EOH      O 8426   0.006   3.602   2.417
 2106EOH      C 8427   0.105   3.520   2.480
 2106EOH      C 8428   0.245   3.563   2.433
 2106EOH      H 8429   0.046   3.685   2.398
 2107EOH      O 8430   7.535   5.915   3.594
 2107EOH      C 8431   7.516   6.055   3.577
 2107EOH      C 8432   7.511   6.089   3.427
 2107EOH      H 8433   7.456   5.870   3.569
 2108EOH      O 8434   7.135   0.327   1.085
 2108EOH      C 8435   7.160   0.318   0.944
 2108EOH      C 8436   7.153   0.170   0.900
 2108EOH      H 8437   7.141   0.418   1.110
 2109EOH      O 8438   3.637   1.249   0.570
 2109EOH      C 8439   3.648   1.255   0.428
 2109EOH      C 8440   3.592   1.389   0.376
 2109EOH      H 8441   3.671   1.165   0.597
 2110EOH      O 8442   6.506   4.210   4.739
 2110EOH      C 8443   6.509   4.351   4.716
 2110EOH      C 8444   6.368   4.398   4.673
 2110EOH      H 8445   6.532   4.193   4.829
 2111EOH      O 8446   5.826   1.822   5.474
 2111EOH      C 8447   5.875   1.689   5.464
 2111EOH      C 8448   5.925   1.642   5.602
 2111EOH      H 8449   5.753   1.822   5.534
 2112EOH      O 8450   5.639   2.059   4.180
 2112EOH      C 8451   5.519   2.134   4.157
 2112EOH      C 8452   5.489   2.222   4.280
 2112EOH      H 8453   5.713   2.117   4.168
 2113EOH      O 8454   1.820   4.829   7.619
 2113EOH      C 8455   1.782   4.881   7.747
 2113EOH      C 8456   1.671   4.985   7.728
 2113EOH      H 8457   1.742   4.813   7.569
 2114EOH      O 8458   2.455   5.306   2.288
 2114EOH      C 8459   2.425   5.446   2.286
 2114EOH      C 8460   2.551   5.525   2.326
 2114EOH      H 8461   2.524   5.290   2.226
 2115EOH      O 8462   0.147   5.766   0.662
 2115EOH      C 8463   0.020   5.728   0.716
 2115EOH      C 8464   0.033   5.595   0.792
 2115EOH      H 8465   0.195   5.811   0.730
 2116EOH      O 8466   0.154   3.661   7.765
 2116EOH      C 8467   0.068   3.703   7.871
 2116EOH      C 8468  -0.078   3.701   7.822
 2116EOH      H 8469   0.153   3.566   7.763
 2117EOH      O 8470   7.268   6.701   5.283
 2117EOH      C 8471   7.244   6.613   5.173
 2117EOH      C 8472   7.092   6.589   5.157
 2117EOH      H 8473   7.334   6.762   5.257
 2118EOH      O 8474   5.473   7.848   5.475
 2118EOH      C 8475   5.357   7.923   5.514
 2118EOH      C 8476   5.396   8.072   5.521
 2118EOH      H 8477   5.477   7.848   5.381
 2119EOH      O 8478   1.277   7.442   4.446
 2119EOH      C 8479   1.404   7.483   4.499
 2119EOH      C 8480   1.461   7.369   4.585
 2119EOH      H 8481   1.293   7.378   4.378
 2120EOH      O 8482   3.961   2.924   3.742
 2120EOH      C 8483   3.870   3.028   3.705
 2120EOH      C 8484   3.947   3.161   3.696
 2120EOH      H 8485   4.018   2.909   3.667
 2121EOH      O 8486   1.538   0.607   6.606
 2121EOH      C 8487   1.533   0.483   6.535
 2121EOH      C 8488   1.386   0.442   6.514
 2121EOH      H 8489   1.513   0.677   6.547
 2122EOH      O 8490   6.488   3.679   7.593
 2122EOH      C 8491   6.562   3.763   7.682
 2122EOH      C 8492   6.488   3.772   7.817
 2122EOH      H 8493   6.551   3.643   7.533
 2123EOH      O 8494   5.581   0.140   4.604
 2123EOH      C 8495   5.641   0.091   4.724
 2123EOH      C 8496   5.719   0.205   4.791
 2123EOH      H 8497   5.520   0.208   4.628
 2124EOH      O 8498   0.154   5.764   1.170
 2124EOH      C 8499   0.182   5.820   1.042
 2124EOH      C 8500   0.178   5.974   1.046
 2124EOH      H 8501   0.149   5.670   1.162
 2125EOH      O 8502   3.364   1.995   6.826
 2125EOH      C 8503   3.255   1.947   6.748
 2125EOH      C 8504   3.121   1.991   6.810
 2125EOH      H 8505   3.388   2.080   6.793
 2126EOH      O 8506   5.676   2.489   5.715
 2126EOH      C 8507   5.672   2.429   5.586
 2126EOH      C 8508   5.530   2.376   5.557
 2126EOH      H 8509   5.657   2.582   5.707
 2127EOH      O 8510   3.058   2.595   6.162
 2127EOH      C 8511   3.017   2.674   6.050
 2127EOH      C 8512   3.009   2.585   5.924
 2127EOH      H 8513   2.996   2.524   6.172
 2128EOH      O 8514   7.401   3.883   1.574
 2128EOH      C 8515   7.516   3.965   1.552
 2128EOH      C 8516   7.479   4.081   1.457
 2128EOH      H 8517   7.332   3.938   1.608
 2129EOH      O 8518   1.204   7.064   3.421
 2129EOH      C 8519   1.125   7.076   3.540
 2129EOH      C 8520   1.036   6.951   3.553
 2129EOH      H 8521   1.287   7.025   3.444
 2130EOH      O 8522   5.739   4.438   3.144
 2130EOH      C 8523   5.869   4.475   3.098
 2130EOH      C 8524   5.971   4.458   3.211
 2130EOH      H 8525   5.749   4.390   3.225
 2131EOH      O 8526   1.575   1.519   2.884
 2131EOH      C 8527   1.606   1.383   2.918
 2131EOH      C 8528   1.552   1.290   2.808
 2131EOH      H 8529   1.607   1.575   2.954
 2132EOH      O 8530   5.509   2.738   0.865
 2132EOH      C 8531   5.545   2.852   0.944
 2132EOH      C 8532   5.660   2.815   1.039
 2132EOH      H 8533   5.589   2.702   0.830
 2133EOH      O 8534   2.470   4.131   5.206
 2133EOH      C 8535   2.583   4.044   5.211
 2133EOH      C 8536   2.583   3.964   5.343
 2133EOH      H 8537   2.392   4.076   5.212
 2134EOH      O 8538   6.353   5.304   5.767
 2134EOH      C 8539   6.467   5.378   5.813
 2134EOH      C 8540   6.524   5.458   5.694
 2134EOH      H 8541   6.278   5.360   5.774
 2135EOH      O 8542   7.426   1.217   6.047
 2135EOH      C 8543   7.441   1.111   6.141
 2135EOH      C 8544   7.343   0.998   6.107
 2135EOH      H 8545   7.475   1.195   5.969
 2136EOH      O 8546   3.682   2.726   4.165
 2136EOH      C 8547   3.698   2.624   4.066
 2136EOH      C 8548   3.622   2.498   4.109
 2136EOH      H 8549   3.596   2.763   4.156
 2137EOH      O 8550   6.625   6.423   2.896
 2137EOH      C 8551   6.576   6.346   2.787
 2137EOH      C 8552   6.483   6.433   2.700
 2137EOH      H 8553   6.696   6.478   2.865
 2138EOH      O 8554   4.754   5.987   3.992
 2138EOH      C 8555   4.786   6.110   3.926
 2138EOH      C 8556   4.865   6.080   3.798
 2138EOH      H 8557   4.660   5.979   3.989
 2139EOH      O 8558   6.217   0.786   3.514
 2139EOH      C 8559   6.111   0.733   3.593
 2139EOH      C 8560   5.995   0.688   3.501
 2139EOH      H 8561   6.257   0.715   3.467
 2140EOH      O 8562   7.162   1.078   6.759
 2140EOH      C 8563   7.029   1.122   6.789
 2140EOH      C 8564   6.947   1.129   6.658
 2140EOH      H 8565   7.156   0.990   6.724
 2141EOH      O 8566   0.424   6.735   4.096
 2141EOH      C 8567   0.403   6.599   4.136
 2141EOH      C 8568   0.449   6.505   4.023
 2141EOH      H 8569   0.515   6.757   4.106
 2142EOH      O 8570   2.099   2.186   1.575
 2142EOH      C 8571   2.200   2.086   1.560
 2142EOH      C 8572   2.206   2.048   1.411
 2142EOH      H 8573   2.139   2.270   1.559
 2143EOH      O 8574   2.394   3.806   2.851
 2143EOH      C 8575   2.489   3.805   2.958
 2143EOH      C 8576   2.630   3.813   2.898
 2143EOH      H 8577   2.417   3.877   2.793
 2144EOH      O 8578   5.979   1.108   4.567
 2144EOH      C 8579   6.101   1.180   4.553
 2144EOH      C 8580   6.220   1.086   4.583
 2144EOH      H 8581   5.976   1.039   4.502
 2145EOH      O 8582   4.065   5.710   2.769
 2145EOH      C 8583   4.188   5.782   2.786
 2145EOH      C 8584   4.161   5.922   2.845
 2145EOH      H 8585   4.035   5.723   2.680
 2146EOH      O 8586   1.558   7.322   5.143
 2146EOH      C 8587   1.434   7.253   5.130
 2146EOH      C 8588   1.317   7.352   5.153
 2146EOH      H 8589   1.573   7.373   5.065
 2147EOH      O 8590   1.312   2.744   4.343
 2147EOH      C 8591   1.265   2.791   4.217
 2147EOH      C 8592   1.148   2.703   4.169
 2147EOH      H 8593   1.247   2.766   4.409
 2148EOH      O 8594   5.492   1.368   6.056
 2148EOH      C 8595   5.597   1.420   6.137
 2148EOH      C 8596   5.664   1.537   6.062
 2148EOH      H 8597   5.413   1.366   6.108
 2149EOH      O 8598   7.834   5.969   1.831
 2149EOH      C 8599   7.860   5.829   1.831
 2149EOH      C 8600   7.799   5.764   1.706
 2149EOH      H 8601   7.903   6.013   1.783
 2150EOH      O 8602   3.191   4.001   4.085
 2150EOH      C 8603   3.195   4.120   4.004
 2150EOH      C 8604   3.298   4.219   4.062
 2150EOH      H 8605   3.132   3.942   4.042
 2151EOH      O 8606   0.720   2.558   2.179
 2151EOH      C 8607   0.704   2.416   2.190
 2151EOH      C 8608   0.563   2.377   2.140
 2151EOH      H 8609   0.710   2.583   2.089
 2152EOH      O 8610   7.178   6.681   2.374
 2152EOH      C 8611   7.226   6.702   2.242
 2152EOH      C 8612   7.351   6.615   2.218
 2152EOH      H 8613   7.172   6.587   2.387
 2153EOH      O 8614   6.083   7.774   3.623
 2153EOH      C 8615   6.001   7.712   3.523
 2153EOH      C 8616   5.859   7.771   3.527
 2153EOH      H 8617   6.082   7.868   3.611
 2154EOH      O 8618   7.079   4.561   4.232
 2154EOH      C 8619   6.937   4.564   4.213
 2154EOH      C 8620   6.869   4.611   4.342
 2154EOH      H 8621   7.114   4.646   4.212
 2155EOH      O 8622   1.826   1.134   0.005
 2155EOH      C 8623   1.717   1.081  -0.071
 2155EOH      C 8624   1.587   1.084   0.013
 2155EOH      H 8625   1.820   1.228   0.003
 2156EOH      O 8626   3.066   3.390   7.675
 2156EOH      C 8627   3.173   3.373   7.768
 2156EOH      C 8628   3.287   3.470   7.734
 2156EOH      H 8629   3.042   3.481   7.674
 2157EOH      O 8630   7.268   1.992   7.107
 2157EOH      C 8631   7.210   1.919   7.215
 2157EOH      C 8632   7.100   2.004   7.282
 2157EOH      H 8633   7.210   1.988   7.033
 2158EOH      O 8634   3.444   0.117   7.153
 2158EOH      C 8635   3.462  -0.010   7.090
 2158EOH      C 8636   3.353  -0.106   7.140
 2158EOH      H 8637   3.357   0.148   7.132
 2159EOH      O 8638   5.432   4.904   1.232
 2159EOH      C 8639   5.289   4.890   1.232
 2159EOH      C 8640   5.250   4.749   1.184
 2159EOH      H 8641   5.469   4.834   1.284
 2160EOH      O 8642   1.560   5.965   6.295
 2160EOH      C 8643   1.607   5.852   6.221
 2160EOH      C 8644   1.573   5.722   6.296
 2160EOH      H 8645   1.466   5.968   6.287
 2161EOH      O 8646   1.454   7.541   3.807
 2161EOH      C 8647   1.359   7.640   3.767
 2161EOH      C 8648   1.270   7.583   3.655
 2161EOH      H 8649   1.405   7.467   3.841
 2162EOH      O 8650   5.132   6.835   5.834
 2162EOH      C 8651   5.269   6.840   5.876
 2162EOH      C 8652   5.280   6.772   6.014
 2162EOH      H 8653   5.120   6.755   5.786
 2163EOH      O 8654   0.420   0.340   4.944
 2163EOH      C 8655   0.474   0.212   4.974
 2163EOH      C 8656   0.531   0.149   4.846
 2163EOH      H 8657   0.491   0.401   4.931
 2164EOH      O 8658   4.194   0.207   0.285
 2164EOH      C 8659   4.064   0.236   0.234
 2164EOH      C 8660   3.981   0.308   0.341
 2164EOH      H 8661   4.247   0.285   0.281
 2165EOH      O 8662   7.213   4.759   4.157
 2165EOH      C 8663   7.309   4.805   4.253
 2165EOH      C 8664   7.242   4.901   4.353
 2165EOH      H 8665   7.259   4.710   4.090
 2166EOH      O 8666   5.529   2.658   4.518
 2166EOH      C 8667   5.636   2.585   4.457
 2166EOH      C 8668   5.769   2.630   4.520
 2166EOH      H 8669   5.530   2.639   4.611
 2167EOH      O 8670   2.762   1.322   6.427
 2167EOH      C 8671   2.787   1.196   6.363
 2167EOH      C 8672   2.722   1.195   6.224
 2167EOH      H 8673   2.840   1.375   6.420
 2168EOH      O 8674   0.877   0.549   7.104
 2168EOH      C 8675   1.018   0.526   7.100
 2168EOH      C 8676   1.057   0.471   6.962
 2168EOH      H 8677   0.859   0.606   7.177
 2169EOH      O 8678   0.848   6.595   7.235
 2169EOH      C 8679   0.798   6.516   7.344
 2169EOH      C 8680   0.720   6.396   7.286
 2169EOH      H 8681   0.892   6.537   7.175
 2170EOH      O 8682   6.401   5.524   4.879
 2170EOH      C 8683   6.307   5.443   4.949
 2170EOH      C 8684   6.177   5.522   4.975
 2170EOH      H 8685   6.472   5.467   4.852
 2171EOH      O 8686   7.893   4.312   1.845
 2171EOH      C 8687   8.020   4.279   1.901
 2171EOH      C 8688   8.132   4.332   1.809
 2171EOH      H 8689   7.891   4.406   1.829
 2172EOH      O 8690   2.054   5.115   6.510
 2172EOH      C 8691   2.064   5.244   6.570
 2172EOH      C 8692   2.199   5.308   6.534
 2172EOH      H 8693   2.057   5.126   6.416
 2173EOH      O 8694   7.366   4.061   0.674
 2173EOH      C 8695   7.251   4.088   0.754
 2173EOH      C 8696   7.130   4.121   0.665
 2173EOH      H 8697   7.364   3.970   0.647
 2174EOH      O 8698   3.942   2.694   2.591
 2174EOH      C 8699   3.908   2.827   2.629
 2174EOH      C 8700   3.764   2.859   2.586
 2174EOH      H 8701   3.882   2.634   2.633
 2175EOH      O 8702   0.921   3.228   5.147
 2175EOH      C 8703   1.037   3.307   5.117
 2175EOH      C 8704   1.102   3.254   4.989
 2175EOH      H 8705   0.889   3.255   5.232
 2176EOH      O 8706   5.732   1.036   6.070
 2176EOH      C 8707   5.744   1.109   5.948
 2176EOH      C 8708   5.877   1.187   5.947
 2176EOH      H 8709   5.806   0.977   6.076
 2177EOH      O 8710   3.497   4.779   1.885
 2177EOH      C 8711   3.465   4.646   1.924
 2177EOH      C 8712   3.351   4.592   1.836
 2177EOH      H 8713   3.570   4.777   1.825
 2178EOH      O 8714   3.387   3.995   2.361
 2178EOH      C 8715   3.487   3.915   2.425
 2178EOH      C 8716   3.415   3.807   2.507
 2178EOH      H 8717   3.417   4.018   2.274
 2179EOH      O 8718   2.811   3.464   0.691
 2179EOH      C 8719   2.820   3.464   0.548
 2179EOH      C 8720   2.727   3.356   0.491
 2179EOH      H 8721   2.792   3.552   0.719
 2180EOH      O 8722   2.226   1.368   5.334
 2180EOH      C 8723   2.342   1.326   5.408
 2180EOH      C 8724   2.468   1.391   5.348
 2180EOH      H 8725   2.157   1.387   5.396
 2181EOH      O 8726   4.977   1.547   5.546
 2181EOH      C 8727   4.985   1.683   5.590
 2181EOH      C 8728   5.090   1.696   5.703
 2181EOH      H 8729   5.034   1.537   5.471
 2182EOH      O 8730   2.343   6.546   2.472
 2182EOH      C 8731   2.353   6.688   2.488
 2182EOH      C 8732   2.498   6.726   2.521
 2182EOH      H 8733   2.370   6.523   2.385
 2183EOH      O 8734   2.834   6.970   6.945
 2183EOH      C 8735   2.856   7.093   7.014
 2183EOH      C 8736   2.917   7.196   6.918
 2183EOH      H 8737   2.770   6.985   6.877
 2184EOH      O 8738   6.938   1.590   2.407
 2184EOH      C 8739   7.015   1.553   2.521
 2184EOH      C 8740   7.123   1.451   2.480
 2184EOH      H 8741   6.984   1.658   2.360
 2185EOH      O 8742   0.892   4.666   6.750
 2185EOH      C 8743   1.009   4.632   6.677
 2185EOH      C 8744   1.059   4.754   6.597
 2185EOH      H 8745   0.861   4.587   6.793
 2186EOH      O 8746   4.012   5.558   4.945
 2186EOH      C 8747   3.991   5.467   5.053
 2186EOH      C 8748   4.059   5.332   5.022
 2186EOH      H 8749   4.103   5.585   4.948
 2187EOH      O 8750   6.326   3.774   7.268
 2187EOH      C 8751   6.227   3.845   7.344
 2187EOH      C 8752   6.090   3.777   7.326
 2187EOH      H 8753   6.329   3.686   7.301
 2188EOH      O 8754   7.094   6.571   1.961
 2188EOH      C 8755   7.088   6.680   1.868
 2188EOH      C 8756   7.135   6.632   1.729
 2188EOH      H 8757   7.045   6.499   1.925
 2189EOH      O 8758   7.891   7.462   2.969
 2189EOH      C 8759   7.756   7.479   3.014
 2189EOH      C 8760   7.691   7.598   2.940
 2189EOH      H 8761   7.889   7.414   2.887
 2190EOH      O 8762   4.051   3.222   0.148
 2190EOH      C 8763   4.178   3.188   0.204
 2190EOH      C 8764   4.290   3.220   0.104
 2190EOH      H 8765   4.047   3.316   0.139
 2191EOH      O 8766   5.076   6.418   1.992
 2191EOH      C 8767   5.107   6.356   1.867
 2191EOH      C 8768   5.024   6.422   1.755
 2191EOH      H 8769   5.116   6.503   1.994
 2192EOH      O 8770   5.518   5.864   3.763
 2192EOH      C 8771   5.581   5.904   3.885
 2192EOH      C 8772   5.671   5.790   3.934
 2192EOH      H 8773   5.536   5.929   3.697
 2193EOH      O 8774   1.958   3.618   5.865
 2193EOH      C 8775   2.100   3.634   5.865
 2193EOH      C 8776   2.140   3.733   5.753
 2193EOH      H 8777   1.919   3.696   5.900
 2194EOH      O 8778   1.684   1.826   3.485
 2194EOH      C 8779   1.746   1.876   3.604
 2194EOH      C 8780   1.639   1.893   3.713
 2194EOH      H 8781   1.641   1.745   3.507
 2195EOH      O 8782   4.616   3.102   7.530
 2195EOH      C 8783   4.758   3.098   7.512
 2195EOH      C 8784   4.828   3.130   7.646
 2195EOH      H 8785   4.594   3.047   7.603
 2196EOH      O 8786   7.668   5.704   1.049
 2196EOH      C 8787   7.696   5.818   1.132
 2196EOH      C 8788   7.649   5.945   1.060
 2196EOH      H 8789   7.580   5.715   1.015
 2197EOH      O 8790   7.813   0.952   7.600
 2197EOH      C 8791   7.775   0.956   7.738
 2197EOH      C 8792   7.655   0.863   7.761
 2197EOH      H 8793   7.822   0.861   7.575
 2198EOH      O 8794   2.380   4.233   0.603
 2198EOH      C 8795   2.316   4.110   0.569
 2198EOH      C 8796   2.173   4.108   0.625
 2198EOH      H 8797   2.455   4.242   0.546
 2199EOH      O 8798   7.350   3.115   7.448
 2199EOH      C 8799   7.209   3.093   7.431
 2199EOH      C 8800   7.186   2.972   7.339
 2199EOH      H 8801   7.362   3.197   7.493
 2200EOH      O 8802   3.461   0.610   2.508
 2200EOH      C 8803   3.588   0.672   2.531
 2200EOH      C 8804   3.687   0.566   2.582
 2200EOH      H 8805   3.476   0.517   2.499
 2201EOH      O 8806   5.629   4.347   7.789
 2201EOH      C 8807   5.736   4.384   7.876
 2201EOH      C 8808   5.785   4.525   7.839
 2201EOH      H 8809   5.556   4.404   7.808
 2202EOH      O 8810   2.311   5.243   3.231
 2202EOH      C 8811   2.241   5.174   3.127
 2202EOH      C 8812   2.342   5.118   3.025
 2202EOH      H 8813   2.340   5.178   3.293
 2203EOH      O 8814   3.436   0.125   4.151
 2203EOH      C 8815   3.344   0.053   4.069
 2203EOH      C 8816   3.297  -0.073   4.145
 2203EOH      H 8817   3.410   0.215   4.149
 2204EOH      O 8818   7.371   1.092   3.226
 2204EOH      C 8819   7.463   1.083   3.336
 2204EOH      C 8820   7.400   1.146   3.461
 2204EOH      H 8821   7.300   1.032   3.242
 2205EOH      O 8822   0.379   5.040   5.228
 2205EOH      C 8823   0.476   5.054   5.124
 2205EOH      C 8824   0.611   5.094   5.187
 2205EOH      H 8825   0.418   4.989   5.297
 2206EOH      O 8826   3.558   0.073   1.577
 2206EOH      C 8827   3.623   0.195   1.540
 2206EOH      C 8828   3.682   0.182   1.398
 2206EOH      H 8829   3.465   0.088   1.582
 2207EOH      O 8830   1.796   4.214   3.207
 2207EOH      C 8831   1.687   4.157   3.134
 2207EOH      C 8832   1.566   4.140   3.228
 2207EOH      H 8833   1.780   4.306   3.215
 2208EOH      O 8834   7.536   7.680   1.167
 2208EOH      C 8835   7.543   7.592   1.279
 2208EOH      C 8836   7.418   7.617   1.366
 2208EOH      H 8837   7.457   7.660   1.119
 2209EOH      O 8838   2.104   0.998   1.371
 2209EOH      C 8839   2.040   0.905   1.284
 2209EOH      C 8840   1.928   0.832   1.361
 2209EOH      H 8841   2.037   1.043   1.419
 2210EOH      O 8842   0.417   7.454   7.009
 2210EOH      C 8843   0.435   7.384   6.886
 2210EOH      C 8844   0.507   7.251   6.912
 2210EOH      H 8845   0.349   7.411   7.058
 2211EOH      O 8846   5.564   5.886   6.179
 2211EOH      C 8847   5.613   5.968   6.073
 2211EOH      C 8848   5.662   6.102   6.129
 2211EOH      H 8849   5.637   5.842   6.220
 2212EOH      O 8850   3.035   0.419   5.256
 2212EOH      C 8851   3.126   0.334   5.186
 2212EOH      C 8852   3.078   0.188   5.200
 2212EOH      H 8853   2.947   0.388   5.238
 2213EOH      O 8854   4.111   1.728   0.704
 2213EOH      C 8855   4.117   1.723   0.846
 2213EOH      C 8856   4.201   1.841   0.898
 2213EOH      H 8857   4.047   1.665   0.675
 2214EOH      O 8858   2.901   4.081   2.459
 2214EOH      C 8859   3.015   4.055   2.541
 2214EOH      C 8860   3.132   4.144   2.495
 2214EOH      H 8861   2.827   4.095   2.517
 2215EOH      O 8862   0.783   1.732   2.719
 2215EOH      C 8863   0.832   1.653   2.828
 2215EOH      C 8864   0.950   1.726   2.896
 2215EOH      H 8865   0.690   1.720   2.716
 2216EOH      O 8866   3.113   1.634   3.632
 2216EOH      C 8867   3.065   1.519   3.561
 2216EOH      C 8868   2.969   1.439   3.651
 2216EOH      H 8869   3.083   1.627   3.721
 2217EOH      O 8870   4.091   2.770   6.317
 2217EOH      C 8871   4.051   2.681   6.421
 2217EOH      C 8872   4.177   2.629   6.493
 2217EOH      H 8873   4.093   2.858   6.353
 2218EOH      O 8874   6.498   0.699   1.583
 2218EOH      C 8875   6.552   0.591   1.660
 2218EOH      C 8876   6.509   0.608   1.807
 2218EOH      H 8877   6.407   0.706   1.605
 2219EOH      O 8878   5.854   6.765   5.427
 2219EOH      C 8879   5.712   6.772   5.434
 2219EOH      C 8880   5.670   6.854   5.558
 2219EOH      H 8881   5.889   6.853   5.418
 2220EOH      O 8882   1.354   3.243   3.616
 2220EOH      C 8883   1.349   3.381   3.652
 2220EOH      C 8884   1.257   3.457   3.555
 2220EOH      H 8885   1.281   3.198   3.656
 2221EOH      O 8886   0.892   1.779   2.491
 2221EOH      C 8887   1.035   1.777   2.499
 2221EOH      C 8888   1.083   1.912   2.556
 2221EOH      H 8889   0.858   1.765   2.578
 2222EOH      O 8890   4.199   3.687   0.716
 2222EOH      C 8891   4.143   3.817   0.736
 2222EOH      C 8892   4.231   3.922   0.664
 2222EOH      H 8893   4.133   3.623   0.737
 2223EOH      O 8894   3.290   0.413   6.479
 2223EOH      C 8895   3.292   0.507   6.372
 2223EOH      C 8896   3.285   0.433   6.237
 2223EOH      H 8897   3.268   0.459   6.558
 2224EOH      O 8898   0.550   1.302   4.681
 2224EOH      C 8899   0.433   1.220   4.695
 2224EOH      C 8900   0.419   1.127   4.573
 2224EOH      H 8901   0.624   1.251   4.710
 2225EOH      O 8902   2.249   1.050   4.696
 2225EOH      C 8903   2.191   0.938   4.630
 2225EOH      C 8904   2.054   0.907   4.694
 2225EOH      H 8905   2.193   1.125   4.683
 2226EOH      O 8906   0.277   7.851   6.674
 2226EOH      C 8907   0.194   7.735   6.681
 2226EOH      C 8908   0.183   7.687   6.827
 2226EOH      H 8909   0.230   7.916   6.623
 2227EOH      O 8910   7.007   3.835   7.098
 2227EOH      C 8911   7.096   3.724   7.113
 2227EOH      C 8912   7.101   3.647   6.980
 2227EOH      H 8913   7.048   3.897   7.040
 2228EOH      O 8914   5.025   3.915   1.363
 2228EOH      C 8915   4.913   3.891   1.448
 2228EOH      C 8916   4.812   3.803   1.371
 2228EOH      H 8917   5.104   3.906   1.414
 2229EOH      O 8918   1.697   7.538   2.455
 2229EOH      C 8919   1.621   7.655   2.423
 2229EOH      C 8920   1.651   7.765   2.526
 2229EOH      H 8921   1.789   7.558   2.440
 2230EOH      O 8922   3.839   4.701   7.571
 2230EOH      C 8923   3.707   4.732   7.527
 2230EOH      C 8924   3.682   4.883   7.544
 2230EOH      H 8925   3.899   4.748   7.515
 2231EOH      O 8926   2.058   5.124   7.625
 2231EOH      C 8927   2.190   5.077   7.652
 2231EOH      C 8928   2.289   5.163   7.571
 2231EOH      H 8929   2.033   5.181   7.696
 2232EOH      O 8930   4.615   4.530   2.601
 2232EOH      C 8931   4.628   4.539   2.459
 2232EOH      C 8932   4.769   4.495   2.417
 2232EOH      H 8933   4.613   4.438   2.626
 2233EOH      O 8934   0.410   6.256   1.445
 2233EOH      C 8935   0.435   6.377   1.373
 2233EOH      C 8936   0.514   6.474   1.463
 2233EOH      H 8937   0.474   6.192   1.418
 2234EOH      O 8938   4.903   3.481   4.277
 2234EOH      C 8939   4.884   3.367   4.361
 2234EOH      C 8940   4.747   3.302   4.331
 2234EOH      H 8941   4.891   3.454   4.187
 2235EOH      O 8942   2.589   6.257   0.144
 2235EOH      C 8943   2.663   6.240   0.265
 2235EOH      C 8944   2.814   6.246   0.236
 2235EOH      H 8945   2.612   6.341   0.106
 2236EOH      O 8946   5.185   1.558   6.186
 2236EOH      C 8947   5.082   1.538   6.088
 2236EOH      C 8948   5.105   1.405   6.015
 2236EOH      H 8949   5.143   1.577   6.268
 2237EOH      O 8950   0.703   3.986   7.713
 2237EOH      C 8951   0.613   4.070   7.786
 2237EOH      C 8952   0.523   4.148   7.688
 2237EOH      H 8953   0.654   3.917   7.672
 2238EOH      O 8954   5.134   1.767   2.408
 2238EOH      C 8955   5.190   1.817   2.287
 2238EOH      C 8956   5.080   1.847   2.184
 2238EOH      H 8957   5.081   1.836   2.445
 2239EOH      O 8958   0.016   0.392   2.062
 2239EOH      C 8959   0.050   0.528   2.033
 2239EOH      C 8960   0.047   0.552   1.881
 2239EOH      H 8961  -0.072   0.377   2.033
 2240EOH      O 8962   2.411   0.747   6.351
 2240EOH      C 8963   2.314   0.841   6.400
 2240EOH      C 8964   2.380   0.979   6.414
 2240EOH      H 8965   2.452   0.783   6.275
 2241EOH      O 8966   6.193   3.127   5.344
 2241EOH      C 8967   6.075   3.200   5.310
 2241EOH      C 8968   5.963   3.164   5.409
 2241EOH      H 8969   6.269   3.177   5.317
 2242EOH      O 8970   5.079   5.854   7.542
 2242EOH      C 8971   5.063   5.816   7.679
 2242EOH      C 8972   4.930   5.742   7.699
 2242EOH      H 8973   5.076   5.776   7.489
 2243EOH      O 8974   4.813   7.632   5.109
 2243EOH      C 8975   4.796   7.765   5.158
 2243EOH      C 8976   4.648   7.806   5.144
 2243EOH      H 8977   4.757   7.574   5.159
 2244EOH      O 8978   7.659   7.026   2.135
 2244EOH      C 8979   7.725   7.082   2.021
 2244EOH      C 8980   7.671   7.224   1.996
 2244EOH      H 8981   7.641   7.097   2.195
 2245EOH      O 8982   6.607   0.251   2.308
 2245EOH      C 8983   6.529   0.194   2.203
 2245EOH      C 8984   6.608   0.200   2.072
 2245EOH      H 8985   6.638   0.182   2.364
 2246EOH      O 8986   6.885   7.714   6.940
 2246EOH      C 8987   6.795   7.798   7.012
 2246EOH      C 8988   6.697   7.864   6.913
 2246EOH      H 8989   6.844   7.630   6.926
 2247EOH      O 8990   3.716   3.550   5.468
 2247EOH      C 8991   3.838   3.540   5.393
 2247EOH      C 8992   3.951   3.614   5.468
 2247EOH      H 8993   3.652   3.493   5.429
 2248EOH      O 8994   7.523   2.093   7.353
 2248EOH      C 8995   7.490   2.191   7.451
 2248EOH      C 8996   7.369   2.273   7.404
 2248EOH      H 8997   7.447   2.040   7.336
 2249EOH      O 8998   5.089   0.397   5.745
 2249EOH      C 8999   5.014   0.290   5.803
 2249EOH      C 9000   5.075   0.155   5.762
 2249EOH      H 9001   5.059   0.477   5.787
 2250EOH      O 9002   2.274   2.041   2.908
 2250EOH      C 9003   2.162   2.103   2.973
 2250EOH      C 9004   2.196   2.128   3.121
 2250EOH      H 9005   2.350   2.092   2.929
 2251EOH      O 9006   2.516   3.399   3.410
 2251EOH      C 9007   2.549   3.515   3.488
 2251EOH      C 9008   2.462   3.518   3.615
 2251EOH      H 9009   2.580   3.333   3.429
 2252EOH      O 9010   2.228   5.753   6.921
 2252EOH      C 9011   2.347   5.832   6.914
 2252EOH      C 9012   2.438   5.797   7.033
 2252EOH      H 9013   2.252   5.664   6.901
 2253EOH      O 9014   7.506   6.963   5.726
 2253EOH      C 9015   7.531   7.102   5.746
 2253EOH      C 9016   7.510   7.177   5.613
 2253EOH      H 9017   7.413   6.950   5.714
 2254EOH      O 9018   5.829   3.231   3.055
 2254EOH      C 9019   5.694   3.274   3.075
 2254EOH      C 9020   5.689   3.372   3.194
 2254EOH      H 9021   5.883   3.307   3.040
 2255EOH      O 9022   0.318   2.764   4.546
 2255EOH      C 9023   0.409   2.869   4.509
 2255EOH      C 9024   0.547   2.846   4.574
 2255EOH      H 9025   0.364   2.682   4.537
 2256EOH      O 9026   6.787   1.463   3.093
 2256EOH      C 9027   6.773   1.436   3.232
 2256EOH      C 9028   6.837   1.551   3.313
 2256EOH      H 9029   6.763   1.553   3.077
 2257EOH      O 9030   6.675   3.425   7.513
 2257EOH      C 9031   6.639   3.292   7.553
 2257EOH      C 9032   6.667   3.197   7.435
 2257EOH      H 9033   6.619   3.447   7.440
 2258EOH      O 9034   3.685   1.350   1.643
 2258EOH      C 9035   3.589   1.363   1.748
 2258EOH      C 9036   3.560   1.512   1.774
 2258EOH      H 9037   3.725   1.264   1.653
 2259EOH      O 9038   0.739   1.484   4.633
 2259EOH      C 9039   0.842   1.412   4.562
 2259EOH      C 9040   0.915   1.320   4.661
 2259EOH      H 9041   0.659   1.434   4.629
 2260EOH      O 9042   3.012   4.972   6.744
 2260EOH      C 9043   2.926   4.983   6.630
 2260EOH      C 9044   2.893   5.131   6.603
 2260EOH      H 9045   3.098   5.002   6.718
 2261EOH      O 9046   6.542   7.753   3.715
 2261EOH      C 9047   6.456   7.822   3.623
 2261EOH      C 9048   6.462   7.973   3.649
 2261EOH      H 9049   6.631   7.777   3.697
 2262EOH      O 9050   3.614   2.263   0.740
 2262EOH      C 9051   3.755   2.272   0.760
 2262EOH      C 9052   3.826   2.180   0.658
 2262EOH      H 9053   3.588   2.333   0.682
 2263EOH      O 9054   1.204   2.216   6.399
 2263EOH      C 9055   1.290   2.311   6.461
 2263EOH      C 9056   1.295   2.440   6.377
 2263EOH      H 9057   1.119   2.256   6.388
 2264EOH      O 9058   0.436   7.844   7.798
 2264EOH      C 9059   0.513   7.792   7.690
 2264EOH      C 9060   0.456   7.655   7.648
 2264EOH      H 9061   0.465   7.932   7.816
 2265EOH      O 9062   2.521   6.435   3.267
 2265EOH      C 9063   2.457   6.340   3.352
 2265EOH      C 9064   2.338   6.275   3.279
 2265EOH      H 9065   2.553   6.389   3.191
 2266EOH      O 9066   3.919   4.346   5.179
 2266EOH      C 9067   3.783   4.383   5.202
 2266EOH      C 9068   3.691   4.264   5.169
 2266EOH      H 9069   3.958   4.321   5.262
 2267EOH      O 9070   3.093   3.116   3.473
 2267EOH      C 9071   3.168   3.060   3.581
 2267EOH      C 9072   3.298   2.999   3.526
 2267EOH      H 9073   3.132   3.199   3.450
 2268EOH      O 9074   3.720   5.218   4.976
 2268EOH      C 9075   3.643   5.338   4.968
 2268EOH      C 9076   3.533   5.324   4.861
 2268EOH      H 9077   3.663   5.149   5.007
 2269EOH      O 9078   5.134   2.172   6.440
 2269EOH      C 9079   5.111   2.048   6.507
 2269EOH      C 9080   5.009   1.965   6.427
 2269EOH      H 9081   5.196   2.156   6.370
 2270EOH      O 9082   7.436   2.249   3.262
 2270EOH      C 9083   7.390   2.367   3.328
 2270EOH      C 9084   7.348   2.331   3.472
 2270EOH      H 9085   7.517   2.221   3.303
 2271EOH      O 9086   7.259   7.132   4.083
 2271EOH      C 9087   7.202   7.027   4.162
 2271EOH      C 9088   7.074   6.975   4.094
 2271EOH      H 9089   7.295   7.095   4.004
 2272EOH      O 9090   3.670   1.161   4.474
 2272EOH      C 9091   3.767   1.158   4.579
 2272EOH      C 9092   3.884   1.253   4.548
 2272EOH      H 9093   3.585   1.161   4.515
 2273EOH      O 9094   0.098   2.936   7.678
 2273EOH      C 9095   0.074   2.960   7.539
 2273EOH      C 9096   0.206   2.947   7.460
 2273EOH      H 9097   0.122   2.845   7.687
 2274EOH      O 9098   6.422   6.025   6.495
 2274EOH      C 9099   6.390   6.150   6.434
 2274EOH      C 9100   6.276   6.217   6.513
 2274EOH      H 9101   6.443   6.042   6.586
 2275EOH      O 9102   4.434   4.356   0.476
 2275EOH      C 9103   4.314   4.283   0.502
 2275EOH      C 9104   4.301   4.169   0.399
 2275EOH      H 9105   4.507   4.307   0.511
 2276EOH      O 9106   1.779   1.425   1.942
 2276EOH      C 9107   1.877   1.497   1.867
 2276EOH      C 9108   1.821   1.635   1.828
 2276EOH      H 9109   1.766   1.469   2.025
 2277EOH      O 9110   0.513   7.727   0.504
 2277EOH      C 9111   0.510   7.678   0.638
 2277EOH      C 9112   0.370   7.701   0.699
 2277EOH      H 9113   0.447   7.681   0.453
 2278EOH      O 9114   2.831   7.068   4.853
 2278EOH      C 9115   2.804   7.181   4.771
 2278EOH      C 9116   2.867   7.159   4.632
 2278EOH      H 9117   2.924   7.057   4.854
 2279EOH      O 9118   5.251   4.045   2.351
 2279EOH      C 9119   5.262   4.079   2.490
 2279EOH      C 9120   5.332   3.964   2.565
 2279EOH      H 9121   5.338   4.047   2.313
 2280EOH      O 9122   4.124   0.452   5.113
 2280EOH      C 9123   4.012   0.540   5.121
 2280EOH      C 9124   3.888   0.468   5.063
 2280EOH      H 9125   4.112   0.382   5.175
 2281EOH      O 9126   3.540   7.896   2.242
 2281EOH      C 9127   3.436   7.798   2.227
 2281EOH      C 9128   3.483   7.688   2.130
 2281EOH      H 9129   3.518   7.950   2.316
 2282EOH      O 9130   4.071   5.044   5.384
 2282EOH      C 9131   3.978   5.013   5.280
 2282EOH      C 9132   3.860   4.935   5.339
 2282EOH      H 9133   4.143   5.093   5.347
 2283EOH      O 9134   6.920   5.522   7.343
 2283EOH      C 9135   7.021   5.420   7.344
 2283EOH      C 9136   7.090   5.415   7.206
 2283EOH      H 9137   6.958   5.600   7.305
 2284EOH      O 9138   5.519   1.553   5.728
 2284EOH      C 9139   5.500   1.694   5.714
 2284EOH      C 9140   5.487   1.728   5.564
 2284EOH      H 9141   5.516   1.530   5.819
 2285EOH      O 9142   1.812   1.289   4.189
 2285EOH      C 9143   1.857   1.413   4.135
 2285EOH      C 9144   1.894   1.392   3.987
 2285EOH      H 9145   1.727   1.271   4.151
 2286EOH      O 9146   4.469   0.403   5.271
 2286EOH      C 9147   4.415   0.535   5.253
 2286EOH      C 9148   4.527   0.639   5.270
 2286EOH      H 9149   4.514   0.379   5.191
 2287EOH      O 9150   0.689   5.626   2.990
 2287EOH      C 9151   0.583   5.720   3.010
 2287EOH      C 9152   0.482   5.707   2.894
 2287EOH      H 9153   0.659   5.543   3.023
 2288EOH      O 9154   0.080   6.326   1.431
 2288EOH      C 9155   0.064   6.200   1.496
 2288EOH      C 9156   0.112   6.086   1.403
 2288EOH      H 9157   0.173   6.347   1.432
 2289EOH      O 9158   1.082   4.056   6.210
 2289EOH      C 9159   1.067   4.076   6.351
 2289EOH      C 9160   1.201   4.124   6.410
 2289EOH      H 9161   1.103   4.139   6.170
 2290EOH      O 9162   2.300   2.211   2.638
 2290EOH      C 9163   2.395   2.108   2.609
 2290EOH      C 9164   2.531   2.175   2.578
 2290EOH      H 9165   2.249   2.184   2.713
 2291EOH      O 9166   3.190   2.243   1.111
 2291EOH      C 9167   3.294   2.292   1.026
 2291EOH      C 9168   3.369   2.173   0.963
 2291EOH      H 9169   3.130   2.192   1.058
 2292EOH      O 9170   1.032   6.233   1.830
 2292EOH      C 9171   1.098   6.180   1.715
 2292EOH      C 9172   1.051   6.035   1.692
 2292EOH      H 9173   0.943   6.254   1.807
 2293EOH      O 9174   0.591   2.539   3.513
 2293EOH      C 9175   0.458   2.503   3.474
 2293EOH      C 9176   0.370   2.489   3.599
 2293EOH      H 9177   0.587   2.622   3.557
 2294EOH      O 9178   4.878   5.698   2.096
 2294EOH      C 9179   4.956   5.638   1.992
 2294EOH      C 9180   5.071   5.556   2.055
 2294EOH      H 9181   4.828   5.629   2.138
 2295EOH      O 9182   6.699   2.032   0.470
 2295EOH      C 9183   6.801   1.955   0.535
 2295EOH      C 9184   6.938   2.023   0.517
 2295EOH      H 9185   6.714   2.122   0.493
 2296EOH      O 9186   3.539   3.383   1.277
 2296EOH      C 9187   3.672   3.432   1.260
 2296EOH      C 9188   3.670   3.548   1.158
 2296EOH      H 9189   3.487   3.452   1.317
 2297EOH      O 9190   1.208   2.089   4.277
 2297EOH      C 9191   1.190   2.096   4.418
 2297EOH      C 9192   1.058   2.168   4.450
 2297EOH      H 9193   1.287   2.040   4.258
 2298EOH      O 9194   6.578   2.061   2.177
 2298EOH      C 9195   6.602   1.946   2.095
 2298EOH      C 9196   6.609   1.820   2.184
 2298EOH      H 9197   6.494   2.048   2.219
 2299EOH      O 9198   6.486   7.248   3.529
 2299EOH      C 9199   6.509   7.131   3.608
 2299EOH      C 9200   6.372   7.077   3.653
 2299EOH      H 9201   6.453   7.316   3.586
 2300EOH      O 9202   6.862   2.193   2.153
 2300EOH      C 9203   6.879   2.318   2.220
 2300EOH      C 9204   6.804   2.429   2.143
 2300EOH      H 9205   6.772   2.166   2.162
 2301EOH      O 9206   3.429   2.156   7.742
 2301EOH      C 9207   3.483   2.233   7.634
 2301EOH      C 9208   3.579   2.340   7.691
 2301EOH      H 9209   3.494   2.093   7.768
 2302EOH      O 9210   0.791   7.406   6.827
 2302EOH      C 9211   0.884   7.356   6.925
 2302EOH      C 9212   0.933   7.217   6.880
 2302EOH      H 9213   0.748   7.481   6.864
 2303EOH      O 9214   2.552   5.846   4.572
 2303EOH      C 9215   2.462   5.935   4.639
 2303EOH      C 9216   2.434   6.057   4.548
 2303EOH      H 9217   2.509   5.812   4.495
 2304EOH      O 9218   7.613   2.923   7.384
 2304EOH      C 9219   7.670   2.957   7.257
 2304EOH      C 9220   7.557   2.973   7.153
 2304EOH      H 9221   7.553   2.991   7.409
 2305EOH      O 9222   5.502   0.541   4.075
 2305EOH      C 9223   5.544   0.677   4.086
 2305EOH      C 9224   5.553   0.713   4.235
 2305EOH      H 9225   5.541   0.491   4.144
 2306EOH      O 9226   2.612   1.502   3.214
 2306EOH      C 9227   2.728   1.514   3.297
 2306EOH      C 9228   2.847   1.440   3.232
 2306EOH      H 9229   2.632   1.536   3.128
 2307EOH      O 9230   1.877   0.425   7.900
 2307EOH      C 9231   1.762   0.511   7.904
 2307EOH      C 9232   1.755   0.593   7.773
 2307EOH      H 9233   1.866   0.368   7.825
 2308EOH      O 9234   6.420   2.771   3.247
 2308EOH      C 9235   6.554   2.780   3.200
 2308EOH      C 9236   6.555   2.796   3.047
 2308EOH      H 9237   6.379   2.856   3.239
 2309EOH      O 9238   2.334   1.298   1.993
 2309EOH      C 9239   2.307   1.366   2.115
 2309EOH      C 9240   2.437   1.379   2.196
 2309EOH      H 9241   2.256   1.298   1.939
 2310EOH      O 9242   7.378   4.914   5.184
 2310EOH      C 9243   7.467   4.803   5.172
 2310EOH      C 9244   7.386   4.674   5.148
 2310EOH      H 9245   7.337   4.928   5.100
 2311EOH      O 9246   3.102   7.723   6.850
 2311EOH      C 9247   3.093   7.833   6.759
 2311EOH      C 9248   3.172   7.952   6.814
 2311EOH      H 9249   3.152   7.654   6.808
 2312EOH      O 9250   4.190   6.221   3.228
 2312EOH      C 9251   4.088   6.121   3.224
 2312EOH      C 9252   3.957   6.183   3.276
 2312EOH      H 9253   4.265   6.186   3.181
 2313EOH      O 9254   4.505   7.205   1.278
 2313EOH      C 9255   4.374   7.208   1.221
 2313EOH      C 9256   4.364   7.100   1.111
 2313EOH      H 9257   4.495   7.178   1.368
 2314EOH      O 9258   5.965   4.963   7.012
 2314EOH      C 9259   5.902   4.850   6.950
 2314EOH      C 9260   6.005   4.738   6.926
 2314EOH      H 9261   5.974   4.946   7.105
 2315EOH      O 9262   7.785   7.255   3.449
 2315EOH      C 9263   7.920   7.265   3.402
 2315EOH      C 9264   8.017   7.226   3.515
 2315EOH      H 9265   7.777   7.180   3.505
 2316EOH      O 9266   4.280   2.242   2.107
 2316EOH      C 9267   4.194   2.161   2.188
 2316EOH      C 9268   4.136   2.247   2.302
 2316EOH      H 9269   4.227   2.302   2.057
 2317EOH      O 9270   6.381   5.873   7.733
 2317EOH      C 9271   6.337   5.976   7.644
 2317EOH      C 9272   6.194   6.018   7.683
 2317EOH      H 9273   6.475   5.863   7.724
 2318EOH      O 9274   2.613   2.208   6.448
 2318EOH      C 9275   2.736   2.212   6.520
 2318EOH      C 9276   2.846   2.270   6.430
 2318EOH      H 9277   2.595   2.296   6.416
 2319EOH      O 9278   5.249   1.701   0.404
 2319EOH      C 9279   5.136   1.616   0.425
 2319EOH      C 9280   5.009   1.703   0.431
 2319EOH      H 9281   5.238   1.742   0.319
 2320EOH      O 9282   4.292   4.773   6.459
 2320EOH      C 9283   4.162   4.736   6.414
 2320EOH      C 9284   4.075   4.863   6.396
 2320EOH      H 9285   4.347   4.786   6.383
 2321EOH      O 9286   6.442   2.844   6.200
 2321EOH      C 9287   6.425   2.945   6.100
 2321EOH      C 9288   6.386   2.878   5.967
 2321EOH      H 9289   6.452   2.885   6.284
 2322EOH      O 9290   2.131   3.909   5.303
 2322EOH      C 9291   2.214   3.828   5.219
 2322EOH      C 9292   2.237   3.903   5.087
 2322EOH      H 9293   2.185   3.951   5.368
 2323EOH      O 9294   0.927   3.115   2.249
 2323EOH      C 9295   0.972   3.032   2.356
 2323EOH      C 9296   1.125   3.018   2.349
 2323EOH      H 9297   0.834   3.129   2.260
 2324EOH      O 9298   6.993   0.948   4.384
 2324EOH      C 9299   6.911   1.034   4.304
 2324EOH      C 9300   6.925   1.178   4.355
 2324EOH      H 9301   7.074   0.936   4.337
 2325EOH      O 9302   0.522   6.988   6.050
 2325EOH      C 9303   0.453   6.918   5.947
 2325EOH      C 9304   0.336   6.838   6.008
 2325EOH      H 9305   0.461   7.044   6.095
 2326EOH      O 9306   1.596   5.704   4.464
 2326EOH      C 9307   1.709   5.616   4.478
 2326EOH      C 9308   1.778   5.598   4.342
 2326EOH      H 9309   1.627   5.787   4.433
 2327EOH      O 9310   6.287   6.055   7.067
 2327EOH      C 9311   6.288   5.948   7.162
 2327EOH      C 9312   6.162   5.860   7.143
 2327EOH      H 9313   6.281   6.017   6.981
 2328EOH      O 9314   1.379   1.502   7.178
 2328EOH      C 9315   1.338   1.512   7.041
 2328EOH      C 9316   1.390   1.644   6.981
 2328EOH      H 9317   1.472   1.484   7.180
 2329EOH      O 9318   1.845   6.810   3.112
 2329EOH      C 9319   1.866   6.904   3.006
 2329EOH      C 9320   1.832   6.838   2.871
 2329EOH      H 9321   1.752   6.809   3.132
 2330EOH      O 9322   7.213   7.342   1.416
 2330EOH      C 9323   7.282   7.245   1.336
 2330EOH      C 9324   7.180   7.170   1.249
 2330EOH      H 9325   7.179   7.408   1.358
 2331EOH      O 9326   5.662   1.807   6.748
 2331EOH      C 9327   5.690   1.921   6.828
 2331EOH      C 9328   5.580   1.938   6.934
 2331EOH      H 9329   5.653   1.732   6.805
 2332EOH      O 9330   0.100   6.489   3.164
 2332EOH      C 9331   0.065   6.548   3.039
 2332EOH      C 9332   0.186   6.629   2.987
 2332EOH      H 9333   0.131   6.401   3.149
 2333EOH      O 9334   0.005   2.764   2.466
 2333EOH      C 9335   0.076   2.810   2.350
 2333EOH      C 9336   0.071   2.963   2.344
 2333EOH      H 9337   0.049   2.797   2.542
 2334EOH      O 9338   7.272   7.274   0.732
 2334EOH      C 9339   7.296   7.137   0.698
 2334EOH      C 9340   7.179   7.050   0.745
 2334EOH      H 9341   7.182   7.282   0.759
 2335EOH      O 9342   1.300   3.801   7.604
 2335EOH      C 9343   1.357   3.915   7.538
 2335EOH      C 9344   1.498   3.942   7.595
 2335EOH      H 9345   1.340   3.724   7.567
 2336EOH      O 9346   2.150   4.889   5.512
 2336EOH      C 9347   2.027   4.882   5.440
 2336EOH      C 9348   1.935   4.777   5.505
 2336EOH      H 9349   2.196   4.966   5.484
 2337EOH      O 9350   7.490   5.849   7.772
 2337EOH      C 9351   7.535   5.984   7.761
 2337EOH      C 9352   7.536   6.051   7.899
 2337EOH      H 9353   7.551   5.799   7.824
 2338EOH      O 9354   2.765   2.475   0.432
 2338EOH      C 9355   2.757   2.492   0.574
 2338EOH      C 9356   2.707   2.362   0.639
 2338EOH      H 9357   2.831   2.410   0.414
 2339EOH      O 9358   2.646   6.301   4.890
 2339EOH      C 9359   2.712   6.282   5.015
 2339EOH      C 9360   2.761   6.417   5.069
 2339EOH      H 9361   2.569   6.354   4.905
 2340EOH      O 9362   7.885   5.694   2.875
 2340EOH      C 9363   7.749   5.654   2.892
 2340EOH      C 9364   7.675   5.674   2.758
 2340EOH      H 9365   7.918   5.650   2.798
 2341EOH      O 9366   2.106   5.710   2.268
 2341EOH      C 9367   2.223   5.782   2.307
 2341EOH      C 9368   2.234   5.910   2.221
 2341EOH      H 9369   2.033   5.749   2.313
 2342EOH      O 9370   7.662   4.584   7.476
 2342EOH      C 9371   7.788   4.525   7.509
 2342EOH      C 9372   7.895   4.577   7.411
 2342EOH      H 9373   7.666   4.677   7.494
 2343EOH      O 9374   2.402   7.763   2.008
 2343EOH      C 9375   2.513   7.675   2.029
 2343EOH      C 9376   2.642   7.757   2.051
 2343EOH      H 9377   2.397   7.819   2.083
 2344EOH      O 9378   3.622   2.745   6.352
 2344EOH      C 9379   3.545   2.859   6.315
 2344EOH      C 9380   3.606   2.924   6.189
 2344EOH      H 9381   3.608   2.678   6.286
 2345EOH      O 9382   6.160   0.001   1.578
 2345EOH      C 9383   6.248  -0.107   1.545
 2345EOH      C 9384   6.229  -0.221   1.647
 2345EOH      H 9385   6.070  -0.029   1.570
 2346EOH      O 9386   0.475   5.488   0.624
 2346EOH      C 9387   0.406   5.377   0.566
 2346EOH      C 9388   0.506   5.279   0.502
 2346EOH      H 9389   0.507   5.463   0.709
 2347EOH      O 9390   5.796   3.619   1.065
 2347EOH      C 9391   5.907   3.698   1.024
 2347EOH      C 9392   5.899   3.727   0.873
 2347EOH      H 9393   5.718   3.660   1.032
 2348EOH      O 9394   3.129   6.603   6.615
 2348EOH      C 9395   3.082   6.702   6.706
 2348EOH      C 9396   2.928   6.701   6.706
 2348EOH      H 9397   3.114   6.518   6.654
 2349EOH      O 9398   5.990   3.448   3.041
 2349EOH      C 9399   5.997   3.568   2.963
 2349EOH      C 9400   5.978   3.690   3.054
 2349EOH      H 9401   6.061   3.451   3.104
 2350EOH      O 9402   7.103   7.870   7.505
 2350EOH      C 9403   6.960   7.863   7.496
 2350EOH      C 9404   6.906   7.769   7.606
 2350EOH      H 9405   7.125   7.920   7.582
 2351EOH      O 9406   4.338   7.651   2.807
 2351EOH      C 9407   4.287   7.635   2.675
 2351EOH      C 9408   4.188   7.750   2.646
 2351EOH      H 9409   4.374   7.568   2.834
 2352EOH      O 9410   5.562   3.600   7.870
 2352EOH      C 9411   5.581   3.566   7.733
 2352EOH      C 9412   5.647   3.683   7.659
 2352EOH      H 9413   5.647   3.611   7.910
 2353EOH      O 9414   3.533   1.864   7.263
 2353EOH      C 9415   3.535   2.006   7.246
 2353EOH      C 9416   3.394   2.056   7.209
 2353EOH      H 9417   3.532   1.845   7.356
 2354EOH      O 9418   3.469   0.360   2.425
 2354EOH      C 9419   3.524   0.380   2.294
 2354EOH      C 9420   3.438   0.306   2.190
 2354EOH      H 9421   3.375   0.364   2.419
 2355EOH      O 9422   1.996   3.176   0.671
 2355EOH      C 9423   1.903   3.067   0.670
 2355EOH      C 9424   1.793   3.095   0.775
 2355EOH      H 9425   1.958   3.247   0.623
 2356EOH      O 9426   7.213   5.137   7.390
 2356EOH      C 9427   7.318   5.200   7.464
 2356EOH      C 9428   7.326   5.139   7.605
 2356EOH      H 9429   7.249   5.063   7.343
 2357EOH      O 9430   5.044   2.089   1.846
 2357EOH      C 9431   5.135   2.062   1.739
 2357EOH      C 9432   5.277   2.040   1.795
 2357EOH      H 9433   4.957   2.095   1.811
 2358EOH      O 9434   3.853   2.847   1.252
 2358EOH      C 9435   3.793   2.721   1.287
 2358EOH      C 9436   3.872   2.608   1.218
 2358EOH      H 9437   3.831   2.908   1.321
 2359EOH      O 9438   1.796   4.772   2.891
 2359EOH      C 9439   1.864   4.794   2.767
 2359EOH      C 9440   1.885   4.658   2.697
 2359EOH      H 9441   1.704   4.788   2.878
 2360EOH      O 9442   0.966   0.356   5.067
 2360EOH      C 9443   0.914   0.225   5.089
 2360EOH      C 9444   0.907   0.148   4.956
 2360EOH      H 9445   1.059   0.350   5.058
 2361EOH      O 9446   5.149   5.934   1.523
 2361EOH      C 9447   5.287   5.911   1.552
 2361EOH      C 9448   5.335   5.787   1.474
 2361EOH      H 9449   5.142   5.954   1.431
 2362EOH      O 9450   1.920   1.051   5.676
 2362EOH      C 9451   2.021   1.049   5.575
 2362EOH      C 9452   2.154   1.097   5.635
 2362EOH      H 9453   1.943   0.985   5.740
 2363EOH      O 9454   2.101   1.630   5.281
 2363EOH      C 9455   2.077   1.746   5.201
 2363EOH      C 9456   2.183   1.853   5.232
 2363EOH      H 9457   2.162   1.575   5.234
 2364EOH      O 9458   3.179   4.038   4.566
 2364EOH      C 9459   3.052   3.998   4.618
 2364EOH      C 9460   2.947   4.005   4.506
 2364EOH      H 9461   3.195   3.989   4.487
 2365EOH      O 9462   5.626   0.231   7.390
 2365EOH      C 9463   5.551   0.245   7.511
 2365EOH      C 9464   5.490   0.110   7.551
 2365EOH      H 9465   5.699   0.173   7.406
 2366EOH      O 9466   4.633   3.228   5.411
 2366EOH      C 9467   4.495   3.228   5.371
 2366EOH      C 9468   4.411   3.155   5.477
 2366EOH      H 9469   4.674   3.302   5.370
 2367EOH      O 9470   5.733   1.735   7.193
 2367EOH      C 9471   5.737   1.595   7.219
 2367EOH      C 9472   5.806   1.523   7.103
 2367EOH      H 9473   5.822   1.767   7.189
 2368EOH      O 9474   1.999   0.410   1.173
 2368EOH      C 9475   2.075   0.495   1.260
 2368EOH      C 9476   2.205   0.423   1.302
 2368EOH      H 9477   1.915   0.450   1.160
 2369EOH      O 9478   6.320   0.173   5.657
 2369EOH      C 9479   6.215   0.263   5.692
 2369EOH      C 9480   6.172   0.343   5.567
 2369EOH      H 9481   6.287   0.114   5.591
 2370EOH      O 9482   5.750   0.913   4.977
 2370EOH      C 9483   5.741   1.024   5.067
 2370EOH      C 9484   5.678   1.144   4.995
 2370EOH      H 9485   5.662   0.887   4.954
 2371EOH      O 9486   2.224   1.212   5.929
 2371EOH      C 9487   2.276   1.330   5.992
 2371EOH      C 9488   2.169   1.387   6.087
 2371EOH      H 9489   2.215   1.145   5.995
 2372EOH      O 9490   6.285   6.359   2.026
 2372EOH      C 9491   6.277   6.263   2.132
 2372EOH      C 9492   6.306   6.123   2.075
 2372EOH      H 9493   6.376   6.371   2.005
 2373EOH      O 9494   6.373   7.440   7.201
 2373EOH      C 9495   6.333   7.577   7.196
 2373EOH      C 9496   6.409   7.647   7.082
 2373EOH      H 9497   6.324   7.392   7.136
 2374EOH      O 9498   7.869   2.869   3.719
 2374EOH      C 9499   7.742   2.896   3.777
 2374EOH      C 9500   7.747   2.877   3.930
 2374EOH      H 9501   7.911   2.950   3.698
 2375EOH      O 9502   5.894   3.969   6.031
 2375EOH      C 9503   5.947   4.094   6.077
 2375EOH      C 9504   5.941   4.198   5.964
 2375EOH      H 9505   5.822   3.989   5.973
 2376EOH      O 9506   6.740   1.032   5.103
 2376EOH      C 9507   6.628   1.021   5.015
 2376EOH      C 9508   6.579   0.875   5.009
 2376EOH      H 9509   6.715   0.997   5.187
 2377EOH      O 9510   2.692   2.762   1.240
 2377EOH      C 9511   2.725   2.885   1.175
 2377EOH      C 9512   2.744   2.995   1.281
 2377EOH      H 9513   2.767   2.734   1.290
 2378EOH      O 9514   3.027   7.283   0.857
 2378EOH      C 9515   3.130   7.291   0.759
 2378EOH      C 9516   3.260   7.231   0.815
 2378EOH      H 9517   3.007   7.191   0.870
 2379EOH      O 9518   6.125   1.516   3.481
 2379EOH      C 9519   6.231   1.486   3.389
 2379EOH      C 9520   6.326   1.607   3.379
 2379EOH      H 9521   6.126   1.451   3.549
 2380EOH      O 9522   2.236   0.636   1.606
 2380EOH      C 9523   2.179   0.568   1.719
 2380EOH      C 9524   2.046   0.503   1.677
 2380EOH      H 9525   2.294   0.576   1.562
 2381EOH      O 9526   0.823   4.910   3.076
 2381EOH      C 9527   0.847   4.941   2.939
 2381EOH      C 9528   0.867   5.093   2.924
 2381EOH      H 9529   0.907   4.904   3.120
 2382EOH      O 9530   6.574   3.069   7.807
 2382EOH      C 9531   6.602   2.984   7.920
 2382EOH      C 9532   6.753   2.989   7.949
 2382EOH      H 9533   6.484   3.098   7.816
 2383EOH      O 9534   3.380   5.962   1.149
 2383EOH      C 9535   3.312   6.087   1.171
 2383EOH      C 9536   3.388   6.163   1.280
 2383EOH      H 9537   3.473   5.977   1.156
 2384EOH      O 9538   5.401   1.566   4.643
 2384EOH      C 9539   5.293   1.589   4.553
 2384EOH      C 9540   5.286   1.740   4.522
 2384EOH      H 9541   5.481   1.599   4.605
 2385EOH      O 9542   0.679   0.403   7.043
 2385EOH      C 9543   0.712   0.276   6.987
 2385EOH      C 9544   0.586   0.215   6.924
 2385EOH      H 9545   0.759   0.451   7.061
 2386EOH      O 9546   6.456   3.416   4.428
 2386EOH      C 9547   6.537   3.520   4.483
 2386EOH      C 9548   6.607   3.595   4.368
 2386EOH      H 9549   6.406   3.452   4.356
 2387EOH      O 9550   4.562   3.375   4.037
 2387EOH      C 9551   4.611   3.315   3.917
 2387EOH      C 9552   4.511   3.341   3.802
 2387EOH      H 9553   4.607   3.458   4.047
 2388EOH      O 9554   3.965   2.939   3.360
 2388EOH      C 9555   3.937   2.871   3.237
 2388EOH      C 9556   3.958   2.968   3.119
 2388EOH      H 9557   4.040   2.897   3.401
 2389EOH      O 9558   5.104   2.024   4.517
 2389EOH      C 9559   5.071   2.065   4.649
 2389EOH      C 9560   4.985   1.957   4.717
 2389EOH      H 9561   5.141   1.937   4.521
 2390EOH      O 9562   0.519   1.747   4.221
 2390EOH      C 9563   0.439   1.850   4.279
 2390EOH      C 9564   0.290   1.810   4.283
 2390EOH      H 9565   0.609   1.777   4.224
 2391EOH      O 9566   6.785   0.176   1.708
 2391EOH      C 9567   6.737   0.249   1.595
 2391EOH      C 9568   6.768   0.170   1.466
 2391EOH      H 9569   6.710   0.134   1.749
 2392EOH      O 9570   5.145   2.503   4.624
 2392EOH      C 9571   5.205   2.525   4.496
 2392EOH      C 9572   5.106   2.487   4.385
 2392EOH      H 9573   5.072   2.562   4.633
 2393EOH      O 9574   0.368   3.691   1.742
 2393EOH      C 9575   0.345   3.802   1.655
 2393EOH      C 9576   0.267   3.912   1.730
 2393EOH      H 9577   0.420   3.628   1.694
 2394EOH      O 9578   4.494   1.103   6.516
 2394EOH      C 9579   4.554   1.202   6.600
 2394EOH      C 9580   4.457   1.321   6.616
 2394EOH      H 9581   4.414   1.074   6.556
 2395EOH      O 9582   2.777   3.697   0.793
 2395EOH      C 9583   2.647   3.755   0.806
 2395EOH      C 9584   2.593   3.732   0.948
 2395EOH      H 9585   2.834   3.746   0.850
 2396EOH      O 9586   2.527   6.520   1.040
 2396EOH      C 9587   2.438   6.630   1.020
 2396EOH      C 9588   2.511   6.742   0.944
 2396EOH      H 9589   2.548   6.483   0.955
 2397EOH      O 9590   3.477   3.467   3.026
 2397EOH      C 9591   3.521   3.586   2.960
 2397EOH      C 9592   3.632   3.651   3.044
 2397EOH      H 9593   3.435   3.411   2.962
 2398EOH      O 9594   0.518   1.609   5.734
 2398EOH      C 9595   0.504   1.690   5.617
 2398EOH      C 9596   0.512   1.601   5.492
 2398EOH      H 9597   0.436   1.564   5.748
 2399EOH      O 9598   1.500   5.439   2.042
 2399EOH      C 9599   1.430   5.506   2.148
 2399EOH      C 9600   1.284   5.527   2.106
 2399EOH      H 9601   1.593   5.446   2.060
 2400EOH      O 9602   5.999   1.012   0.785
 2400EOH      C 9603   5.877   0.949   0.744
 2400EOH      C 9604   5.909   0.813   0.680
 2400EOH      H 9605   6.043   0.954   0.845
 2401EOH      O 9606   3.499   6.786   1.485
 2401EOH      C 9607   3.587   6.887   1.537
 2401EOH      C 9608   3.530   7.025   1.501
 2401EOH      H 9609   3.414   6.794   1.526
 2402EOH      O 9610   3.477   5.183   2.886
 2402EOH      C 9611   3.526   5.270   2.988
 2402EOH      C 9612   3.641   5.355   2.932
 2402EOH      H 9613   3.444   5.236   2.815
 2403EOH      O 9614   3.478   3.207   0.285
 2403EOH      C 9615   3.478   3.280   0.408
 2403EOH      C 9616   3.342   3.265   0.478
 2403EOH      H 9617   3.482   3.272   0.216
 2404EOH      O 9618   2.713   0.412   2.169
 2404EOH      C 9619   2.583   0.460   2.136
 2404EOH      C 9620   2.484   0.425   2.249
 2404EOH      H 9621   2.746   0.465   2.240
 2405EOH      O 9622   5.017   2.539   5.954
 2405EOH      C 9623   5.044   2.667   6.011
 2405EOH      C 9624   5.018   2.777   5.907
 2405EOH      H 9625   4.924   2.522   5.958
 2406EOH      O 9626   7.067   4.669   0.365
 2406EOH      C 9627   7.090   4.667   0.506
 2406EOH      C 9628   7.139   4.528   0.549
 2406EOH      H 9629   7.145   4.635   0.324
 2407EOH      O 9630   7.296   4.562   1.658
 2407EOH      C 9631   7.295   4.683   1.582
 2407EOH      C 9632   7.321   4.803   1.674
 2407EOH      H 9633   7.386   4.540   1.676
 2408EOH      O 9634   1.970   0.963   2.485
 2408EOH      C 9635   1.901   0.941   2.362
 2408EOH      C 9636   1.750   0.960   2.382
 2408EOH      H 9637   1.968   1.056   2.503
 2409EOH      O 9638   3.300   7.254   3.305
 2409EOH      C 9639   3.280   7.263   3.446
 2409EOH      C 9640   3.129   7.265   3.476
 2409EOH      H 9641   3.280   7.165   3.280
 2410EOH      O 9642   0.912   4.851   5.309
 2410EOH      C 9643   0.964   4.933   5.414
 2410EOH      C 9644   0.848   5.003   5.488
 2410EOH      H 9645   0.890   4.767   5.347
 2411EOH      O 9646   0.915   3.467   7.747
 2411EOH      C 9647   0.901   3.562   7.853
 2411EOH      C 9648   0.930   3.494   7.987
 2411EOH      H 9649   1.006   3.445   7.739
 2412EOH      O 9650   5.033   7.778   6.395
 2412EOH      C 9651   5.136   7.724   6.479
 2412EOH      C 9652   5.081   7.602   6.555
 2412EOH      H 9653   5.073   7.839   6.335
 2413EOH      O 9654   1.169   0.125   6.568
 2413EOH      C 9655   1.044   0.167   6.513
 2413EOH      C 9656   0.977   0.267   6.609
 2413EOH      H 9657   1.233   0.193   6.553
 2414EOH      O 9658   6.205   4.467   0.581
 2414EOH      C 9659   6.125   4.575   0.631
 2414EOH      C 9660   6.112   4.683   0.522
 2414EOH      H 9661   6.156   4.420   0.515
 2415EOH      O 9662   1.728   5.668   6.757
 2415EOH      C 9663   1.589   5.664   6.722
 2415EOH      C 9664   1.561   5.537   6.639
 2415EOH      H 9665   1.747   5.598   6.818
 2416EOH      O 9666   4.584   7.623   1.822
 2416EOH      C 9667   4.611   7.761   1.845
 2416EOH      C 9668   4.600   7.795   1.995
 2416EOH      H 9669   4.502   7.618   1.776
 2417EOH      O 9670   5.310   7.288   6.236
 2417EOH      C 9671   5.328   7.429   6.253
 2417EOH      C 9672   5.220   7.506   6.177
 2417EOH      H 9673   5.251   7.258   6.303
 2418EOH      O 9674   7.068   2.947   4.512
 2418EOH      C 9675   7.037   3.087   4.505
 2418EOH      C 9676   7.161   3.171   4.538
 2418EOH      H 9677   7.151   2.934   4.469
 2419EOH      O 9678   1.890   1.463   6.294
 2419EOH      C 9679   1.967   1.473   6.414
 2419EOH      C 9680   2.055   1.599   6.407
 2419EOH      H 9681   1.823   1.529   6.297
 2420EOH      O 9682   5.448   5.239   1.197
 2420EOH      C 9683   5.556   5.194   1.114
 2420EOH      C 9684   5.648   5.314   1.082
 2420EOH      H 9685   5.486   5.269   1.278
 2421EOH      O 9686   3.903   2.658   0.162
 2421EOH      C 9687   3.842   2.771   0.099
 2421EOH      C 9688   3.875   2.899   0.178
 2421EOH      H 9689   3.993   2.680   0.182
 2422EOH      O 9690   0.709   4.264   5.297
 2422EOH      C 9691   0.684   4.362   5.397
 2422EOH      C 9692   0.804   4.457   5.408
 2422EOH      H 9693   0.661   4.285   5.218
 2423EOH      O 9694   7.458   7.883   6.952
 2423EOH      C 9695   7.358   7.964   6.889
 2423EOH      C 9696   7.276   8.034   6.999
 2423EOH      H 9697   7.483   7.927   7.031
 2424EOH      O 9698   5.071   0.140   3.600
 2424EOH      C 9699   4.943   0.182   3.650
 2424EOH      C 9700   4.831   0.103   3.579
 2424EOH      H 9701   5.087   0.052   3.628
 2425EOH      O 9702   2.552   0.342   2.750
 2425EOH      C 9703   2.628   0.238   2.811
 2425EOH      C 9704   2.548   0.107   2.806
 2425EOH      H 9705   2.610   0.415   2.732
 2426EOH      O 9706   1.597   1.373   4.863
 2426EOH      C 9707   1.705   1.286   4.898
 2426EOH      C 9708   1.754   1.213   4.771
 2426EOH      H 9709   1.634   1.447   4.817
 2427EOH      O 9710   6.410   0.990   2.343
 2427EOH      C 9711   6.485   0.954   2.227
 2427EOH      C 9712   6.622   1.025   2.232
 2427EOH      H 9713   6.448   0.945   2.417
 2428EOH      O 9714   0.220   3.260   2.182
 2428EOH      C 9715   0.327   3.346   2.144
 2428EOH      C 9716   0.454   3.311   2.223
 2428EOH      H 9717   0.160   3.254   2.110
 2429EOH      O 9718   2.232   4.127   7.348
 2429EOH      C 9719   2.304   4.123   7.225
 2429EOH      C 9720   2.374   4.259   7.202
 2429EOH      H 9721   2.294   4.133   7.419
 2430EOH      O 9722   2.884   6.152   6.833
 2430EOH      C 9723   2.769   6.091   6.774
 2430EOH      C 9724   2.656   6.084   6.878
 2430EOH      H 9725   2.952   6.153   6.767
 2431EOH      O 9726   6.692   5.151   4.353
 2431EOH      C 9727   6.560   5.150   4.298
 2431EOH      C 9728   6.481   5.031   4.356
 2431EOH      H 9729   6.687   5.190   4.440
 2432EOH      O 9730   1.581   6.472   3.351
 2432EOH      C 9731   1.709   6.410   3.364
 2432EOH      C 9732   1.692   6.278   3.442
 2432EOH      H 9733   1.527   6.411   3.303
 2433EOH      O 9734   5.490   3.034   2.008
 2433EOH      C 9735   5.407   3.057   1.894
 2433EOH      C 9736   5.488   3.129   1.785
 2433EOH      H 9737   5.549   2.962   1.989
 2434EOH      O 9738   1.924   1.946   3.898
 2434EOH      C 9739   1.961   2.074   3.951
 2434EOH      C 9740   1.848   2.124   4.044
 2434EOH      H 9741   1.933   1.883   3.968
 2435EOH      O 9742   7.455   4.644   3.704
 2435EOH      C 9743   7.406   4.519   3.755
 2435EOH      C 9744   7.294   4.547   3.857
 2435EOH      H 9745   7.517   4.624   3.635
 2436EOH      O 9746   7.839   0.967   3.278
 2436EOH      C 9747   7.819   1.047   3.161
 2436EOH      C 9748   7.844   1.194   3.199
 2436EOH      H 9749   7.926   0.982   3.310
 2437EOH      O 9750   3.397   0.486   2.845
 2437EOH      C 9751   3.370   0.626   2.854
 2437EOH      C 9752   3.251   0.661   2.763
 2437EOH      H 9753   3.320   0.440   2.876
 2438EOH      O 9754   5.283   1.558   2.467
 2438EOH      C 9755   5.409   1.607   2.513
 2438EOH      C 9756   5.520   1.559   2.418
 2438EOH      H 9757   5.227   1.632   2.449
 2439EOH      O 9758   3.270   6.773   4.336
 2439EOH      C 9759   3.255   6.840   4.462
 2439EOH      C 9760   3.106   6.857   4.496
 2439EOH      H 9761   3.359   6.742   4.332
 2440EOH      O 9762   6.512   2.522   0.627
 2440EOH      C 9763   6.471   2.400   0.689
 2440EOH      C 9764   6.341   2.425   0.768
 2440EOH      H 9765   6.456   2.539   0.553
 2441EOH      O 9766   3.188   5.137   4.381
 2441EOH      C 9767   3.176   5.036   4.482
 2441EOH      C 9768   3.172   4.897   4.415
 2441EOH      H 9769   3.161   5.218   4.420
 2442EOH      O 9770   6.106   6.942   1.538
 2442EOH      C 9771   5.993   6.998   1.605
 2442EOH      C 9772   5.864   6.936   1.549
 2442EOH      H 9773   6.179   6.942   1.599
 2443EOH      O 9774   1.952   3.120   3.566
 2443EOH      C 9775   2.027   3.038   3.476
 2443EOH      C 9776   2.100   2.926   3.553
 2443EOH      H 9777   1.904   3.063   3.625
 2444EOH      O 9778   1.647   4.477   1.697
 2444EOH      C 9779   1.673   4.439   1.562
 2444EOH      C 9780   1.643   4.558   1.469
 2444EOH      H 9781   1.712   4.540   1.723
 2445EOH      O 9782   2.364   3.277   1.993
 2445EOH      C 9783   2.337   3.141   1.961
 2445EOH      C 9784   2.279   3.070   2.084
 2445EOH      H 9785   2.282   3.319   2.015
 2446EOH      O 9786   0.118   3.939   5.080
 2446EOH      C 9787   0.218   3.847   5.124
 2446EOH      C 9788   0.266   3.887   5.265
 2446EOH      H 9789   0.033   3.902   5.101
 2447EOH      O 9790   6.058   3.150   3.716
 2447EOH      C 9791   5.930   3.191   3.765
 2447EOH      C 9792   5.938   3.337   3.813
 2447EOH      H 9793   6.056   3.058   3.698
 2448EOH      O 9794   4.295   4.949   6.642
 2448EOH      C 9795   4.405   4.929   6.732
 2448EOH      C 9796   4.407   5.044   6.835
 2448EOH      H 9797   4.297   4.882   6.576
 2449EOH      O 9798   2.576   2.310   5.898
 2449EOH      C 9799   2.496   2.381   5.803
 2449EOH      C 9800   2.585   2.423   5.684
 2449EOH      H 9801   2.618   2.238   5.854
 2450EOH      O 9802   0.923   4.805   7.618
 2450EOH      C 9803   1.055   4.835   7.572
 2450EOH      C 9804   1.154   4.841   7.690
 2450EOH      H 9805   0.930   4.730   7.676
 2451EOH      O 9806   1.136   6.658   3.760
 2451EOH      C 9807   1.269   6.628   3.715
 2451EOH      C 9808   1.313   6.492   3.772
 2451EOH      H 9809   1.076   6.597   3.719
 2452EOH      O 9810   1.954   1.714   2.182
 2452EOH      C 9811   1.997   1.847   2.154
 2452EOH      C 9812   1.885   1.923   2.081
 2452EOH      H 9813   1.894   1.718   2.255
 2453EOH      O 9814   4.215   7.521   5.978
 2453EOH      C 9815   4.328   7.453   5.923
 2453EOH      C 9816   4.374   7.526   5.795
 2453EOH      H 9817   4.246   7.596   6.025
 2454EOH      O 9818   7.601   2.502   7.706
 2454EOH      C 9819   7.734   2.553   7.708
 2454EOH      C 9820   7.734   2.694   7.646
 2454EOH      H 9821   7.545   2.570   7.671
 2455EOH      O 9822   5.731   2.298   1.500
 2455EOH      C 9823   5.629   2.198   1.496
 2455EOH      C 9824   5.661   2.095   1.386
 2455EOH      H 9825   5.806   2.262   1.545
 2456EOH      O 9826   6.341   1.416   6.062
 2456EOH      C 9827   6.448   1.471   6.140
 2456EOH      C 9828   6.541   1.554   6.050
 2456EOH      H 9829   6.291   1.489   6.026
 2457EOH      O 9830   7.748   5.305   1.426
 2457EOH      C 9831   7.790   5.432   1.478
 2457EOH      C 9832   7.806   5.532   1.362
 2457EOH      H 9833   7.663   5.318   1.387
 2458EOH      O 9834   1.427   3.839   6.879
 2458EOH      C 9835   1.331   3.939   6.912
 2458EOH      C 9836   1.397   4.044   7.003
 2458EOH      H 9837   1.402   3.800   6.797
 2459EOH      O 9838   0.862   4.037   3.165
 2459EOH      C 9839   0.731   3.981   3.158
 2459EOH      C 9840   0.740   3.830   3.185
 2459EOH      H 9841   0.884   4.047   3.257
 2460EOH      O 9842   2.158   7.723   1.945
 2460EOH      C 9843   2.114   7.821   1.851
 2460EOH      C 9844   1.967   7.860   1.876
 2460EOH      H 9845   2.250   7.735   1.958
 2461EOH      O 9846   5.981   4.323   3.990
 2461EOH      C 9847   6.104   4.355   3.924
 2461EOH      C 9848   6.221   4.333   4.022
 2461EOH      H 9849   5.990   4.235   4.026
 2462EOH      O 9850   5.639   2.402   0.536
 2462EOH      C 9851   5.601   2.474   0.418
 2462EOH      C 9852   5.447   2.480   0.411
 2462EOH      H 9853   5.613   2.452   0.611
 2463EOH      O 9854   4.608   5.137   4.102
 2463EOH      C 9855   4.589   4.995   4.095
 2463EOH      C 9856   4.564   4.939   4.236
 2463EOH      H 9857   4.533   5.175   4.143
 2464EOH      O 9858   3.074   4.519   6.884
 2464EOH      C 9859   3.089   4.646   6.948
 2464EOH      C 9860   3.235   4.692   6.937
 2464EOH      H 9861   3.079   4.533   6.791
 2465EOH      O 9862   4.498   4.252   6.473
 2465EOH      C 9863   4.453   4.360   6.555
 2465EOH      C 9864   4.311   4.401   6.513
 2465EOH      H 9865   4.433   4.183   6.477
 2466EOH      O 9866   5.887   0.364   3.386
 2466EOH      C 9867   5.845   0.399   3.254
 2466EOH      C 9868   5.962   0.464   3.179
 2466EOH      H 9869   5.966   0.312   3.376
 2467EOH      O 9870   0.901   4.419   0.704
 2467EOH      C 9871   0.796   4.478   0.781
 2467EOH      C 9872   0.838   4.479   0.929
 2467EOH      H 9873   0.981   4.429   0.754
 2468EOH      O 9874   4.164   6.566   5.427
 2468EOH      C 9875   4.209   6.544   5.561
 2468EOH      C 9876   4.292   6.414   5.568
 2468EOH      H 9877   4.123   6.651   5.424
 2469EOH      O 9878   2.641   3.920   2.508
 2469EOH      C 9879   2.586   4.025   2.428
 2469EOH      C 9880   2.537   4.138   2.521
 2469EOH      H 9881   2.699   3.869   2.453
 2470EOH      O 9882   0.421   1.199   5.386
 2470EOH      C 9883   0.287   1.249   5.395
 2470EOH      C 9884   0.272   1.372   5.303
 2470EOH      H 9885   0.434   1.164   5.299
 2471EOH      O 9886   6.438   3.896   3.867
 2471EOH      C 9887   6.470   4.034   3.849
 2471EOH      C 9888   6.576   4.077   3.952
 2471EOH      H 9889   6.512   3.847   3.834
 2472EOH      O 9890   2.058   5.874   2.594
 2472EOH      C 9891   2.097   5.807   2.714
 2472EOH      C 9892   2.101   5.907   2.830
 2472EOH      H 9893   1.977   5.919   2.613
 2473EOH      O 9894   4.960   2.161   7.816
 2473EOH      C 9895   4.973   2.026   7.772
 2473EOH      C 9896   4.993   1.933   7.893
 2473EOH      H 9897   4.885   2.165   7.874
 2474EOH      O 9898   4.016   5.151   2.710
 2474EOH      C 9899   4.014   5.010   2.734
 2474EOH      C 9900   4.037   4.933   2.603
 2474EOH      H 9901   4.105   5.180   2.714
 2475EOH      O 9902   2.900   2.419   7.265
 2475EOH      C 9903   2.877   2.448   7.403
 2475EOH      C 9904   2.944   2.342   7.492
 2475EOH      H 9905   2.993   2.417   7.249
 2476EOH      O 9906   0.405   1.290   6.512
 2476EOH      C 9907   0.546   1.277   6.491
 2476EOH      C 9908   0.616   1.235   6.622
 2476EOH      H 9909   0.368   1.205   6.527
 2477EOH      O 9910   0.239   1.599   1.609
 2477EOH      C 9911   0.216   1.705   1.703
 2477EOH      C 9912   0.308   1.683   1.825
 2477EOH      H 9913   0.314   1.621   1.556
 2478EOH      O 9914   3.376   6.393   7.107
 2478EOH      C 9915   3.413   6.256   7.123
 2478EOH      C 9916   3.460   6.199   6.988
 2478EOH      H 9917   3.450   6.438   7.069
 2479EOH      O 9918   4.431   3.424   7.324
 2479EOH      C 9919   4.514   3.358   7.228
 2479EOH      C 9920   4.475   3.406   7.087
 2479EOH      H 9921   4.479   3.499   7.357
 2480EOH      O 9922   7.122   1.607   7.056
 2480EOH      C 9923   7.241   1.547   7.005
 2480EOH      C 9924   7.320   1.651   6.923
 2480EOH      H 9925   7.146   1.663   7.128
 2481EOH      O 9926   4.461   1.454   1.934
 2481EOH      C 9927   4.386   1.431   1.815
 2481EOH      C 9928   4.339   1.284   1.811
 2481EOH      H 9929   4.469   1.547   1.947
 2482EOH      O 9930   1.625   4.765   7.464
 2482EOH      C 9931   1.507   4.832   7.420
 2482EOH      C 9932   1.508   4.847   7.267
 2482EOH      H 9933   1.615   4.673   7.444
 2483EOH      O 9934   5.826   4.980   5.191
 2483EOH      C 9935   5.924   4.900   5.257
 2483EOH      C 9936   6.057   4.912   5.180
 2483EOH      H 9937   5.778   5.030   5.256
 2484EOH      O 9938   0.085   4.555   5.122
 2484EOH      C 9939   0.108   4.414   5.119
 2484EOH      C 9940   0.248   4.387   5.059
 2484EOH      H 9941   0.155   4.596   5.170
 2485EOH      O 9942   6.895   1.308   0.239
 2485EOH      C 9943   7.021   1.287   0.303
 2485EOH      C 9944   7.133   1.347   0.216
 2485EOH      H 9945   6.882   1.401   0.229
 2486EOH      O 9946   1.350   7.739   2.085
 2486EOH      C 9947   1.293   7.846   2.008
 2486EOH      C 9948   1.212   7.787   1.891
 2486EOH      H 9949   1.279   7.688   2.122
 2487EOH      O 9950   3.761   3.323   7.464
 2487EOH      C 9951   3.699   3.226   7.549
 2487EOH      C 9952   3.715   3.086   7.487
 2487EOH      H 9953   3.850   3.334   7.494
 2488EOH      O 9954   3.379   3.413   6.516
 2488EOH      C 9955   3.351   3.275   6.541
 2488EOH      C 9956   3.465   3.189   6.483
 2488EOH      H 9957   3.459   3.435   6.561
 2489EOH      O 9958   0.252   5.685   6.651
 2489EOH      C 9959   0.125   5.728   6.601
 2489EOH      C 9960   0.056   5.817   6.706
 2489EOH      H 9961   0.310   5.759   6.654
 2490EOH      O 9962   1.201   2.368   2.501
 2490EOH      C 9963   1.253   2.370   2.367
 2490EOH      C 9964   1.173   2.274   2.278
 2490EOH      H 9965   1.109   2.386   2.496
 2491EOH      O 9966   6.624   5.781   6.800
 2491EOH      C 9967   6.644   5.880   6.902
 2491EOH      C 9968   6.781   5.947   6.882
 2491EOH      H 9969   6.624   5.824   6.716
 2492EOH      O 9970   3.767   4.835   0.663
 2492EOH      C 9971   3.746   4.970   0.622
 2492EOH      C 9972   3.677   5.048   0.735
 2492EOH      H 9973   3.841   4.834   0.722
 2493EOH      O 9974   7.464   2.307   7.784
 2493EOH      C 9975   7.530   2.217   7.874
 2493EOH      C 9976   7.661   2.170   7.808
 2493EOH      H 9977   7.524   2.376   7.761
 2494EOH      O 9978   4.988   5.057   1.866
 2494EOH      C 9979   4.954   5.075   2.003
 2494EOH      C 9980   4.971   4.940   2.077
 2494EOH      H 9981   5.082   5.066   1.857
 2495EOH      O 9982   0.927   0.156   2.249
 2495EOH      C 9983   0.846   0.266   2.207
 2495EOH      C 9984   0.768   0.322   2.327
 2495EOH      H 9985   0.985   0.135   2.177
 2496EOH      O 9986   5.898   1.885   7.567
 2496EOH      C 9987   5.874   1.942   7.696
 2496EOH      C 9988   5.871   2.096   7.685
 2496EOH      H 9989   5.819   1.893   7.516
 2497EOH      O 9990   6.583   4.064   4.969
 2497EOH      C 9991   6.630   4.115   5.094
 2497EOH      C 9992   6.621   4.007   5.203
 2497EOH      H 9993   6.635   3.988   4.948
 2498EOH      O 9994   1.444   0.203   1.381
 2498EOH      C 9995   1.426   0.194   1.239
 2498EOH      C 9996   1.448   0.333   1.178
 2498EOH      H 9997   1.425   0.118   1.419
 2499EOH      O 9998   0.197   5.441   3.816
 2499EOH      C 9999   0.140   5.322   3.869
 2499EOH      C10000   0.029   5.273   3.773
 2499EOH      H10001   0.291   5.433   3.826
 2500EOH      O10002   4.037   7.639   1.572
 2500EOH      C10003   4.141   7.600   1.482
 2500EOH      C10004   4.157   7.447   1.487
 2500EOH      H10005   4.034   7.733   1.576
 2501EOH      O10006   5.621   2.490   7.853
 2501EOH      C10007   5.755   2.524   7.818
 2501EOH      C10008   5.853   2.446   7.909
 2501EOH      H10009   5.605   2.401   7.826
 2502EOH      O10010   6.166   2.997   4.386
 2502EOH      C10011   6.085   2.906   4.460
 2502EOH      C10012   5.941   2.962   4.468
 2502EOH      H10013   6.254   2.962   4.387
 2503EOH      O10014   4.156   3.057   2.485
 2503EOH      C10015   4.269   3.116   2.550
 2503EOH      C10016   4.229   3.168   2.689
 2503EOH      H10017   4.145   2.970   2.520
 2504EOH      O10018   2.841   3.506   1.091
 2504EOH      C10019   2.959   3.437   1.133
 2504EOH      C10020   2.944   3.396   1.281
 2504EOH      H10021   2.834   3.499   0.997
 2505EOH      O10022   4.751   1.323   5.390
 2505EOH      C10023   4.660   1.217   5.422
 2505EOH      C10024   4.704   1.086   5.356
 2505EOH      H10025   4.816   1.326   5.458
 2506EOH      O10026   0.383   5.492   4.572
 2506EOH      C10027   0.483   5.592   4.590
 2506EOH      C10028   0.463   5.661   4.726
 2506EOH      H10029   0.410   5.414   4.619
 2507EOH      O10030   7.116   2.184   2.727
 2507EOH      C10031   7.022   2.093   2.785
 2507EOH      C10032   7.032   1.956   2.714
 2507EOH      H10033   7.201   2.168   2.767
 2508EOH      O10034   0.488   0.844   1.111
 2508EOH      C10035   0.400   0.954   1.086
 2508EOH      C10036   0.454   1.081   1.154
 2508EOH      H10037   0.531   0.820   1.031
 2509EOH      O10038   3.102   5.368   4.463
 2509EOH      C10039   2.975   5.378   4.397
 2509EOH      C10040   2.907   5.511   4.435
 2509EOH      H10041   3.142   5.453   4.462
 2510EOH      O10042   2.199   0.234   7.868
 2510EOH      C10043   2.281   0.257   7.982
 2510EOH      C10044   2.426   0.287   7.938
 2510EOH      H10045   2.111   0.258   7.891
 2511EOH      O10046   6.006   5.008   7.316
 2511EOH      C10047   6.138   4.962   7.346
 2511EOH      C10048   6.230   4.989   7.224
 2511EOH      H10049   5.964   5.030   7.398
 2512EOH      O10050   5.979   7.347   2.658
 2512EOH      C10051   5.999   7.271   2.539
 2512EOH      C10052   6.148   7.233   2.529
 2512EOH      H10053   5.964   7.288   2.730
 2513EOH      O10054   6.949   3.839   1.695
 2513EOH      C10055   7.073   3.894   1.738
 2513EOH      C10056   7.064   3.931   1.887
 2513EOH      H10057   6.943   3.750   1.727
 2514EOH      O10058   0.089   1.257   4.472
 2514EOH      C10059  -0.023   1.344   4.488
 2514EOH      C10060  -0.106   1.344   4.358
 2514EOH      H10061   0.057   1.168   4.468
 2515EOH      O10062   1.757   4.770   3.796
 2515EOH      C10063   1.636   4.824   3.852
 2515EOH      C10064   1.627   4.784   4.000
 2515EOH      H10065   1.786   4.830   3.729
 2516EOH      O10066   0.602   5.693   5.300
 2516EOH      C10067   0.648   5.796   5.212
 2516EOH      C10068   0.536   5.834   5.114
 2516EOH      H10069   0.557   5.734   5.372
 2517EOH      O10070   0.159   4.699   6.743
 2517EOH      C10071   0.026   4.750   6.734
 2517EOH      C10072  -0.053   4.668   6.631
 2517EOH      H10073   0.201   4.744   6.815
 2518EOH      O10074   0.713   7.261   0.439
 2518EOH      C10075   0.615   7.335   0.512
 2518EOH      C10076   0.479   7.326   0.440
 2518EOH      H10077   0.691   7.170   0.444
 2519EOH      O10078   5.307   3.163   7.074
 2519EOH      C10079   5.448   3.182   7.088
 2519EOH      C10080   5.489   3.315   7.022
 2519EOH      H10081   5.263   3.233   7.119
 2520EOH      O10082   1.601   3.871   0.112
 2520EOH      C10083   1.542   3.760   0.044
 2520EOH      C10084   1.519   3.644   0.142
 2520EOH      H10085   1.534   3.916   0.160
 2521EOH      O10086   1.594   5.129   3.116
 2521EOH      C10087   1.653   5.192   3.230
 2521EOH      C10088   1.601   5.337   3.241
 2521EOH      H10089   1.503   5.113   3.134
 2522EOH      O10090   6.707   4.553   0.796
 2522EOH      C10091   6.606   4.481   0.869
 2522EOH      C10092   6.667   4.425   0.999
 2522EOH      H10093   6.723   4.635   0.840
 2523EOH      O10094   6.924   2.101   1.351
 2523EOH      C10095   7.009   1.986   1.346
 2523EOH      C10096   6.990   1.902   1.474
 2523EOH      H10097   6.836   2.071   1.370
 2524EOH      O10098   1.236   4.490   7.532
 2524EOH      C10099   1.202   4.512   7.395
 2524EOH      C10100   1.052   4.485   7.375
 2524EOH      H10101   1.330   4.498   7.541
 2525EOH      O10102   0.399   1.881   7.388
 2525EOH      C10103   0.300   1.981   7.364
 2525EOH      C10104   0.295   2.080   7.482
 2525EOH      H10105   0.484   1.920   7.370
 2526EOH      O10106   6.751   4.642   3.129
 2526EOH      C10107   6.629   4.608   3.196
 2526EOH      C10108   6.657   4.594   3.347
 2526EOH      H10109   6.772   4.732   3.151
 2527EOH      O10110   5.415   7.180   5.728
 2527EOH      C10111   5.477   7.256   5.832
 2527EOH      C10112   5.596   7.334   5.774
 2527EOH      H10113   5.346   7.231   5.690
 2528EOH      O10114   0.619   3.743   6.987
 2528EOH      C10115   0.752   3.762   6.937
 2528EOH      C10116   0.811   3.625   6.896
 2528EOH      H10117   0.560   3.744   6.914
 2529EOH      O10118   4.097   6.538   4.160
 2529EOH      C10119   4.056   6.605   4.279
 2529EOH      C10120   4.044   6.503   4.394
 2529EOH      H10121   4.187   6.514   4.172
 2530EOH      O10122   0.066   6.712   0.530
 2530EOH      C10123   0.036   6.769   0.658
 2530EOH      C10124   0.138   6.718   0.762
 2530EOH      H10125   0.137   6.760   0.491
 2531EOH      O10126   0.910   2.040   2.284
 2531EOH      C10127   0.816   2.105   2.371
 2531EOH      C10128   0.678   2.039   2.350
 2531EOH      H10129   0.921   1.952   2.316
 2532EOH      O10130   5.557   6.167   0.144
 2532EOH      C10131   5.674   6.243   0.176
 2532EOH      C10132   5.688   6.360   0.076
 2532EOH      H10133   5.482   6.222   0.155
 2533EOH      O10134   1.626   7.171   7.375
 2533EOH      C10135   1.653   7.234   7.249
 2533EOH      C10136   1.780   7.173   7.188
 2533EOH      H10137   1.620   7.078   7.362
 2534EOH      O10138   1.426   2.021   6.517
 2534EOH      C10139   1.390   1.885   6.540
 2534EOH      C10140   1.490   1.820   6.638
 2534EOH      H10141   1.355   2.063   6.470
 2535EOH      O10142   1.881   5.146   5.647
 2535EOH      C10143   1.748   5.093   5.658
 2535EOH      C10144   1.684   5.083   5.519
 2535EOH      H10145   1.923   5.132   5.730
 2536EOH      O10146   0.282   3.041   6.000
 2536EOH      C10147   0.194   3.138   6.058
 2536EOH      C10148   0.102   3.069   6.161
 2536EOH      H10149   0.331   3.000   6.069
 2537EOH      O10150   3.208   7.299   7.267
 2537EOH      C10151   3.151   7.171   7.239
 2537EOH      C10152   3.144   7.088   7.369
 2537EOH      H10153   3.153   7.343   7.331
 2538EOH      O10154   2.882   2.142   5.621
 2538EOH      C10155   2.748   2.094   5.608
 2538EOH      C10156   2.709   2.007   5.728
 2538EOH      H10157   2.898   2.163   5.712
 2539EOH      O10158   2.086   7.452   5.945
 2539EOH      C10159   2.173   7.339   5.951
 2539EOH      C10160   2.213   7.303   5.806
 2539EOH      H10161   2.140   7.528   5.957
 2540EOH      O10162   4.475   2.702   7.264
 2540EOH      C10163   4.485   2.820   7.345
 2540EOH      C10164   4.508   2.778   7.491
 2540EOH      H10165   4.559   2.659   7.263
 2541EOH      O10166   4.874   6.074   2.580
 2541EOH      C10167   4.858   6.078   2.437
 2541EOH      C10168   4.819   5.937   2.387
 2541EOH      H10169   4.883   6.163   2.610
 2542EOH      O10170   2.523   4.267   4.973
 2542EOH      C10171   2.624   4.368   4.979
 2542EOH      C10172   2.560   4.505   5.003
 2542EOH      H10173   2.507   4.235   5.061
 2543EOH      O10174   2.157   6.548   3.675
 2543EOH      C10175   2.016   6.565   3.693
 2543EOH      C10176   1.991   6.651   3.818
 2543EOH      H10177   2.193   6.630   3.646
 2544EOH      O10178   3.059   7.495   4.234
 2544EOH      C10179   2.933   7.563   4.229
 2544EOH      C10180   2.931   7.677   4.332
 2544EOH      H10181   3.080   7.468   4.146
 2545EOH      O10182   2.338   6.320   2.081
 2545EOH      C10183   2.415   6.279   1.968
 2545EOH      C10184   2.407   6.126   1.954
 2545EOH      H10185   2.250   6.287   2.070
 2546EOH      O10186   4.594   0.650   4.772
 2546EOH      C10187   4.556   0.543   4.860
 2546EOH      C10188   4.429   0.475   4.807
 2546EOH      H10189   4.685   0.670   4.789
 2547EOH      O10190   4.498   2.315   5.796
 2547EOH      C10191   4.381   2.345   5.871
 2547EOH      C10192   4.288   2.222   5.867
 2547EOH      H10193   4.574   2.351   5.840
 2548EOH      O10194   4.378   0.412   0.864
 2548EOH      C10195   4.474   0.468   0.954
 2548EOH      C10196   4.554   0.577   0.881
 2548EOH      H10197   4.306   0.473   0.855
 2549EOH      O10198   7.612   4.608   4.221
 2549EOH      C10199   7.679   4.716   4.156
 2549EOH      C10200   7.610   4.747   4.021
 2549EOH      H10201   7.530   4.640   4.257
 2550EOH      O10202   4.768   6.996   3.832
 2550EOH      C10203   4.803   6.906   3.938
 2550EOH      C10204   4.787   6.977   4.074
 2550EOH      H10205   4.676   6.986   3.817
 2551EOH      O10206   7.091   0.281   3.842
 2551EOH      C10207   7.229   0.306   3.870
 2551EOH      C10208   7.296   0.174   3.914
 2551EOH      H10209   7.069   0.318   3.757
 2552EOH      O10210   2.232   7.155   6.294
 2552EOH      C10211   2.229   7.025   6.234
 2552EOH      C10212   2.372   6.984   6.195
 2552EOH      H10213   2.242   7.141   6.387
 2553EOH      O10214   0.012   5.770   4.160
 2553EOH      C10215  -0.063   5.649   4.173
 2553EOH      C10216  -0.209   5.681   4.209
 2553EOH      H10217  -0.025   5.818   4.088
 2554EOH      O10218   4.986   2.639   2.239
 2554EOH      C10219   4.868   2.701   2.292
 2554EOH      C10220   4.907   2.790   2.411
 2554EOH      H10221   5.047   2.707   2.215
 2555EOH      O10222   5.757   7.004   6.140
 2555EOH      C10223   5.638   7.084   6.134
 2555EOH      C10224   5.678   7.232   6.148
 2555EOH      H10225   5.821   7.042   6.082
 2556EOH      O10226   4.109   1.383   4.244
 2556EOH      C10227   3.997   1.471   4.256
 2556EOH      C10228   3.923   1.479   4.121
 2556EOH      H10229   4.079   1.301   4.207
 2557EOH      O10230   6.238   1.621   2.830
 2557EOH      C10231   6.351   1.548   2.877
 2557EOH      C10232   6.304   1.438   2.975
 2557EOH      H10233   6.187   1.565   2.773
 2558EOH      O10234   4.204   2.393   4.826
 2558EOH      C10235   4.071   2.369   4.778
 2558EOH      C10236   3.972   2.388   4.895
 2558EOH      H10237   4.211   2.485   4.848
 2559EOH      O10238   3.839   4.874   7.215
 2559EOH      C10239   3.817   4.754   7.141
 2559EOH      C10240   3.766   4.788   7.000
 2559EOH      H10241   3.915   4.917   7.177
 2560EOH      O10242   0.948   6.332   4.156
 2560EOH      C10243   0.819   6.384   4.124
 2560EOH      C10244   0.774   6.481   4.235
 2560EOH      H10245   1.010   6.402   4.149
 2561EOH      O10246   2.462   1.550   6.189
 2561EOH      C10247   2.520   1.517   6.316
 2561EOH      C10248   2.414   1.452   6.407
 2561EOH      H10249   2.399   1.482   6.170
 2562EOH      O10250   5.479   2.778   6.901
 2562EOH      C10251   5.399   2.687   6.826
 2562EOH      C10252   5.282   2.763   6.760
 2562EOH      H10253   5.515   2.842   6.842
 2563EOH      O10254   3.951   4.568   2.165
 2563EOH      C10255   3.848   4.545   2.261
 2563EOH      C10256   3.811   4.396   2.260
 2563EOH      H10257   4.034   4.572   2.210
 2564EOH      O10258   3.464   0.377   3.730
 2564EOH      C10259   3.435   0.296   3.616
 2564EOH      C10260   3.318   0.201   3.650
 2564EOH      H10261   3.405   0.451   3.730
 2565EOH      O10262   0.571   6.543   3.144
 2565EOH      C10263   0.648   6.662   3.128
 2565EOH      C10264   0.691   6.676   2.981
 2565EOH      H10265   0.485   6.559   3.110
 2566EOH      O10266   0.528   7.795   6.693
 2566EOH      C10267   0.564   7.754   6.825
 2566EOH      C10268   0.717   7.742   6.834
 2566EOH      H10269   0.435   7.815   6.692
 2567EOH      O10270   5.208   1.235   3.882
 2567EOH      C10271   5.254   1.347   3.805
 2567EOH      C10272   5.199   1.336   3.662
 2567EOH      H10273   5.114   1.240   3.888
 2568EOH      O10274   4.707   7.798   2.807
 2568EOH      C10275   4.795   7.905   2.772
 2568EOH      C10276   4.884   7.864   2.653
 2568EOH      H10277   4.622   7.835   2.828
   7.90000   7.90000   7.90000
