Ethanol
10277
    1EOH      O    1   2.981   1.432   2.994  0.0265 -0.2863  0.2739
    1EOH      C    2   2.864   1.383   2.928  0.1210  0.0176 -0.1237
    1EOH      C    3   2.849   1.444   2.788  0.0151  0.4427  0.0722
    1EOH      H    4   3.021   1.373   3.057  0.8133  1.3572  1.3587
    1EOH      H    5   2.778   1.415   2.986  0.9111 -0.3719  1.2990
    1EOH      H    6   2.867   1.274   2.932  3.1986 -0.0029 -1.6206
    1EOH      H    7   2.852   1.553   2.779  0.2883  0.4453  0.1698
    1EOH      H    8   2.761   1.399   2.743  0.7969 -1.6201  0.5690
    1EOH      H    9   2.938   1.418   2.730 -0.8927 -0.2952 -0.9893
    2EOH      O   10   0.971   0.872   3.156  0.3031 -0.0775  0.2570
    2EOH      C   11   0.912   0.756   3.216 -0.1931  0.0041 -0.0682
    2EOH      C   12   1.011   0.702   3.321  0.3635 -0.0305 -0.6068
    2EOH      H   13   0.912   0.902   3.088 -1.1827 -2.0888  0.5875
    3EOH      O   14   0.686   2.930   2.226  0.0582  0.0149  0.3120
    3EOH      C   15   0.641   3.065   2.213  0.5465  0.1297 -0.2226
    3EOH      C   16   0.556   3.083   2.086 -0.0051 -0.0423  0.1184
    3EOH      H   17   0.616   2.889   2.275 -0.9748  1.0801 -0.2388
    4EOH      O   18   0.651   1.911   2.747  0.0757  0.3409 -0.0057
    4EOH      C   19   0.532   1.987   2.726  0.1397  0.3572 -0.3059
    4EOH      C   20   0.498   1.954   2.579 -0.0435 -0.5921 -0.0566
    4EOH      H   21   0.721   1.963   2.784  1.2366 -0.5450 -0.8824
    5EOH      O   22   0.896   1.227   5.980  0.4742 -0.2052 -0.5083
    5EOH      C   23   0.961   1.148   6.079 -0.8510 -0.0690  0.4804
    5EOH      C   24   1.049   1.034   6.025 -0.7929  0.1864  0.0336
    5EOH      H   25   0.855   1.301   6.022  0.9342  0.5023 -1.2708
    6EOH      O   26   5.149   5.816   0.086 -0.8692 -0.2651 -0.0650
    6EOH      C   27   5.205   5.901  -0.015 -0.2049 -0.4059  0.1797
    6EOH      C   28   5.342   5.957   0.028 -0.2371 -0.4501  0.3379
    6EOH      H   29   5.120   5.874   0.154  1.0020 -1.0904  1.4939
    7EOH      O   30   4.125   1.573   0.744  0.1155  0.5852  0.0763
    7EOH      C   31   4.229   1.484   0.783 -0.5279 -0.1141  0.2148
    7EOH      C   32   4.315   1.428   0.669  0.1831  0.3006  0.5440
    7EOH      H   33   4.166   1.635   0.685  0.3952  1.2050  0.9270
    8EOH      O   34   5.148   0.143   1.351 -0.4020 -0.3037 -0.0382
    8EOH      C   35   5.273   0.088   1.395 -0.2523  0.1892  0.1591
    8EOH      C   36   5.286  -0.042   1.312 -0.3921  0.9015 -0.9927
    8EOH      H   37   5.081   0.081   1.375  0.7254 -2.3116 -1.8589
    9EOH      O   38   0.398   2.335   4.143  0.1692 -0.2295 -0.5023
    9EOH      C   39   0.489   2.241   4.200 -0.1983 -0.1450  0.2237
    9EOH      C   40   0.492   2.100   4.137 -0.2957  0.0693 -0.2632
    9EOH      H   41   0.442   2.419   4.150  2.0537 -1.3512  2.1128
   10EOH      O   42   2.556   6.101   1.126 -1.0992  0.2178 -0.5493
   10EOH      C   43   2.497   6.148   1.248  0.3536  0.0672  0.2303
   10EOH      C   44   2.541   6.294   1.269 -0.1595  0.2650 -0.0586
   10EOH      H   45   2.506   6.025   1.104 -1.0138  0.7840 -2.8297
   11EOH      O   46   4.597   0.877   3.063 -0.1491 -0.1458  0.1222
   11EOH      C   47   4.602   1.010   3.115  0.5974  0.0395 -0.4199
   11EOH      C   48   4.598   1.017   3.269  0.1444  0.0454 -0.4315
   11EOH      H   49   4.601   0.876   2.969  1.1898  2.1677  0.1278
   12EOH      O   50   2.741   3.632   0.221  0.3612 -0.2023  0.0497
   12EOH      C   51   2.851   3.547   0.186  0.4343 -0.0539 -0.0778
   12EOH      C   52   2.963   3.529   0.290  0.3266  0.7617  0.1815
   12EOH      H   53   2.751   3.719   0.187 -0.2519  0.1687  0.7972
   13EOH      O   54   2.975   1.789   2.267 -0.1930 -0.5548 -0.6902
   13EOH      C   55   2.841   1.825   2.235 -0.0556  0.1331 -0.5150
   13EOH      C   56   2.744   1.705   2.243 -0.5427  0.5401 -0.3349
   13EOH      H   57   2.982   1.754   2.355  0.4950  0.2189 -0.4278
   14EOH      O   58   4.265   3.656   1.650  0.6317 -0.0529  0.4029
   14EOH      C   59   4.178   3.547   1.620  0.0297  0.6283 -0.3370
   14EOH      C   60   4.031   3.592   1.626 -0.2423 -0.2554 -0.2711
   14EOH      H   61   4.353   3.632   1.627  1.5859  0.0839  3.5598
   15EOH      O   62   0.269   1.236   4.136  0.3938 -0.4150 -0.1259
   15EOH      C   63   0.207   1.114   4.176 -0.1285 -0.0584  0.1508
   15EOH      C   64   0.270   0.980   4.133 -0.2905 -0.1559  0.2161
   15EOH      H   65   0.294   1.289   4.210 -2.7077  3.0556 -1.4214
   16EOH      O   66   3.115   2.417   3.099  0.5018  0.3967  0.2074
   16EOH      C   67   3.237   2.350   3.067  0.1656  0.0047 -0.2467
   16EOH      C   68   3.204   2.238   2.966  0.0006 -0.3563  0.2110
   16EOH      H   69   3.111   2.481   3.030  0.5786  0.5296  0.3241
   17EOH      O   70   3.084   4.545   3.971 -0.1476 -0.7848 -0.2357
   17EOH      C   71   3.210   4.533   4.037  0.3727 -0.6385 -1.1930
   17EOH      C   72   3.237   4.414   4.132 -0.4140  0.3493  0.2810
   17EOH      H   73   3.095   4.531   3.878 -0.3351 -3.1337  0.0801
   18EOH      O   74   2.353   4.013   3.059  0.0704 -0.1651  0.1666
   18EOH      C   75   2.463   4.078   3.123  0.0887 -0.2057  0.1761
   18EOH      C   76   2.535   4.154   3.009 -0.3419  0.1657  0.1485
   18EOH      H   77   2.334   4.060   2.980  1.1826 -0.6960 -0.4233
   19EOH      O   78   1.659   4.648   1.133 -0.4578  0.3590  0.0466
   19EOH      C   79   1.582   4.638   1.254 -0.0997 -0.1406  0.2359
   19EOH      C   80   1.574   4.487   1.283  0.2846 -0.0352  0.8906
   19EOH      H   81   1.602   4.682   1.065 -0.7168 -0.8424 -0.3525
   20EOH      O   82   5.828   1.472   3.742 -0.0193 -0.2059 -0.1066
   20EOH      C   83   5.901   1.591   3.713 -0.5210  0.0962 -0.1378
   20EOH      C   84   5.955   1.639   3.850 -0.3088 -0.1780 -0.1275
   20EOH      H   85   5.813   1.421   3.664 -2.3607 -0.4312  0.4487
   21EOH      O   86   5.875   2.156   5.415  0.2820  0.3425 -0.5756
   21EOH      C   87   5.808   2.148   5.289 -0.7398  0.6121 -0.0565
   21EOH      C   88   5.889   2.216   5.177 -0.2705  0.4579  0.1872
   21EOH      H   89   5.892   2.069   5.447  0.6227  1.0273  1.1345
   22EOH      O   90   0.861   1.865   3.651 -0.4647  0.2154 -0.5507
   22EOH      C   91   0.881   2.007   3.644  0.4581  0.1166  0.0186
   22EOH      C   92   0.797   2.073   3.754  0.1713  0.0462 -0.1580
   22EOH      H   93   0.860   1.840   3.560 -3.9677  2.9637 -1.3604
   23EOH      O   94   6.007   4.294   2.513 -0.3666 -0.6384  0.0594
   23EOH      C   95   5.974   4.414   2.442  0.6315 -0.3794  0.0395
   23EOH      C   96   5.982   4.372   2.294  0.0955  0.2643 -0.1710
   23EOH      H   97   6.041   4.316   2.598  2.7088 -1.0098 -1.0267
   24EOH      O   98   4.836   1.285   2.637 -0.7312  0.6600 -0.2049
   24EOH      C   99   4.759   1.373   2.719  0.0819  0.3428  0.9174
   24EOH      C  100   4.646   1.311   2.804 -0.7762  0.4270 -0.1543
   24EOH      H  101   4.929   1.303   2.645 -0.8443  1.3708 -0.4364
   25EOH      O  102   5.667   0.417   3.528  0.3904  0.5109  0.1802
   25EOH      C  103   5.793   0.365   3.571  0.5005  0.1047 -0.6221
   25EOH      C  104   5.861   0.482   3.646  0.1431 -0.3567  0.4267
   25EOH      H  105   5.613   0.342   3.511  1.2953 -0.7813  2.6888
   26EOH      O  106   5.978   1.995   4.801  0.6021 -0.0850 -0.4019
   26EOH      C  107   5.989   2.137   4.795 -0.3896 -0.0157 -0.6661
   26EOH      C  108   6.089   2.177   4.684  0.3370 -0.0363 -0.0245
   26EOH      H  109   5.973   1.960   4.714  2.6770  1.8100 -1.3263
   27EOH      O  110   1.272   3.783   3.336  0.2379 -0.7713  0.0706
   27EOH      C  111   1.404   3.796   3.282  0.0650 -0.0582 -0.1837
   27EOH      C  112   1.488   3.805   3.411  0.1288  0.5981 -0.2672
   27EOH      H  113   1.251   3.694   3.312 -2.1230  0.8246 -4.6026
   28EOH      O  114   1.458   0.518   1.718  0.0291 -0.3314 -0.3564
   28EOH      C  115   1.396   0.588   1.611 -0.1490  0.2945  0.1563
   28EOH      C  116   1.261   0.529   1.566 -0.2471  0.6815 -0.0650
   28EOH      H  117   1.538   0.565   1.738 -0.8556  0.7478  0.7392
   29EOH      O  118   4.955   3.466   4.910  0.6318 -0.7010  0.6085
   29EOH      C  119   4.958   3.352   4.824  0.3330 -0.2808  0.0399
   29EOH      C  120   4.993   3.396   4.680  0.7367  0.6347  0.4112
   29EOH      H  121   5.040   3.507   4.905  0.5009 -0.1633  2.3455
   30EOH      O  122   0.047   5.138   0.263 -0.3471 -0.1315 -0.1959
   30EOH      C  123  -0.082   5.185   0.302 -0.1625  0.3630 -0.1774
   30EOH      C  124  -0.070   5.247   0.443 -0.0905  0.4671 -0.2290
   30EOH      H  125   0.054   5.146   0.169  2.6835  0.3141  0.0039
   31EOH      O  126   4.084   3.589   0.888  0.4049 -0.1076  0.3501
   31EOH      C  127   4.182   3.560   0.788 -0.0302 -0.3361 -0.0114
   31EOH      C  128   4.252   3.432   0.839  0.4897  0.1272  0.4406
   31EOH      H  129   4.009   3.533   0.874  1.0603 -1.5036  2.1423
   32EOH      O  130   0.689   6.106   6.111 -0.8199 -0.1314 -0.2554
   32EOH      C  131   0.752   5.988   6.059 -0.1210 -0.1365  0.5860
   32EOH      C  132   0.748   6.015   5.907 -0.2389  0.0102  0.6142
   32EOH      H  133   0.744   6.182   6.109 -2.7059  1.2554 -1.1618
   33EOH      O  134   4.967   6.016   1.170 -0.0838 -0.2546 -0.3947
   33EOH      C  135   5.083   6.064   1.102  0.2422 -0.2603  0.1594
   33EOH      C  136   5.080   6.046   0.949  0.2052  0.5681  0.0594
   33EOH      H  137   4.892   6.068   1.142  0.6932  0.2805 -1.5115
   34EOH      O  138   0.428   0.739   1.518  0.1888  0.0470  0.2605
   34EOH      C  139   0.460   0.637   1.423  0.2822  0.4672 -0.1615
   34EOH      C  140   0.609   0.600   1.421  0.0713 -0.3963 -0.2772
   34EOH      H  141   0.395   0.690   1.592 -0.5550 -0.0930 -0.1627
   35EOH      O  142   4.135   5.894   5.636  0.2683  0.3835  0.5821
   35EOH      C  143   4.124   5.761   5.687  0.1015  0.0648 -0.2762
   35EOH      C  144   3.993   5.744   5.766  0.0659 -0.5149 -0.4528
   35EOH      H  145   4.215   5.939   5.657  1.7044 -0.4348 -2.8519
   36EOH      O  146   4.047   2.254   5.694 -0.0731  0.4658 -0.1029
   36EOH      C  147   4.088   2.386   5.654  0.5582  0.1755 -0.4201
   36EOH      C  148   3.963   2.474   5.638 -0.2264 -0.7270  0.6401
   36EOH      H  149   3.967   2.230   5.652  0.4641 -1.3544 -0.1267
   37EOH      O  150   1.962   2.108   0.511  0.2255 -0.0394 -0.2862
   37EOH      C  151   1.822   2.091   0.487  0.2089  0.0281 -0.2393
   37EOH      C  152   1.785   2.146   0.348  0.0966  0.3184 -0.0944
   37EOH      H  153   1.973   2.102   0.605 -0.1280  1.5899 -0.1232
   38EOH      O  154   1.756   3.905   6.063  0.0632  0.0119 -0.4612
   38EOH      C  155   1.733   3.764   6.060  0.0015  0.0046  0.3382
   38EOH      C  156   1.859   3.679   6.037  0.2484  0.4399  0.0695
   38EOH      H  157   1.795   3.932   5.981 -0.1659  1.1886 -0.1987
   39EOH      O  158   1.869   1.554   4.003 -0.1056  0.3698  1.0507
   39EOH      C  159   2.006   1.553   4.043  0.1853 -0.1676  0.0635
   39EOH      C  160   2.057   1.416   3.994 -0.1175 -0.0092 -0.7066
   39EOH      H  161   1.829   1.492   4.063  1.8546 -2.0136 -0.0145
   40EOH      O  162   1.346   2.839   0.709  0.0866 -0.3570  0.4562
   40EOH      C  163   1.457   2.798   0.629 -0.2011 -0.4900  0.1220
   40EOH      C  164   1.584   2.821   0.713 -0.2150  0.0426 -0.0003
   40EOH      H  165   1.280   2.867   0.647  1.7840  0.3606 -1.0711
   41EOH      O  166   6.201   3.500   0.811 -0.2623  0.2999 -0.1607
   41EOH      C  167   6.202   3.568   0.937  0.0627  0.1691 -0.0925
   41EOH      C  168   6.327   3.534   1.021 -0.1478 -0.2408  0.0553
   41EOH      H  169   6.226   3.565   0.748  0.5861 -0.3020 -0.4463
   42EOH      O  170   1.233   4.047   0.130 -0.2976 -0.3211 -0.2224
   42EOH      C  171   1.131   4.140   0.091  0.0997  0.0903 -0.2856
   42EOH      C  172   1.007   4.105   0.175  0.1339  0.5333 -0.0492
   42EOH      H  173   1.228   3.986   0.058 -1.0894  0.2853 -0.6886
   43EOH      O  174   3.752   0.248   5.171  0.1161 -0.0204 -0.0630
   43EOH      C  175   3.733   0.107   5.153 -0.3347 -0.0500  0.6040
   43EOH      C  176   3.614   0.110   5.056 -0.2202  0.1462  0.4696
   43EOH      H  177   3.832   0.262   5.218  0.6802 -1.4417 -0.5563
   44EOH      O  178   4.017   4.247   4.002  0.2374  0.5673  0.2341
   44EOH      C  179   3.918   4.159   4.055  0.6176  0.1386  0.2301
   44EOH      C  180   3.874   4.203   4.196 -0.6822  0.0050 -0.1243
   44EOH      H  181   3.966   4.319   3.966 -2.2359 -0.9456  0.5912
   45EOH      O  182   5.035   1.182   1.856  0.0452 -0.1383  0.0268
   45EOH      C  183   5.072   1.112   1.976  0.1479 -0.0521  0.0451
   45EOH      C  184   5.190   1.187   2.042  0.0396 -0.2228  0.4338
   45EOH      H  185   4.996   1.117   1.799 -0.7015 -0.0844  0.4610
   46EOH      O  186   0.179   2.618   6.238 -0.0470 -0.5055  0.0218
   46EOH      C  187   0.222   2.564   6.364  0.3234 -0.1128  0.0650
   46EOH      C  188   0.331   2.656   6.420  0.3371 -0.1626  0.1199
   46EOH      H  189   0.131   2.545   6.201  1.2795 -0.8072 -1.1380
   47EOH      O  190   1.344   1.372   6.083  0.3521 -0.0334  0.1204
   47EOH      C  191   1.216   1.432   6.063  0.3578 -0.2235 -0.4826
   47EOH      C  192   1.209   1.568   6.134  0.1858 -0.5994  0.2189
   47EOH      H  193   1.338   1.278   6.069 -3.0258 -0.0484  1.2001
   48EOH      O  194   4.603   3.812   2.418  0.0201 -0.0755  0.2380
   48EOH      C  195   4.556   3.807   2.283 -0.0918  0.3201  0.2632
   48EOH      C  196   4.449   3.918   2.272 -0.3154  0.0925  0.1197
   48EOH      H  197   4.676   3.752   2.424  1.2701  1.4434  0.2758
   49EOH      O  198   3.504   2.537   1.501 -0.0564  0.4592 -0.4442
   49EOH      C  199   3.381   2.611   1.503 -0.1594  0.3027 -0.9668
   49EOH      C  200   3.439   2.753   1.511 -0.3019  0.3399 -0.6075
   49EOH      H  201   3.509   2.488   1.582 -0.2768 -0.1116 -0.7760
   50EOH      O  202   6.078   4.529   0.696  0.3255 -0.2622 -0.2898
   50EOH      C  203   6.006   4.567   0.578 -0.6831 -0.1331  0.3646
   50EOH      C  204   6.076   4.530   0.446 -0.5490  0.1282  0.3625
   50EOH      H  205   6.022   4.491   0.762  1.1336  1.0451  1.1865
   51EOH      O  206   2.036   1.798   4.646  0.1417 -0.0412  0.0511
   51EOH      C  207   2.071   1.855   4.773  0.4037  0.1873 -0.1243
   51EOH      C  208   2.015   1.770   4.888  0.2301 -0.5615 -0.7550
   51EOH      H  209   2.112   1.786   4.592 -1.0086 -1.8270 -1.2343
   52EOH      O  210   0.511   3.377   0.209  0.4558 -0.2748 -0.2077
   52EOH      C  211   0.567   3.484   0.285 -0.0918 -0.0616 -0.1056
   52EOH      C  212   0.508   3.622   0.248 -0.0015  0.0067  0.0041
   52EOH      H  213   0.418   3.370   0.221  0.1652  2.4165 -0.6037
   53EOH      O  214   0.532   5.707   6.121  0.3139 -0.1251  0.6317
   53EOH      C  215   0.451   5.764   6.224 -0.3497  0.2395 -0.0855
   53EOH      C  216   0.310   5.703   6.216 -0.4928  0.5314  0.1505
   53EOH      H  217   0.619   5.687   6.152  0.4814 -0.6456 -0.1580
   54EOH      O  218   5.172   1.609   4.768  0.1524 -0.3595  0.7744
   54EOH      C  219   5.051   1.630   4.842 -0.2392  0.3998 -0.0653
   54EOH      C  220   4.979   1.756   4.789  0.1417  0.5894 -0.1405
   54EOH      H  221   5.243   1.665   4.795  1.0291 -1.4415  0.7088
   55EOH      O  222   5.653   1.818   6.274  0.2545 -0.1550 -0.2764
   55EOH      C  223   5.792   1.797   6.252  0.3789  0.0560  0.3002
   55EOH      C  224   5.830   1.895   6.139 -0.5752 -0.5248 -0.5274
   55EOH      H  225   5.630   1.891   6.330 -0.1385 -1.1300  0.8471
   56EOH      O  226   5.790   3.021   5.559 -0.1845  0.3598  0.2888
   56EOH      C  227   5.814   2.969   5.690 -0.0391 -0.6102 -0.1234
   56EOH      C  228   5.868   2.825   5.673 -0.4558 -0.8807  0.8266
   56EOH      H  229   5.700   2.996   5.543  0.0734  0.3453 -1.2123
   57EOH      O  230   0.352   4.690   5.119  0.1378  0.0325 -0.8547
   57EOH      C  231   0.493   4.703   5.103  0.2504 -0.0419  0.0618
   57EOH      C  232   0.534   4.827   5.185 -0.0289  0.2358 -0.2180
   57EOH      H  233   0.330   4.610   5.072  0.7999  0.4309 -1.8454
   58EOH      O  234   2.149   5.897   1.139  0.4645 -0.2289 -0.1963
   58EOH      C  235   2.109   5.840   1.264  0.4078 -0.2143 -0.2084
   58EOH      C  236   2.039   5.704   1.244  0.1787 -0.1470  0.1337
   58EOH      H  237   2.070   5.931   1.100  1.4066  1.4899 -0.6776
   59EOH      O  238   1.534   3.476   0.158  0.0225 -0.3164 -0.4381
   59EOH      C  239   1.631   3.532   0.069  0.2856  0.0294  0.0674
   59EOH      C  240   1.743   3.428   0.059  0.1329 -0.1532  0.2474
   59EOH      H  241   1.511   3.545   0.218 -2.4089 -0.6149 -0.9642
   60EOH      O  242   0.634   6.292   0.420 -0.0970 -0.5601  0.0509
   60EOH      C  243   0.608   6.392   0.519 -0.4450 -0.3211 -0.2794
   60EOH      C  244   0.735   6.458   0.575 -0.3075 -0.8316  0.0188
   60EOH      H  245   0.679   6.324   0.344 -1.0772 -1.1900 -0.8031
   61EOH      O  246   3.865   6.065   0.572  0.9091  0.5568 -0.0268
   61EOH      C  247   3.872   6.190   0.641  0.3425  0.4601  0.2117
   61EOH      C  248   3.867   6.153   0.790 -0.1291 -0.0951  0.0630
   61EOH      H  249   3.898   6.081   0.485 -1.9719  0.2729 -1.2415
   62EOH      O  250   2.142   3.806   0.328  0.3106 -0.0287  0.1801
   62EOH      C  251   2.026   3.852   0.257  0.4657 -0.0556 -0.0919
   62EOH      C  252   1.926   3.736   0.241  0.2735  0.0679  0.2172
   62EOH      H  253   2.193   3.754   0.267  0.3783  1.0537 -0.7087
   63EOH      O  254   3.707   2.611   2.197  0.2665  0.1827  0.3193
   63EOH      C  255   3.649   2.544   2.309  0.0932  0.2745  0.2849
   63EOH      C  256   3.712   2.403   2.314 -0.2956  0.0778 -0.3822
   63EOH      H  257   3.796   2.619   2.228  0.6332 -1.4027 -0.2564
   64EOH      O  258   6.084   6.164   1.172 -0.0898  0.1183 -0.5032
   64EOH      C  259   6.010   6.077   1.258  0.1398  0.0593 -0.3625
   64EOH      C  260   5.907   6.001   1.173 -0.2959 -0.4239  0.5866
   64EOH      H  261   6.139   6.215   1.230 -1.1679 -0.1608  0.8026
   65EOH      O  262   5.223   1.546   2.031  0.1095  0.2377 -0.0702
   65EOH      C  263   5.142   1.649   2.087  0.1024  0.4056 -0.3913
   65EOH      C  264   5.227   1.755   2.158  0.3733  0.0449 -0.1784
   65EOH      H  265   5.172   1.503   1.965  1.9849  1.2022 -2.2255
   66EOH      O  266   1.337   4.159   1.028 -0.3878  0.2751 -0.1081
   66EOH      C  267   1.463   4.226   1.040  0.1858 -0.7167 -0.5308
   66EOH      C  268   1.553   4.189   0.921  0.1728 -0.6853 -0.5504
   66EOH      H  269   1.355   4.068   1.046  1.0844  0.8754  1.6393
   67EOH      O  270   3.266   0.013   6.205 -0.0294 -0.2114  0.0759
   67EOH      C  271   3.178  -0.020   6.313 -0.6746 -0.1687 -0.4388
   67EOH      C  272   3.135  -0.167   6.306 -0.7923 -0.1654  0.2439
   67EOH      H  273   3.349   0.046   6.237  0.5813  0.2843 -1.9376
   68EOH      O  274   5.789   5.899   5.335  0.0086  0.3751 -0.6520
   68EOH      C  275   5.655   5.946   5.314 -0.1146  0.2646 -0.1300
   68EOH      C  276   5.632   6.010   5.176 -0.1768 -0.0646 -0.2730
   68EOH      H  277   5.786   5.891   5.429 -0.7111 -1.2272 -0.7807
   69EOH      O  278   1.027   0.916   1.672  0.2875  0.0514 -0.7083
   69EOH      C  279   0.914   0.867   1.601 -0.1453 -0.0065  0.0124
   69EOH      C  280   0.965   0.748   1.518 -0.3189  0.0904 -0.2358
   69EOH      H  281   0.999   0.997   1.714  0.0120  0.0021 -0.7998
   70EOH      O  282   6.199   2.266   2.338 -0.0539  0.1900 -0.1027
   70EOH      C  283   6.193   2.177   2.450 -0.1686 -0.0088 -0.2665
   70EOH      C  284   6.302   2.210   2.553  0.1033 -0.1513 -0.5048
   70EOH      H  285   6.176   2.353   2.366 -0.1230 -0.2257  1.1526
   71EOH      O  286   0.619   1.714   4.822 -0.1498  0.1126 -0.2711
   71EOH      C  287   0.489   1.678   4.870  0.0150  0.0031  0.0951
   71EOH      C  288   0.443   1.804   4.944 -0.0127 -0.0843  0.2270
   71EOH      H  289   0.607   1.724   4.729  0.5720 -0.4105 -0.4320
   72EOH      O  290   5.552   2.683   3.131  0.2835 -0.1932  0.2952
   72EOH      C  291   5.547   2.822   3.163 -0.4331 -0.0659 -0.3630
   72EOH      C  292   5.579   2.893   3.031 -0.0008 -0.5207 -0.5046
   72EOH      H  293   5.518   2.636   3.206  1.1150 -0.2559  0.6450
   73EOH      O  294   2.666   2.335   3.813 -0.3333 -0.5318  0.1038
   73EOH      C  295   2.783   2.281   3.875  0.1105  0.3693  0.0667
   73EOH      C  296   2.779   2.309   4.027 -0.0950  0.1182  0.1084
   73EOH      H  297   2.655   2.299   3.727 -1.0367 -0.1573  0.0334
   74EOH      O  298   2.401   5.037   4.659  0.1346  0.4101 -0.2657
   74EOH      C  299   2.362   5.090   4.532 -0.4268  0.1078 -0.2212
   74EOH      C  300   2.481   5.088   4.435 -0.6921 -0.9062 -0.5349
   74EOH      H  301   2.331   4.984   4.696  1.1596 -0.5576  0.3036
   75EOH      O  302   5.317   4.130   0.041  0.0302  0.2718 -0.3497
   75EOH      C  303   5.278   4.227   0.139 -0.3487 -0.6969  0.4684
   75EOH      C  304   5.181   4.333   0.084  0.1059 -0.5216 -0.0106
   75EOH      H  305   5.325   4.044   0.078 -2.5468 -0.6301 -1.7696
   76EOH      O  306   5.965   5.887   5.154 -0.0976  0.3565  0.1017
   76EOH      C  307   6.070   5.982   5.173  0.4527 -0.2236 -0.0603
   76EOH      C  308   6.027   6.122   5.221 -0.1607 -0.1450 -0.8433
   76EOH      H  309   5.909   5.886   5.231 -1.8801  3.4345 -1.0521
   77EOH      O  310   5.479   4.130   6.119 -0.0647 -0.3079  0.5255
   77EOH      C  311   5.599   4.207   6.135 -0.0090 -0.3180  0.1537
   77EOH      C  312   5.656   4.236   5.995 -0.1277 -0.2009  0.1298
   77EOH      H  313   5.419   4.150   6.189 -0.6016 -3.8310  1.1482
   78EOH      O  314   2.046   2.016   0.778  0.1890  0.4595  0.1928
   78EOH      C  315   1.945   2.082   0.856 -0.2732 -0.1047  0.0782
   78EOH      C  316   1.820   1.993   0.866 -0.0152 -0.4814 -0.0087
   78EOH      H  317   2.117   2.077   0.769  1.0977 -1.0216 -3.7548
   79EOH      O  318   1.665   0.059   4.019 -0.3602 -0.4238 -0.0678
   79EOH      C  319   1.782   0.065   3.938 -0.1975  0.4149  0.2202
   79EOH      C  320   1.757   0.108   3.792 -0.0911  0.0911  0.1061
   79EOH      H  321   1.686   0.048   4.111 -1.2503  1.7636  0.4414
   80EOH      O  322   5.800   5.447   1.369 -0.4204 -0.0960  0.1608
   80EOH      C  323   5.918   5.490   1.437 -0.3925  0.3733 -0.1875
   80EOH      C  324   6.005   5.556   1.328  0.6921 -0.3093  0.2604
   80EOH      H  325   5.761   5.378   1.421 -1.5526  0.8416  0.5602
   81EOH      O  326   3.183   0.610   2.298 -0.1086  0.3331 -0.0949
   81EOH      C  327   3.110   0.606   2.420 -0.0102  0.5737 -0.0267
   81EOH      C  328   2.960   0.631   2.396  0.0320  0.4313 -0.4330
   81EOH      H  329   3.219   0.526   2.273 -1.7552 -0.2158 -0.6499
   82EOH      O  330   3.972   4.449   6.126  0.0879  0.0833  0.4429
   82EOH      C  331   3.970   4.556   6.220  0.3282  0.1439  0.3785
   82EOH      C  332   3.955   4.494   6.360 -0.0050 -0.2862  0.1531
   82EOH      H  333   3.918   4.480   6.055  0.7140 -0.9594 -0.5008
   83EOH      O  334   0.231   0.339   0.838 -0.5353  0.3175 -0.0855
   83EOH      C  335   0.228   0.473   0.890 -0.4181  0.2541  0.0824
   83EOH      C  336   0.172   0.488   1.033 -0.0374 -0.7976  0.3496
   83EOH      H  337   0.235   0.341   0.743  0.8816  0.3181 -0.0444
   84EOH      O  338   2.068   1.663   6.000  0.2330  0.0987 -0.1324
   84EOH      C  339   1.972   1.756   6.050  0.0921 -0.1748  0.1101
   84EOH      C  340   2.026   1.899   6.029 -0.3589 -0.0061  0.0885
   84EOH      H  341   2.067   1.663   5.906 -1.7844 -1.7968 -0.1528
   85EOH      O  342   4.297   3.096   5.960 -0.5490  0.4852  0.8018
   85EOH      C  343   4.189   3.055   5.877  0.4342 -0.2001 -0.1499
   85EOH      C  344   4.137   3.156   5.773  0.4910 -0.0590 -0.0403
   85EOH      H  345   4.296   3.043   6.038  1.6581 -0.0958  0.4769
   86EOH      O  346   0.095   5.306   0.874 -0.0837  0.5074  0.0300
   86EOH      C  347   0.224   5.253   0.843 -0.2277 -0.1810  0.6002
   86EOH      C  348   0.206   5.131   0.751 -0.0227  0.1207  0.1529
   86EOH      H  349   0.111   5.400   0.875  3.8926 -0.0729 -0.8154
   87EOH      O  350   2.703   1.824   1.346  0.1039 -0.0203  0.5536
   87EOH      C  351   2.759   1.705   1.403  0.0895 -0.2158  0.1585
   87EOH      C  352   2.875   1.720   1.503 -0.1939  0.0058  0.4552
   87EOH      H  353   2.775   1.885   1.355 -1.6476  2.1361  0.4078
   88EOH      O  354   5.099   0.450   5.856  0.0904 -0.0281 -0.0010
   88EOH      C  355   5.170   0.431   5.978  0.2363  0.2328 -0.0444
   88EOH      C  356   5.082   0.337   6.063  0.7650 -0.1850  0.0425
   88EOH      H  357   5.142   0.394   5.793  0.8681 -0.7642  1.1752
   89EOH      O  358   5.429   2.905   0.776  0.1377 -0.0982 -0.0447
   89EOH      C  359   5.567   2.868   0.763  0.0772 -0.4324  0.2759
   89EOH      C  360   5.593   2.754   0.663  0.5820 -0.0541 -0.0236
   89EOH      H  361   5.426   2.991   0.815  2.0350 -0.4753  0.9899
   90EOH      O  362   1.245   2.315   6.170 -0.3372 -0.7055  0.3064
   90EOH      C  363   1.368   2.288   6.238  0.3516 -0.0037 -0.6464
   90EOH      C  364   1.371   2.322   6.388  0.3161  0.0407 -0.6560
   90EOH      H  365   1.229   2.407   6.180 -0.4538 -0.8221  1.3054
   91EOH      O  366   3.092   3.124   4.101  0.0685 -0.2767 -0.5589
   91EOH      C  367   3.062   3.020   4.195  0.4365  0.4508  0.3733
   91EOH      C  368   2.961   3.067   4.301 -0.1759 -0.1027  0.0375
   91EOH      H  369   3.038   3.114   4.024 -1.1470 -1.6725  0.4240
   92EOH      O  370   1.127   1.964   0.391 -0.0229  0.4052 -0.3810
   92EOH      C  371   1.211   2.075   0.425 -0.4836  0.6430 -0.0137
   92EOH      C  372   1.333   2.056   0.333 -0.7019 -0.0584 -0.1665
   92EOH      H  373   1.063   1.954   0.459  1.0991  0.3045  0.6683
   93EOH      O  374   0.872   4.521   2.401 -0.4991 -0.2640 -0.2337
   93EOH      C  375   0.965   4.593   2.483 -0.3019 -0.0445 -0.6533
   93EOH      C  376   1.103   4.525   2.478 -0.4478 -0.3956  0.1478
   93EOH      H  377   0.885   4.546   2.311 -1.9726 -1.6341 -0.8535
   94EOH      O  378   5.074   5.701   5.738  0.1879  0.1036  0.0784
   94EOH      C  379   4.971   5.774   5.806 -0.0215  0.2223 -0.3705
   94EOH      C  380   5.034   5.886   5.889 -0.7328  0.6685 -0.4270
   94EOH      H  381   5.082   5.618   5.783  0.0436  0.0191 -0.0512
   95EOH      O  382   4.619   0.043   2.549  0.3365 -0.5082  0.3038
   95EOH      C  383   4.529   0.149   2.581  0.6811 -0.1095 -0.0464
   95EOH      C  384   4.620   0.271   2.601  0.1022  0.2866  0.2000
   95EOH      H  385   4.564  -0.023   2.509  0.2745  1.8494 -3.6593
   96EOH      O  386   1.241   4.214   5.660  0.2716 -0.2776  0.1031
   96EOH      C  387   1.241   4.159   5.528  0.4497  0.2373 -0.1089
   96EOH      C  388   1.146   4.041   5.503  0.6975 -0.0898  0.4961
   96EOH      H  389   1.277   4.148   5.717  2.8104  0.8603 -0.1195
   97EOH      O  390   3.176   1.978   2.274 -0.2831  0.0869 -0.2920
   97EOH      C  391   3.151   2.091   2.189 -0.3095  0.2916 -0.0156
   97EOH      C  392   3.282   2.139   2.123 -0.3155  1.0925  0.5471
   97EOH      H  393   3.119   1.906   2.252 -1.6738  0.1568  2.8172
   98EOH      O  394   0.139   1.700   3.305 -0.1911  0.2110 -0.3252
   98EOH      C  395   0.173   1.804   3.397 -0.8663  0.1828 -0.0458
   98EOH      C  396   0.325   1.824   3.403 -0.7917 -0.2396 -0.5728
   98EOH      H  397   0.050   1.713   3.276 -0.3758 -0.5593 -0.1128
   99EOH      O  398   3.182   3.126   0.264 -0.1110  0.0588  0.0613
   99EOH      C  399   3.096   3.111   0.377 -0.0985 -0.0119  0.0610
   99EOH      C  400   2.952   3.086   0.329 -0.1815  0.5225  0.0313
   99EOH      H  401   3.186   3.044   0.217  1.5898  0.6598 -0.8827
  100EOH      O  402   5.936   4.253   3.640 -0.0207  0.2789 -0.2160
  100EOH      C  403   6.044   4.346   3.635  0.0402  0.1898 -0.6205
  100EOH      C  404   6.006   4.467   3.722  0.4050 -0.2347  0.1300
  100EOH      H  405   5.973   4.167   3.621  0.0491  0.0296  1.0464
  101EOH      O  406   5.379   0.215   6.219 -0.4551  0.2197  0.5647
  101EOH      C  407   5.353   0.102   6.304 -0.1955 -0.1002  0.2200
  101EOH      C  408   5.472   0.004   6.297  0.1108  0.2463  0.5930
  101EOH      H  409   5.367   0.287   6.278  1.0587  0.5270  0.5260
  102EOH      O  410   4.075   4.636   0.484  0.4378 -0.1222 -0.1867
  102EOH      C  411   3.979   4.535   0.451  0.3722 -0.0077 -0.3444
  102EOH      C  412   3.864   4.592   0.366  0.5670  0.3258 -0.3848
  102EOH      H  413   4.100   4.629   0.575 -0.4372  0.3710  0.1039
  103EOH      O  414   5.657   1.098   1.187 -0.0561 -0.2678  0.0801
  103EOH      C  415   5.648   1.105   1.329 -0.1622  0.2914  0.0474
  103EOH      C  416   5.510   1.171   1.349  0.0424  0.9039 -0.5698
  103EOH      H  417   5.747   1.118   1.163  0.2415 -0.5617  0.9487
  104EOH      O  418   0.545   2.565   3.289 -0.0364  0.0235  0.2909
  104EOH      C  419   0.511   2.468   3.388  0.0578 -0.6598 -0.3384
  104EOH      C  420   0.591   2.338   3.373  0.4621 -0.4279 -0.2047
  104EOH      H  421   0.518   2.647   3.328 -0.1622  0.1783 -0.1218
  105EOH      O  422   0.373   0.491   5.735  0.0028 -0.1899 -0.0802
  105EOH      C  423   0.281   0.600   5.718 -0.3717 -0.5222 -0.1789
  105EOH      C  424   0.302   0.686   5.592 -0.5924 -0.2578 -0.0346
  105EOH      H  425   0.368   0.437   5.658 -0.0095 -2.5019  1.4962
  106EOH      O  426   5.490   0.405   0.998 -0.1988  0.2132 -0.0074
  106EOH      C  427   5.496   0.310   0.891 -0.3179  0.3275 -0.1168
  106EOH      C  428   5.490   0.384   0.757 -0.0246  0.3918 -0.0953
  106EOH      H  429   5.406   0.388   1.038  0.5681 -1.0886  1.0928
  107EOH      O  430   1.365   0.928   3.278  0.2731  0.0373 -0.2313
  107EOH      C  431   1.410   0.954   3.411  0.0271 -0.2041 -0.0998
  107EOH      C  432   1.328   0.864   3.506 -0.0061  0.1544  0.2132
  107EOH      H  433   1.276   0.955   3.261 -0.2091 -0.1116  1.9195
  108EOH      O  434   1.838   5.567   4.410  0.2264  0.2038 -0.2599
  108EOH      C  435   1.788   5.640   4.298 -0.3346  0.0065 -0.1424
  108EOH      C  436   1.705   5.755   4.357  0.4513  0.4546  0.0971
  108EOH      H  437   1.855   5.482   4.372  2.5061  0.8980 -0.8766
  109EOH      O  438   5.023   2.128   1.740 -0.3581 -0.0066 -0.1769
  109EOH      C  439   5.081   2.239   1.671  0.1851  0.0486  0.3684
  109EOH      C  440   5.055   2.365   1.756 -0.0571  0.2945 -0.0756
  109EOH      H  441   5.095   2.069   1.757 -0.8237 -0.2582  0.9986
  110EOH      O  442   1.851   2.392   2.173  0.1293  0.0452  0.1253
  110EOH      C  443   1.874   2.441   2.040  0.4334  0.3617  0.2949
  110EOH      C  444   1.804   2.578   2.029  0.1771  0.2022 -0.0423
  110EOH      H  445   1.904   2.314   2.180 -0.1930 -0.0893  1.1336
  111EOH      O  446   2.288   3.818   4.735 -0.0401  0.2649  0.1758
  111EOH      C  447   2.360   3.942   4.736  0.5150 -0.0545  0.4149
  111EOH      C  448   2.259   4.057   4.752 -0.0457 -0.4737 -0.0802
  111EOH      H  449   2.238   3.808   4.656  0.0767 -1.6739  0.3145
  112EOH      O  450   5.639   3.872   4.178  0.3317 -0.6429  0.2523
  112EOH      C  451   5.757   3.899   4.102  0.1487 -0.3035  0.0890
  112EOH      C  452   5.728   3.996   3.986 -0.8524 -0.1270  0.4787
  112EOH      H  453   5.667   3.819   4.251 -0.8888  0.9288  1.9164
  113EOH      O  454   2.302   3.688   0.187  0.6852  0.3019  0.5623
  113EOH      C  455   2.360   3.638   0.066  0.2061  0.6001  0.2048
  113EOH      C  456   2.260   3.675  -0.044  0.3616 -0.5260 -0.3227
  113EOH      H  457   2.356   3.670   0.262  2.5568  1.2837 -0.5286
  114EOH      O  458   4.930   5.807   3.683 -0.2022 -0.1805  0.2229
  114EOH      C  459   4.903   5.688   3.609 -0.1961 -0.1111  0.1079
  114EOH      C  460   4.893   5.567   3.703  0.0167 -0.0333  0.2307
  114EOH      H  461   4.906   5.883   3.632  2.8939  1.7681  1.5038
  115EOH      O  462   5.006   3.018   5.920 -0.0486  0.3026  0.3127
  115EOH      C  463   4.963   3.111   5.820 -0.1072  0.0118  0.0680
  115EOH      C  464   4.908   3.232   5.897  0.0524 -0.2235  0.5559
  115EOH      H  465   4.928   2.997   5.968 -0.3594  0.5505 -0.0815
  116EOH      O  466   6.228   2.782   4.408 -0.1897  0.0617  0.0183
  116EOH      C  467   6.269   2.677   4.319 -0.2600  0.0418  0.0102
  116EOH      C  468   6.296   2.744   4.184 -0.1917 -0.2660 -0.1288
  116EOH      H  469   6.165   2.744   4.468 -0.9110  0.5417 -0.4306
  117EOH      O  470   0.269   5.351   2.456  0.2507  0.1128  0.4916
  117EOH      C  471   0.346   5.349   2.576  0.3397 -0.7856  0.4273
  117EOH      C  472   0.345   5.486   2.646 -0.6383 -0.0157 -1.0647
  117EOH      H  473   0.281   5.264   2.419 -2.4323 -1.4564  3.1038
  118EOH      O  474   5.967   4.662   2.658 -0.1966 -0.2331  0.5538
  118EOH      C  475   5.839   4.689   2.717 -0.4233 -0.3076  0.0963
  118EOH      C  476   5.847   4.794   2.830  0.0893  0.2135 -0.4133
  118EOH      H  477   6.028   4.641   2.727  2.3270 -2.8824 -2.2900
  119EOH      O  478   2.634   3.261   4.767  0.6790  0.2390  0.0927
  119EOH      C  479   2.600   3.185   4.651 -0.1032  0.8050 -0.0566
  119EOH      C  480   2.713   3.188   4.546 -0.6410  0.1386 -0.6551
  119EOH      H  481   2.586   3.343   4.766 -1.0901 -0.7705  0.1375
  120EOH      O  482   5.830   4.049   5.206  0.8114 -0.3316 -0.3189
  120EOH      C  483   5.962   4.057   5.261  0.6729 -0.4274  0.0268
  120EOH      C  484   6.008   4.204   5.263 -0.1075 -0.1770 -0.0558
  120EOH      H  485   5.798   3.962   5.226  1.5057 -0.9112 -1.7062
  121EOH      O  486   5.898   3.477   5.947  0.1472  0.2096  0.5124
  121EOH      C  487   5.896   3.544   6.073  0.6620 -0.2629  0.7747
  121EOH      C  488   5.835   3.456   6.183  0.0309 -0.7693  0.0204
  121EOH      H  489   5.988   3.452   5.930 -0.6673 -0.9997 -2.3093
  122EOH      O  490   3.017   3.631   1.789 -0.1657  0.3293  0.0483
  122EOH      C  491   2.917   3.732   1.774 -0.0567  0.4388  0.0692
  122EOH      C  492   2.864   3.701   1.633 -0.1081  0.6459  0.0422
  122EOH      H  493   3.080   3.652   1.855  0.9651  1.1562 -1.2690
  123EOH      O  494   2.594   1.115   0.046  0.2235 -0.2201  0.0861
  123EOH      C  495   2.668   1.183  -0.055 -0.3607  0.4240  0.0899
  123EOH      C  496   2.595   1.313  -0.096 -0.3551  0.3248 -0.2398
  123EOH      H  497   2.651   1.083   0.115 -1.9965  0.0258  2.1190
  124EOH      O  498   0.943   1.325   5.276 -0.3390 -0.1394  0.0047
  124EOH      C  499   0.903   1.360   5.409  0.2408 -0.3463  0.2352
  124EOH      C  500   0.987   1.461   5.489 -0.0651  0.4887 -0.4863
  124EOH      H  501   0.889   1.254   5.247  3.0358 -2.0607 -1.8902
  125EOH      O  502   1.728   5.066   6.016  0.2108  0.2326  0.0614
  125EOH      C  503   1.647   5.176   5.976 -0.0008 -0.0825 -0.3854
  125EOH      C  504   1.632   5.190   5.823 -0.9273  0.0746 -0.2817
  125EOH      H  505   1.784   5.098   6.085 -1.9040  0.3136  1.7684
  126EOH      O  506   1.521   1.862   5.619 -0.4049 -0.4532  0.2363
  126EOH      C  507   1.563   1.928   5.738 -0.0497 -0.5025  0.1400
  126EOH      C  508   1.458   1.928   5.851 -0.0408  0.1575  0.1490
  126EOH      H  509   1.498   1.772   5.640 -0.7495 -0.3392  0.3420
  127EOH      O  510   0.526   2.307   0.214 -0.0552  0.2186  0.2056
  127EOH      C  511   0.431   2.202   0.235  0.0491  0.2371  0.7973
  127EOH      C  512   0.485   2.126   0.357  0.5001 -0.2985  0.2720
  127EOH      H  513   0.520   2.339   0.126 -2.7794  1.6118  0.8273
  128EOH      O  514   2.061   0.687   2.550 -0.0253  0.3390 -0.2701
  128EOH      C  515   2.182   0.653   2.481 -0.2910 -0.4345 -0.3588
  128EOH      C  516   2.171   0.709   2.338 -0.4818 -0.0816 -0.2042
  128EOH      H  517   2.054   0.630   2.625 -3.2091  1.2840  0.2330
  129EOH      O  518   1.830   0.485   1.979 -0.5611  0.1548 -0.2250
  129EOH      C  519   1.938   0.501   2.072 -0.1025 -0.4017 -0.6579
  129EOH      C  520   2.073   0.519   2.001  0.0747 -0.6047 -0.3722
  129EOH      H  521   1.820   0.393   1.959  0.6662 -0.4209  1.6143
  130EOH      O  522   1.617   4.790   4.525  0.5907  0.5864  0.7653
  130EOH      C  523   1.615   4.926   4.483 -0.0231  0.3176 -0.0863
  130EOH      C  524   1.625   5.021   4.604  0.1135 -0.2533  0.3539
  130EOH      H  525   1.659   4.743   4.454  0.1400  0.7114  0.4138
  131EOH      O  526   5.626   2.094   1.426 -0.1700 -0.3745 -0.1635
  131EOH      C  527   5.510   2.015   1.451 -0.2219 -0.0122  0.7565
  131EOH      C  528   5.391   2.111   1.471 -0.2322  0.1605 -0.0937
  131EOH      H  529   5.676   2.050   1.359 -2.0840 -0.9215 -1.2605
  132EOH      O  530   5.308   2.327   5.465 -0.2070  0.2028 -0.2127
  132EOH      C  531   5.404   2.379   5.558 -0.1473  0.3704 -0.3686
  132EOH      C  532   5.350   2.518   5.596 -0.1816  0.3348 -0.2878
  132EOH      H  533   5.326   2.234   5.464 -2.7308 -0.3171 -0.9947
  133EOH      O  534   4.416   3.744   3.788  0.6808  0.1834 -0.2142
  133EOH      C  535   4.496   3.636   3.837  0.5579  0.3172  0.2882
  133EOH      C  536   4.460   3.612   3.985 -0.0439 -0.0430  0.0818
  133EOH      H  537   4.446   3.764   3.701 -0.3883 -1.3692 -0.9621
  134EOH      O  538   5.120   3.668   2.087 -0.0551  0.0219 -0.3780
  134EOH      C  539   5.198   3.580   2.167  0.1027  0.3287 -0.1917
  134EOH      C  540   5.231   3.458   2.078  0.2335 -0.0946  0.4317
  134EOH      H  541   5.145   3.759   2.092 -0.3837  0.1110 -0.3519
  135EOH      O  542   6.309   1.211   4.793  0.1948 -0.9787  0.3355
  135EOH      C  543   6.346   1.318   4.881 -0.1349 -0.1485 -0.5189
  135EOH      C  544   6.449   1.413   4.817  0.1727 -0.0686  0.0962
  135EOH      H  545   6.232   1.228   4.741  0.3775 -2.0314 -0.2980
  136EOH      O  546   1.144   2.903   0.598  0.0809 -0.2983 -0.1549
  136EOH      C  547   1.105   2.892   0.461 -0.7728 -0.3679  0.0919
  136EOH      C  548   1.032   3.019   0.411  0.0209  0.0176 -0.1017
  136EOH      H  549   1.092   2.968   0.643  2.4729  0.6149  1.3541
  137EOH      O  550   3.181   4.321   1.276 -0.2834 -0.2995 -0.4906
  137EOH      C  551   3.169   4.403   1.160 -0.1586 -0.1525 -0.4005
  137EOH      C  552   3.077   4.526   1.169  0.2973  0.1960 -0.4699
  137EOH      H  553   3.231   4.245   1.252  1.8112  1.2247 -1.0351
  138EOH      O  554   1.749   4.283   5.325 -0.1433  0.1279 -0.1590
  138EOH      C  555   1.611   4.269   5.359 -0.0013  0.0405  0.3878
  138EOH      C  556   1.592   4.120   5.390  0.0020  0.0192  0.2908
  138EOH      H  557   1.761   4.376   5.332  0.6901 -0.1420  2.1822
  139EOH      O  558   0.456   3.676   3.500 -0.0174 -0.1246 -0.3686
  139EOH      C  559   0.352   3.648   3.406 -0.2717  0.2671 -0.2050
  139EOH      C  560   0.280   3.781   3.376 -0.0873  0.3555 -0.2587
  139EOH      H  561   0.517   3.604   3.501 -1.2436 -1.1904  0.6830
  140EOH      O  562   4.846   5.469   0.173  0.8960 -0.7761 -0.6352
  140EOH      C  563   4.822   5.359   0.085 -0.6281 -0.1842 -0.9742
  140EOH      C  564   4.958   5.329   0.021 -0.2385 -0.0375 -0.2248
  140EOH      H  565   4.938   5.473   0.192  1.1426 -1.7030 -1.6360
  141EOH      O  566   3.918   1.605   6.026 -0.5228 -0.8969 -0.0662
  141EOH      C  567   4.057   1.572   6.024 -0.2454  0.2772 -0.2621
  141EOH      C  568   4.129   1.668   6.121  0.0656 -0.0335 -0.1866
  141EOH      H  569   3.864   1.532   5.998 -0.6700 -0.5786 -0.6296
  142EOH      O  570   5.291   2.767   0.959  0.1373 -0.4175  0.8329
  142EOH      C  571   5.152   2.744   0.939  0.1241 -0.2912  0.7818
  142EOH      C  572   5.119   2.597   0.971 -0.4826 -0.6315 -1.3047
  142EOH      H  573   5.340   2.779   0.879 -1.2039 -1.4439 -0.1642
  143EOH      O  574   1.319   3.023   5.469 -0.5099 -0.3361  0.0093
  143EOH      C  575   1.181   3.010   5.434 -0.5031 -0.2722 -0.0417
  143EOH      C  576   1.077   3.065   5.533  0.0381 -0.1363  0.4593
  143EOH      H  577   1.344   2.933   5.481  0.0156 -0.0717  1.0275
  144EOH      O  578   5.604   2.022   3.372  0.1479 -0.4205 -0.5867
  144EOH      C  579   5.633   1.913   3.461 -0.3691 -0.2251 -0.1715
  144EOH      C  580   5.713   1.825   3.363 -0.5859 -0.2329 -0.3421
  144EOH      H  581   5.510   2.023   3.362 -0.2047  0.3082  2.2339
  145EOH      O  582   1.760   5.235   2.636 -0.3585 -0.3680 -0.1396
  145EOH      C  583   1.702   5.286   2.516  0.7041  0.3408 -0.3577
  145EOH      C  584   1.683   5.171   2.415  0.6218  0.7517 -0.8161
  145EOH      H  585   1.785   5.308   2.690  1.3857 -1.1736  0.1784
  146EOH      O  586   3.179   1.901   1.682  0.1334  0.5778  0.1111
  146EOH      C  587   3.142   1.916   1.819  0.2699  0.2589  0.1844
  146EOH      C  588   2.988   1.924   1.830  0.2030 -0.4406 -0.2693
  146EOH      H  589   3.270   1.878   1.680  0.2908  1.1076  0.8756
  147EOH      O  590   5.806   0.998   4.579 -0.9104  0.4694  0.0172
  147EOH      C  591   5.719   0.955   4.475 -0.2982 -0.5108 -0.0965
  147EOH      C  592   5.784   0.968   4.336  0.3154 -0.6570  0.1761
  147EOH      H  593   5.842   0.916   4.609 -1.0325 -0.0498 -1.2500
  148EOH      O  594   4.474   4.428   1.545  0.0612 -0.4722  0.2647
  148EOH      C  595   4.383   4.370   1.639  0.3604 -1.2251  0.0941
  148EOH      C  596   4.440   4.366   1.782  0.2352  0.3619  0.1887
  148EOH      H  597   4.430   4.473   1.475  1.2127  0.0798 -0.1225
  149EOH      O  598   3.310   0.381   3.722 -0.1631  0.1247  0.1746
  149EOH      C  599   3.251   0.271   3.654 -0.0020 -0.1098  0.4104
  149EOH      C  600   3.151   0.198   3.745 -0.9924  0.1136 -0.4800
  149EOH      H  601   3.371   0.349   3.787  0.2440 -1.4512 -0.9484
  150EOH      O  602   4.522   0.839   4.708  0.1065 -0.1776 -0.5277
  150EOH      C  603   4.629   0.821   4.614 -0.1312 -0.2434 -0.7850
  150EOH      C  604   4.725   0.941   4.617  0.5429 -0.8023  0.6045
  150EOH      H  605   4.462   0.766   4.708 -0.3791  0.2192 -0.2538
  151EOH      O  606   1.625   2.874   2.916  0.1278 -0.0511  0.4910
  151EOH      C  607   1.598   2.756   2.992  0.2038 -0.3793  0.0144
  151EOH      C  608   1.476   2.678   2.940  0.3110 -0.3938 -0.2132
  151EOH      H  609   1.680   2.935   2.963  2.6827 -1.8254 -0.1036
  152EOH      O  610   2.189   3.371   3.615 -0.4052 -0.0245  0.2282
  152EOH      C  611   2.129   3.498   3.642  0.1860  0.0960  0.9835
  152EOH      C  612   2.249   3.590   3.672  0.6890 -0.2695  0.1214
  152EOH      H  613   2.116   3.331   3.569  0.6975 -2.7815  0.7919
  153EOH      O  614   3.919   3.186   0.336  0.0852  0.0693 -0.9607
  153EOH      C  615   3.789   3.179   0.276 -0.3812  0.3787  0.0161
  153EOH      C  616   3.714   3.059   0.336 -0.3176  0.2963 -0.0687
  153EOH      H  617   3.969   3.259   0.301  0.5149  0.7576  1.0180
  154EOH      O  618   0.551   1.368   0.312  0.5440  0.2662 -0.5051
  154EOH      C  619   0.463   1.389   0.201  0.0801  0.1582 -0.1598
  154EOH      C  620   0.328   1.451   0.241  0.1941  0.0101  0.4675
  154EOH      H  621   0.556   1.451   0.357 -0.1084 -0.9337  1.8615
  155EOH      O  622   1.091   3.253   1.407 -0.2133 -0.9347 -0.1164
  155EOH      C  623   1.108   3.319   1.281 -0.3838  0.0979  0.3897
  155EOH      C  624   1.057   3.241   1.158  0.6095 -0.3086  0.2297
  155EOH      H  625   1.139   3.305   1.470 -2.5966 -1.0290  1.8766
  156EOH      O  626   4.880   2.177   2.686  0.0154  0.1294  0.4415
  156EOH      C  627   4.816   2.164   2.558  0.2595 -0.0062  0.3331
  156EOH      C  628   4.914   2.105   2.455  0.0125 -0.2460  0.2373
  156EOH      H  629   4.918   2.094   2.709 -1.4748 -1.0115 -1.0142
  157EOH      O  630   3.807   1.790   6.190 -0.2874 -0.0062 -0.2147
  157EOH      C  631   3.770   1.883   6.088  0.1707  0.5803  0.1500
  157EOH      C  632   3.652   1.836   6.000 -0.2128 -0.0570  0.9999
  157EOH      H  633   3.859   1.724   6.146  0.0086 -0.0723  0.2344
  158EOH      O  634   3.815   4.273   5.080 -0.3303 -0.1606 -0.6366
  158EOH      C  635   3.910   4.358   5.144 -0.4449 -0.3599 -0.1987
  158EOH      C  636   3.897   4.354   5.297  0.2802 -0.5452 -0.1407
  158EOH      H  637   3.815   4.288   4.986 -2.1051 -1.1120 -0.8134
  159EOH      O  638   3.144   0.130   2.290  0.1612  0.7332  0.1231
  159EOH      C  639   3.053   0.153   2.397  0.2804 -0.2187  0.4325
  159EOH      C  640   3.131   0.130   2.528  0.1670 -0.1816  0.5077
  159EOH      H  641   3.150   0.037   2.278 -0.3234  0.7480 -0.2627
  160EOH      O  642   0.983   2.028   2.097 -0.2278  0.1503  0.5397
  160EOH      C  643   1.059   2.021   2.218 -0.0341  0.2273  0.4226
  160EOH      C  644   1.127   2.157   2.244 -0.3016  0.5123 -0.3251
  160EOH      H  645   0.929   1.952   2.086  0.6950 -0.2450 -1.5006
  161EOH      O  646   4.790   0.698   1.611 -0.1726 -0.6068 -0.1077
  161EOH      C  647   4.895   0.742   1.698 -0.2945 -0.0654 -0.2328
  161EOH      C  648   4.911   0.660   1.827  0.8664 -0.1520 -0.4287
  161EOH      H  649   4.722   0.666   1.668 -0.0777  0.4512  0.6033
  162EOH      O  650   3.458   2.161   5.952  0.4929 -0.5911  0.3519
  162EOH      C  651   3.406   2.141   6.084 -0.3058 -0.4117  0.0641
  162EOH      C  652   3.520   2.157   6.186 -0.2407  0.7549 -0.1744
  162EOH      H  653   3.396   2.222   5.917 -3.1604 -4.7155 -0.7798
  163EOH      O  654   6.059   1.171   6.055 -0.7750  0.0325 -0.3370
  163EOH      C  655   5.971   1.067   6.098  0.0467 -0.5443 -0.0199
  163EOH      C  656   5.876   1.033   5.982  0.0114  0.3907 -0.2687
  163EOH      H  657   6.129   1.179   6.119 -0.6368 -1.1507 -0.3197
  164EOH      O  658   5.715   1.429   1.791 -0.2197  0.5681 -0.2928
  164EOH      C  659   5.726   1.380   1.657  0.9395 -0.1505  0.0559
  164EOH      C  660   5.651   1.472   1.560  0.2360 -0.8864 -0.1014
  164EOH      H  661   5.681   1.365   1.851  1.8353 -0.0184  0.3162
  165EOH      O  662   4.244   5.255   4.107 -0.4330  0.2152  0.2083
  165EOH      C  663   4.115   5.307   4.143 -0.6041 -0.1901  0.1824
  165EOH      C  664   4.103   5.330   4.295 -0.0520  0.1624  0.1747
  165EOH      H  665   4.268   5.296   4.026 -0.2222  0.1808  0.2537
  166EOH      O  666   2.724   4.899   0.970 -0.5004  0.2792  0.0543
  166EOH      C  667   2.830   4.915   0.875 -0.0707  0.5603  0.5778
  166EOH      C  668   2.968   4.932   0.940  0.1823 -0.0334  0.2017
  166EOH      H  669   2.691   4.987   0.980 -0.2023  0.5376 -1.1521
  167EOH      O  670   5.360   2.090   5.467 -0.4272 -0.6660  0.0001
  167EOH      C  671   5.470   2.005   5.435 -0.2727 -0.5443  0.2045
  167EOH      C  672   5.423   1.911   5.322  0.3405  0.0019 -0.5099
  167EOH      H  673   5.324   2.048   5.544  0.0484  2.2877  1.9324
  168EOH      O  674   1.198   2.530   2.484  0.3097 -0.0119  0.0171
  168EOH      C  675   1.116   2.627   2.419 -0.1969 -0.2088  0.3576
  168EOH      C  676   1.115   2.757   2.501  0.0391  0.1039 -0.1310
  168EOH      H  677   1.275   2.533   2.431 -1.1668 -0.0773 -2.1791
  169EOH      O  678   4.299   4.547   2.080 -0.1980  0.2524 -0.1526
  169EOH      C  679   4.335   4.682   2.053 -0.1875  0.2622 -0.0904
  169EOH      C  680   4.252   4.729   1.932  0.4163  0.0865 -0.5778
  169EOH      H  681   4.375   4.504   2.117  0.0574 -0.8999 -1.9558
  170EOH      O  682   3.934   2.659   2.329  0.0051  0.2278 -0.6951
  170EOH      C  683   4.015   2.601   2.432 -0.5386  0.6122 -0.0472
  170EOH      C  684   4.128   2.705   2.445 -0.3137  0.3225  0.3112
  170EOH      H  685   3.996   2.692   2.266  0.4520 -0.4896 -0.6375
  171EOH      O  686   6.125   3.071   3.604 -0.4984 -0.1291  0.6781
  171EOH      C  687   6.209   3.167   3.541 -0.2895 -0.4964  0.3971
  171EOH      C  688   6.286   3.101   3.425  0.2154 -0.0902  0.4977
  171EOH      H  689   6.120   3.105   3.692 -0.4844 -0.3475  0.7653
  172EOH      O  690   3.169   6.210   2.257 -0.5355 -0.0353  0.4955
  172EOH      C  691   3.136   6.154   2.129 -0.3121  0.6566  0.1333
  172EOH      C  692   3.166   6.257   2.020  0.5766  0.4738  0.2033
  172EOH      H  693   3.175   6.139   2.319 -1.3363  0.0418  0.6676
  173EOH      O  694   6.186   3.242   3.032 -0.7007  0.4987  0.1746
  173EOH      C  695   6.095   3.137   3.068 -0.1057 -0.2556 -0.5062
  173EOH      C  696   5.988   3.102   2.963 -0.9238 -0.4319  0.3886
  173EOH      H  697   6.272   3.213   3.006 -1.2018 -1.9623  1.0433
  174EOH      O  698   4.934   3.664   1.920 -0.1808  0.1638 -0.3329
  174EOH      C  699   4.845   3.552   1.926  0.4472 -0.3219 -0.0841
  174EOH      C  700   4.751   3.571   1.806  0.7276  0.6220 -0.1607
  174EOH      H  701   5.006   3.648   1.979  0.4979 -0.0472 -1.2183
  175EOH      O  702   5.683   3.796   1.947 -0.2029 -0.3325  0.0726
  175EOH      C  703   5.544   3.820   1.923 -0.0847 -0.0848 -0.3589
  175EOH      C  704   5.500   3.718   1.816 -0.2011 -0.5185  0.1016
  175EOH      H  705   5.709   3.833   2.030  0.0044  0.7075 -0.4577
  176EOH      O  706   4.278   1.323   2.241 -0.9123  0.5430 -0.2351
  176EOH      C  707   4.290   1.305   2.100 -0.3871 -0.2534 -0.0905
  176EOH      C  708   4.171   1.382   2.041 -0.2290  0.1360  0.0945
  176EOH      H  709   4.361   1.302   2.281 -0.8384 -0.8709 -1.0987
  177EOH      O  710   2.802   2.402   2.028  0.2543  0.6999  0.0339
  177EOH      C  711   2.749   2.350   1.906 -0.5004  0.0279  0.6429
  177EOH      C  712   2.646   2.445   1.843 -0.0221  0.2421  0.1752
  177EOH      H  713   2.805   2.326   2.084  1.2397 -0.2839 -1.2915
  178EOH      O  714   0.320   5.629   0.803 -0.5711 -0.7675 -0.1358
  178EOH      C  715   0.288   5.599   0.667 -0.2338  0.1899 -0.4269
  178EOH      C  716   0.138   5.625   0.642 -0.2624 -0.1539 -0.6082
  178EOH      H  717   0.413   5.630   0.814 -0.6398 -0.4110  0.4780
  179EOH      O  718   4.112   4.585   4.801  0.4732  0.0894  0.4031
  179EOH      C  719   4.227   4.502   4.823  0.0004 -0.7231 -0.1388
  179EOH      C  720   4.339   4.586   4.887 -0.2742 -0.1752 -0.3760
  179EOH      H  721   4.050   4.523   4.765  0.5880 -0.4148  1.0718
  180EOH      O  722   0.078   6.148   6.177 -0.3972 -0.1756 -0.2348
  180EOH      C  723   0.067   6.078   6.301 -0.4223  0.6673  0.2412
  180EOH      C  724  -0.026   5.956   6.291 -0.2637  0.5888 -0.2807
  180EOH      H  725   0.148   6.107   6.128  0.7356 -0.9141  1.9479
  181EOH      O  726   4.155   0.872   4.681  0.5487  0.5032  0.4916
  181EOH      C  727   4.186   0.979   4.592 -0.1202  0.2849 -0.0124
  181EOH      C  728   4.249   0.923   4.463 -0.0919  0.2358  0.0223
  181EOH      H  729   4.094   0.912   4.741 -1.0297 -0.8509 -0.1766
  182EOH      O  730   5.899   0.292   5.134 -0.1525 -0.0985 -0.2538
  182EOH      C  731   6.008   0.274   5.043 -0.1913 -0.3991 -0.2422
  182EOH      C  732   6.003   0.375   4.926  0.5550 -0.1485 -0.0650
  182EOH      H  733   5.935   0.268   5.218  0.2410  0.1646 -0.3444
  183EOH      O  734   6.298   6.175   4.037  0.1303 -0.1546 -0.0382
  183EOH      C  735   6.279   6.315   4.013  0.3008 -0.1487 -0.1410
  183EOH      C  736   6.336   6.385   4.137 -0.2584  0.5829 -0.2931
  183EOH      H  737   6.258   6.141   3.958  1.0494 -0.3931 -0.4021
  184EOH      O  738   1.065   6.267   1.251 -0.4696 -0.1190 -0.0367
  184EOH      C  739   1.030   6.397   1.299  0.0233 -0.0375  0.0974
  184EOH      C  740   1.158   6.460   1.357 -0.1336  0.4500 -0.0882
  184EOH      H  741   0.981   6.226   1.235 -0.7279  0.3513  0.0968
  185EOH      O  742   3.461   1.430   1.970 -0.2074  0.2226 -0.1807
  185EOH      C  743   3.324   1.409   2.004 -0.2104  0.4892 -0.0301
  185EOH      C  744   3.246   1.528   1.945  0.4305  0.7170 -0.4236
  185EOH      H  745   3.510   1.365   2.017  1.0676  0.9584 -0.4660
  186EOH      O  746   3.561   6.119   1.717  0.3062  0.0716  0.0569
  186EOH      C  747   3.553   6.059   1.588  0.2470  0.1402  0.0284
  186EOH      C  748   3.451   6.122   1.493 -0.4442  0.0241  0.6889
  186EOH      H  749   3.567   6.045   1.776  0.0106  0.8850  1.1313
  187EOH      O  750   4.723   3.589   0.478  0.0756  0.1184 -0.1682
  187EOH      C  751   4.804   3.681   0.406 -0.3953  0.3188 -0.4433
  187EOH      C  752   4.926   3.702   0.499 -0.2479  0.2516 -0.6214
  187EOH      H  753   4.777   3.541   0.539  0.3453 -0.5354 -0.9108
  188EOH      O  754   1.558   4.953   1.689  0.1364  0.2605  0.3365
  188EOH      C  755   1.615   5.064   1.619  0.2617  0.1066  0.1969
  188EOH      C  756   1.595   5.022   1.472 -0.2812 -0.1042  0.3286
  188EOH      H  757   1.603   4.873   1.668  0.2427  0.7661 -1.4328
  189EOH      O  758   4.537   5.557   2.300  0.3814 -0.4514  0.3086
  189EOH      C  759   4.404   5.596   2.268  0.2815 -0.9091  0.1662
  189EOH      C  760   4.328   5.611   2.401  0.4394  0.3676  0.1130
  189EOH      H  761   4.558   5.481   2.248 -2.0683 -0.9587  0.0033
  190EOH      O  762   4.246   0.075   4.898 -0.6013  0.2158  0.0500
  190EOH      C  763   4.226   0.179   4.994  0.4581  0.6145 -0.1465
  190EOH      C  764   4.085   0.231   4.959  0.1572  0.1468  0.3474
  190EOH      H  765   4.331   0.035   4.908 -1.9616 -2.6180  0.6503
  191EOH      O  766   4.055   5.295   2.235 -0.0316  0.5214  0.1920
  191EOH      C  767   4.025   5.228   2.113 -0.0549  0.2415  0.3520
  191EOH      C  768   4.141   5.134   2.078 -0.1763  0.0223  0.5323
  191EOH      H  769   4.028   5.385   2.227 -0.4516  0.3575 -0.1722
  192EOH      O  770   5.469   2.536   2.240 -0.1446 -0.3466 -0.2578
  192EOH      C  771   5.482   2.623   2.128 -0.6106  0.1637  0.0868
  192EOH      C  772   5.386   2.584   2.014 -0.5860  0.1665  0.0655
  192EOH      H  773   5.524   2.580   2.302  0.8705  1.0635 -2.1158
  193EOH      O  774   4.056   0.544   2.514 -0.4834 -0.4091  0.1912
  193EOH      C  775   4.149   0.458   2.581  0.1486 -0.0105 -0.1659
  193EOH      C  776   4.294   0.508   2.572  0.3584 -0.5588  0.1336
  193EOH      H  777   3.990   0.572   2.576  0.6857 -1.7917  2.1268
  194EOH      O  778   0.843   6.157   1.189  0.7294  0.1823  0.4794
  194EOH      C  779   0.748   6.070   1.251 -0.0213  0.6135 -0.0544
  194EOH      C  780   0.722   5.956   1.152  0.0595  0.3137  0.2671
  194EOH      H  781   0.793   6.207   1.126  0.4170  2.3487  2.3815
  195EOH      O  782   4.813   4.711   0.265  0.6250  0.1258 -0.0718
  195EOH      C  783   4.920   4.633   0.211  0.4583 -0.1763  0.0334
  195EOH      C  784   5.031   4.652   0.315 -0.3375 -0.0836  0.8718
  195EOH      H  785   4.739   4.717   0.205 -1.1557  0.0864  2.0692
  196EOH      O  786   5.148   3.946   1.288  0.8877 -0.1620 -0.3725
  196EOH      C  787   5.139   4.088   1.274 -0.0360 -0.2093 -0.2688
  196EOH      C  788   5.278   4.149   1.299  0.2503 -0.8423 -0.2990
  196EOH      H  789   5.218   3.925   1.349  1.7392 -0.3433 -1.4040
  197EOH      O  790   4.927   0.147   5.271 -0.3922  0.2807  0.7887
  197EOH      C  791   5.029   0.215   5.197 -0.0013 -0.7019  0.4160
  197EOH      C  792   4.972   0.291   5.075 -0.0001 -0.4465  0.5748
  197EOH      H  793   4.858   0.210   5.284  0.8822  1.6313  1.1287
  198EOH      O  794   3.162   4.293   2.417  0.6200 -0.1041  0.0474
  198EOH      C  795   3.090   4.170   2.419  0.1178  0.1801 -0.3460
  198EOH      C  796   3.154   4.080   2.311  0.0230 -0.1912 -0.0963
  198EOH      H  797   3.243   4.285   2.464 -0.1816  0.4292  1.5596
  199EOH      O  798   0.420   4.971   2.683 -0.1685 -0.1797 -0.9795
  199EOH      C  799   0.346   4.849   2.682  0.2486 -0.4510  0.0752
  199EOH      C  800   0.269   4.824   2.813  0.2288 -0.1489  0.1224
  199EOH      H  801   0.459   4.973   2.597 -1.0222 -2.4677 -1.4567
  200EOH      O  802   2.649   5.288   2.427  0.0318 -0.6923  0.1936
  200EOH      C  803   2.760   5.284   2.517  0.2099 -0.4850 -0.0144
  200EOH      C  804   2.839   5.154   2.494  0.8856 -0.0244 -0.3168
  200EOH      H  805   2.572   5.335   2.456 -0.3264 -1.6691  0.8463
  201EOH      O  806   3.118   2.028   1.467 -0.0417  0.2982  0.0204
  201EOH      C  807   3.228   2.104   1.416 -0.1460  0.1609 -0.4133
  201EOH      C  808   3.226   2.251   1.462 -0.0607  0.0843 -0.1644
  201EOH      H  809   3.156   1.989   1.545  0.3848  0.1368 -0.2698
  202EOH      O  810   5.556   5.459   2.499  0.6633  0.3000  0.7161
  202EOH      C  811   5.424   5.404   2.489  0.9299 -0.2165  0.0559
  202EOH      C  812   5.367   5.436   2.349 -0.0583  0.2331  0.5556
  202EOH      H  813   5.618   5.394   2.472 -0.2462  0.0133 -0.6995
  203EOH      O  814   2.553   5.670   4.992  0.0881  0.1084 -0.1028
  203EOH      C  815   2.649   5.674   4.887  0.3573 -0.6495  0.1091
  203EOH      C  816   2.786   5.705   4.951  0.4017  0.0479 -0.3121
  203EOH      H  817   2.493   5.743   4.987  0.7823  0.5948 -1.5326
  204EOH      O  818   5.344   1.788   4.855  0.1750  0.9778 -0.0159
  204EOH      C  819   5.483   1.757   4.863 -0.0945 -0.2129  0.1507
  204EOH      C  820   5.520   1.608   4.862  0.3661 -0.1028  0.3726
  204EOH      H  821   5.345   1.881   4.837 -0.9412  1.0564  0.2555
  205EOH      O  822   6.096   5.121   4.597  0.2182 -0.8198 -0.1256
  205EOH      C  823   6.173   5.169   4.487 -0.1839  0.0454 -0.0264
  205EOH      C  824   6.095   5.207   4.359 -0.6996  0.3294  0.3681
  205EOH      H  825   6.011   5.158   4.578  1.0433  0.1110 -2.0808
  206EOH      O  826   1.163   0.521   5.588 -0.0371  0.3896  0.1051
  206EOH      C  827   1.215   0.654   5.588  0.6251  0.1351  0.0314
  206EOH      C  828   1.233   0.698   5.735 -0.2657  0.2949  0.0961
  206EOH      H  829   1.127   0.500   5.503 -0.0807 -1.2924  0.5273
  207EOH      O  830   1.111   2.135   1.892  0.0827  0.1636  0.2051
  207EOH      C  831   1.211   2.065   1.819 -0.0931 -0.0054  0.1278
  207EOH      C  832   1.336   2.148   1.853  0.0449 -0.1550 -0.0080
  207EOH      H  833   1.081   2.071   1.955  0.6429 -0.0324  0.2755
  208EOH      O  834   4.051   3.745   3.959  0.3771  0.3767 -0.4054
  208EOH      C  835   3.974   3.719   3.842 -0.2957 -0.2255  0.1640
  208EOH      C  836   4.077   3.653   3.749  0.2111  0.4069  0.2735
  208EOH      H  837   4.117   3.809   3.936 -0.5731  1.8053  0.6779
  209EOH      O  838   0.677   5.581   0.528 -0.4566 -0.2317  0.1818
  209EOH      C  839   0.564   5.531   0.457 -0.0980 -0.0839 -0.4902
  209EOH      C  840   0.596   5.549   0.307 -0.2536 -0.2264 -0.5405
  209EOH      H  841   0.708   5.665   0.498  2.0347 -0.6857  1.3101
  210EOH      O  842   4.787   2.024   1.687  0.0650  0.2939 -0.0750
  210EOH      C  843   4.692   2.121   1.733 -0.1419 -0.0273  0.1794
  210EOH      C  844   4.609   2.182   1.618  0.0324  0.1638  0.1528
  210EOH      H  845   4.868   2.068   1.709 -1.2374  2.2227  1.0788
  211EOH      O  846   1.688   1.411   2.957  0.3178 -0.9990 -0.7896
  211EOH      C  847   1.822   1.390   3.002  0.0628 -0.8336  0.0508
  211EOH      C  848   1.895   1.372   2.868 -0.2585  0.3231 -0.2857
  211EOH      H  849   1.648   1.326   2.950 -1.5077 -0.3886  1.6798
  212EOH      O  850   1.518   6.144   5.475  0.0053  0.0924 -0.1068
  212EOH      C  851   1.617   6.219   5.545  0.3676 -0.3930 -0.0958
  212EOH      C  852   1.628   6.193   5.697  0.6312  0.4477  0.0280
  212EOH      H  853   1.512   6.184   5.390  0.3334  0.0109 -0.1703
  213EOH      O  854   3.938   0.367   0.963  0.0654  0.4183  0.2160
  213EOH      C  855   4.001   0.408   0.842 -0.1170 -0.1245 -0.0643
  213EOH      C  856   4.153   0.416   0.861 -0.1886  0.0764  0.4318
  213EOH      H  857   3.921   0.442   1.018 -4.3121 -1.5665  1.8841
  214EOH      O  858   0.876   1.164   2.938 -0.0078  0.3898 -0.2499
  214EOH      C  859   0.965   1.157   2.826  0.0482  0.1907 -0.1940
  214EOH      C  860   1.098   1.231   2.847  0.0742  0.2150 -0.4429
  214EOH      H  861   0.801   1.118   2.904  0.7608 -0.2991 -1.0284
  215EOH      O  862   2.672   2.757   5.467  0.1183 -0.3762 -0.0670
  215EOH      C  863   2.642   2.879   5.398 -0.1531 -0.3927  0.0211
  215EOH      C  864   2.502   2.871   5.335  0.0292  0.3182 -0.4796
  215EOH      H  865   2.759   2.748   5.502 -0.1585  0.8278  0.9790
  216EOH      O  866   3.897   0.099   5.516 -0.5432 -0.1745  0.0713
  216EOH      C  867   3.882   0.063   5.654  0.3769 -0.2814  0.1467
  216EOH      C  868   3.738   0.084   5.705  0.2984 -0.0046 -0.1885
  216EOH      H  869   3.874   0.021   5.469 -0.2021 -1.0859  1.3781
  217EOH      O  870   5.298   5.316   4.147 -0.1360 -0.3110 -0.3594
  217EOH      C  871   5.191   5.271   4.231  0.0469  0.2793  0.1913
  217EOH      C  872   5.252   5.223   4.364 -0.1024 -0.4010  0.0150
  217EOH      H  873   5.262   5.358   4.071  0.1641  1.1981  0.3211
  218EOH      O  874   4.402   6.234   4.096 -0.2224 -0.4849  0.2758
  218EOH      C  875   4.499   6.238   3.991 -0.5090  0.2410  0.0342
  218EOH      C  876   4.588   6.112   3.992 -0.8218  0.0198  0.1056
  218EOH      H  877   4.439   6.218   4.181 -0.2238  1.2197  0.6181
  219EOH      O  878   3.745   4.735   4.699 -0.0697 -0.2216  0.2535
  219EOH      C  879   3.649   4.649   4.762 -0.2425 -0.1084  0.1436
  219EOH      C  880   3.562   4.587   4.652 -0.4824 -0.0163  0.2800
  219EOH      H  881   3.819   4.739   4.758  2.3520  0.8458 -2.7637
  220EOH      O  882   4.445   0.938   5.423 -0.3030 -0.2447 -1.1870
  220EOH      C  883   4.313   0.884   5.435 -0.3430  0.0379 -0.3345
  220EOH      C  884   4.236   0.933   5.559 -0.4012 -0.7805 -0.0432
  220EOH      H  885   4.431   1.025   5.389 -2.8138  0.2623  0.9585
  221EOH      O  886   0.006   3.243   4.688 -0.1015  0.0757 -0.3661
  221EOH      C  887  -0.090   3.259   4.793  0.1195 -0.3758 -0.0947
  221EOH      C  888  -0.211   3.345   4.750  0.1942 -0.4091 -0.3750
  221EOH      H  889   0.049   3.161   4.702 -0.0670  0.3423  1.1726
  222EOH      O  890   2.668   5.834   1.591 -0.3254 -0.1981  0.7236
  222EOH      C  891   2.552   5.838   1.508  0.5286 -0.3999 -0.4956
  222EOH      C  892   2.435   5.757   1.566  0.3156  0.3142  0.0650
  222EOH      H  893   2.677   5.746   1.623  2.2820 -1.2222 -2.4103
  223EOH      O  894   5.070   5.575   0.226  0.6573  0.2323 -0.5944
  223EOH      C  895   5.187   5.542   0.302  0.2829  0.1855 -0.0363
  223EOH      C  896   5.301   5.546   0.199  0.2179  0.2827 -0.1037
  223EOH      H  897   5.092   5.640   0.161 -1.9125  0.4319 -1.2900
  224EOH      O  898   3.869   0.614   2.653 -0.2472 -0.0222 -0.0515
  224EOH      C  899   3.859   0.599   2.794  0.3222  0.1809  0.0108
  224EOH      C  900   3.831   0.452   2.831 -0.3642  0.1662 -0.5652
  224EOH      H  901   3.868   0.707   2.638  0.2450 -0.1442 -0.8713
  225EOH      O  902   4.772   1.039   1.788  0.2137 -0.1522 -0.4356
  225EOH      C  903   4.673   1.103   1.868  0.2712 -0.2997 -0.2468
  225EOH      C  904   4.538   1.030   1.863 -0.0713  0.2890  0.3161
  225EOH      H  905   4.742   1.047   1.699  1.7085 -0.0307 -0.9442
  226EOH      O  906   1.721   3.736   4.057  0.0302  0.0397  0.0153
  226EOH      C  907   1.836   3.778   4.131  0.0351 -0.4157  0.2668
  226EOH      C  908   1.778   3.881   4.229  0.4753 -0.0190  0.1101
  226EOH      H  909   1.733   3.781   3.975  2.9465  1.7579  1.3123
  227EOH      O  910   5.808   6.105   0.642  0.2487  0.2729  0.1644
  227EOH      C  911   5.849   5.969   0.629  0.1033  0.1996  0.4865
  227EOH      C  912   5.972   5.927   0.712  0.3450 -0.4112 -0.1787
  227EOH      H  913   5.839   6.146   0.721  2.2079 -1.5829  0.3916
  228EOH      O  914   1.786   5.840   1.045 -0.1050  0.3672  0.2185
  228EOH      C  915   1.664   5.791   1.101  0.1827  0.0595  0.5852
  228EOH      C  916   1.647   5.869   1.233 -0.0774  0.9670  0.0224
  228EOH      H  917   1.821   5.781   0.980 -0.9217  0.2345 -0.1022
  229EOH      O  918   4.628   4.207   5.540 -0.0777  0.9516 -0.0616
  229EOH      C  919   4.619   4.243   5.678  0.1040  0.0502  0.1847
  229EOH      C  920   4.753   4.269   5.748  0.1269  0.1867  0.0881
  229EOH      H  921   4.542   4.198   5.502  0.6601  0.6175 -1.6705
  230EOH      O  922   2.271   6.293   4.162 -0.1055  0.0194 -0.2053
  230EOH      C  923   2.227   6.249   4.290 -0.8790  0.1032 -0.4372
  230EOH      C  924   2.222   6.098   4.322 -0.4582  0.1848  0.0313
  230EOH      H  925   2.239   6.382   4.148  0.3561  0.1439 -0.4601
  231EOH      O  926   5.981   3.154   5.411  0.3553  0.1121  0.0923
  231EOH      C  927   5.969   3.287   5.463 -0.0057  0.0222  0.2377
  231EOH      C  928   5.888   3.370   5.363  0.2578 -0.0121 -0.0041
  231EOH      H  929   5.900   3.106   5.424  1.3231 -2.0464 -1.5659
  232EOH      O  930   2.130   5.096   2.474  0.0889 -0.2048  0.1077
  232EOH      C  931   2.067   5.208   2.411  0.5713 -0.0535 -0.1050
  232EOH      C  932   2.100   5.216   2.261 -0.0922 -0.3160 -0.2649
  232EOH      H  933   2.064   5.048   2.522 -1.5571  1.5596 -0.3443
  233EOH      O  934   2.658   0.047   2.218  0.3954 -0.6311  0.2418
  233EOH      C  935   2.758   0.123   2.148 -0.1630 -0.4569 -0.3659
  233EOH      C  936   2.796   0.045   2.021 -0.5790  0.0425 -0.8008
  233EOH      H  937   2.700   0.002   2.290  2.3419 -0.5018 -0.7754
  234EOH      O  938   5.796   1.894   5.713  0.1030 -0.6555  0.3430
  234EOH      C  939   5.700   1.850   5.809 -0.1859  0.1750  0.4352
  234EOH      C  940   5.578   1.936   5.771  0.0875  0.3832  0.0333
  234EOH      H  941   5.829   1.980   5.735 -1.5113 -0.0510  0.4762
  235EOH      O  942   1.004   5.506   0.875  0.0608  0.0346  0.1934
  235EOH      C  943   1.061   5.569   0.760 -0.1196 -0.0802  0.0428
  235EOH      C  944   1.058   5.720   0.790 -0.1104 -0.2476  0.8911
  235EOH      H  945   1.048   5.423   0.885  0.8352  0.5832  1.5018
  236EOH      O  946   4.979   1.406   6.291  0.4390 -0.1382 -0.1224
  236EOH      C  947   4.997   1.293   6.377 -0.1926 -0.3249 -0.2318
  236EOH      C  948   5.092   1.194   6.307  0.4667  0.1286  0.0145
  236EOH      H  949   4.918   1.465   6.333  0.7062 -0.2068  0.3615
  237EOH      O  950   5.784   3.185   1.448  0.4988 -0.4385  0.1210
  237EOH      C  951   5.803   3.172   1.307 -0.0011  0.1989 -0.0126
  237EOH      C  952   5.886   3.046   1.274 -0.1601  0.0503  0.1524
  237EOH      H  953   5.758   3.275   1.467 -2.2337 -0.9759 -0.8282
  238EOH      O  954   5.862   3.369   0.446  0.0964 -0.0208 -0.4947
  238EOH      C  955   5.925   3.494   0.474 -0.4049  0.1161  0.0307
  238EOH      C  956   5.940   3.574   0.343  0.0789 -0.1241 -0.0643
  238EOH      H  957   5.860   3.325   0.529  0.5008  1.5363  0.3732
  239EOH      O  958   3.663   4.597   3.125 -0.0239  0.3692  0.0652
  239EOH      C  959   3.604   4.499   3.041 -0.1807  0.5211 -0.0025
  239EOH      C  960   3.459   4.474   3.088 -0.4231 -0.0195 -1.0021
  239EOH      H  961   3.705   4.548   3.194  1.5518 -0.0562 -1.1714
  240EOH      O  962   6.071   0.506   5.778 -0.4888 -0.5379 -0.1720
  240EOH      C  963   5.937   0.555   5.783 -0.3319 -0.1475  0.3097
  240EOH      C  964   5.932   0.684   5.867  0.0695 -0.2247  0.4510
  240EOH      H  965   6.088   0.477   5.867 -0.4853 -2.1247 -0.6897
  241EOH      O  966   0.139   4.422   2.262  0.1807  0.0107  0.2960
  241EOH      C  967   0.084   4.321   2.178 -1.0508  0.4412  0.5715
  241EOH      C  968   0.063   4.196   2.266  0.5048 -0.2177  0.0199
  241EOH      H  969   0.069   4.457   2.315  0.9609  0.0157  1.3280
  242EOH      O  970   4.740   3.248   0.783 -0.0474 -0.5571 -0.2155
  242EOH      C  971   4.661   3.211   0.897 -0.2305  0.2295 -0.0774
  242EOH      C  972   4.743   3.232   1.025 -0.1781  0.3059 -0.1233
  242EOH      H  973   4.703   3.211   0.705 -1.8955  0.3688  0.1863
  243EOH      O  974   5.205   5.573   5.400  0.1169  0.3303  0.0047
  243EOH      C  975   5.310   5.585   5.496 -0.0451  0.0380  0.2179
  243EOH      C  976   5.432   5.498   5.459 -0.1418 -0.1354  0.3038
  243EOH      H  977   5.154   5.650   5.416  0.2244  0.3503  0.2552
  244EOH      O  978   4.245   3.557   1.936 -0.0344 -0.0490 -0.0696
  244EOH      C  979   4.371   3.563   2.002 -0.0419  0.1034 -0.0696
  244EOH      C  980   4.395   3.434   2.084  0.4597  0.4596  0.3456
  244EOH      H  981   4.218   3.647   1.926  0.7132  0.4644  2.2232
  245EOH      O  982   2.995   0.721   0.709 -0.0915 -0.1082 -0.4880
  245EOH      C  983   3.132   0.734   0.670  0.0305 -0.0709 -0.0544
  245EOH      C  984   3.175   0.882   0.661 -0.0498 -0.0690 -0.4250
  245EOH      H  985   2.951   0.648   0.669  0.3758 -0.6414 -0.0460
  246EOH      O  986   1.496   5.095   2.712 -0.4476 -0.4520 -0.2457
  246EOH      C  987   1.492   4.960   2.665  0.0231 -0.6784  0.3507
  246EOH      C  988   1.362   4.886   2.698 -0.2979 -0.4319 -0.3442
  246EOH      H  989   1.587   5.103   2.736 -0.1882 -1.2113 -0.9557
  247EOH      O  990   1.020   4.178   2.641  0.5109 -0.4629 -0.4064
  247EOH      C  991   1.135   4.243   2.696 -0.5164  0.8330  0.2537
  247EOH      C  992   1.145   4.193   2.841  0.4949 -0.4537 -0.2473
  247EOH      H  993   0.950   4.241   2.651 -0.7185 -1.6709 -1.2225
  248EOH      O  994   3.883   2.999   3.096  0.1322 -0.5076  0.6009
  248EOH      C  995   3.969   3.023   3.207  0.6056 -0.8070  0.2982
  248EOH      C  996   4.113   2.972   3.188  0.5822 -0.6211 -0.3721
  248EOH      H  997   3.792   3.017   3.116  0.0934 -0.9936  0.8499
  249EOH      O  998   1.694   3.150   0.679  0.5498  0.7933 -0.6496
  249EOH      C  999   1.593   3.246   0.645  0.1686  0.4476 -0.4976
  249EOH      C 1000   1.468   3.166   0.603 -0.0941  0.2755  0.5906
  249EOH      H 1001   1.755   3.200   0.730 -1.2219  0.5754  1.7841
  250EOH      O 1002   5.862   0.545   0.828 -0.5565  0.2980  0.7347
  250EOH      C 1003   5.817   0.603   0.705  0.3443  0.3036  0.4017
  250EOH      C 1004   5.931   0.581   0.605 -0.1723 -0.0897 -0.1049
  250EOH      H 1005   5.792   0.556   0.891 -1.6868  1.8733 -0.7401
  251EOH      O 1006   5.133   2.367   3.046  0.6382  0.0490 -0.5064
  251EOH      C 1007   5.223   2.475   3.024  0.1066  0.5632 -0.1662
  251EOH      C 1008   5.161   2.613   3.055 -0.0078  0.4359  0.1818
  251EOH      H 1009   5.068   2.362   2.977 -1.6361 -1.7173  1.6310
  252EOH      O 1010   6.217   0.684   2.399 -0.4581 -0.8255 -0.6251
  252EOH      C 1011   6.310   0.656   2.504 -0.6288 -0.4536 -0.3738
  252EOH      C 1012   6.287   0.516   2.564 -0.0939 -0.4682 -0.1953
  252EOH      H 1013   6.236   0.768   2.360  0.5689 -1.1793 -0.8941
  253EOH      O 1014   0.615   5.498   4.074 -0.2003  0.1133  0.1277
  253EOH      C 1015   0.660   5.412   3.969  0.5224  0.0476  0.4864
  253EOH      C 1016   0.682   5.272   4.030 -0.0067 -0.4787 -0.5174
  253EOH      H 1017   0.659   5.488   4.157  1.6189  1.5829 -0.6107
  254EOH      O 1018   2.143   0.845   1.396  0.3701  0.0558  0.0195
  254EOH      C 1019   2.196   0.975   1.423 -0.3799  0.3074  0.2791
  254EOH      C 1020   2.145   1.032   1.557  0.7808  0.3630  0.6982
  254EOH      H 1021   2.169   0.804   1.315 -0.5136 -2.2718  0.8807
  255EOH      O 1022   1.170   6.062   1.343  0.2768 -0.3220  0.0197
  255EOH      C 1023   1.154   6.066   1.485 -0.2119  0.3826 -0.0583
  255EOH      C 1024   1.274   6.005   1.559 -0.0212 -0.4490 -1.0364
  255EOH      H 1025   1.122   6.131   1.301 -1.4130  0.8062  3.7013
  256EOH      O 1026   0.953   4.006   4.205 -0.2608 -0.1393 -0.1449
  256EOH      C 1027   1.056   3.977   4.300 -0.5241  0.6561  0.3921
  256EOH      C 1028   1.045   3.829   4.343  0.1836  0.2672 -0.7467
  256EOH      H 1029   0.961   4.099   4.189  2.3369  0.0268  1.6661
  257EOH      O 1030   0.927   1.138   1.802 -0.2028 -0.0530  0.3463
  257EOH      C 1031   0.858   1.258   1.838 -0.2514  0.0447 -0.0698
  257EOH      C 1032   0.868   1.271   1.991  0.1250 -0.1001 -0.0796
  257EOH      H 1033   1.016   1.151   1.832  0.2126  0.2483 -0.9633
  258EOH      O 1034   6.219   0.925   2.298  0.2742 -0.3356 -0.4502
  258EOH      C 1035   6.158   1.007   2.198  0.1882 -0.0738 -0.1845
  258EOH      C 1036   6.056   0.945   2.101 -0.0548  0.4289 -0.2549
  258EOH      H 1037   6.252   0.986   2.363  2.1162 -0.1389 -1.5502
  259EOH      O 1038   2.374   2.647   3.163  0.1063 -0.0185  0.5211
  259EOH      C 1039   2.450   2.644   3.284  0.2212  0.3262  0.4590
  259EOH      C 1040   2.443   2.776   3.362 -0.3572  0.6115 -0.0716
  259EOH      H 1041   2.363   2.557   3.138 -1.7851  0.0887  0.9006
  260EOH      O 1042   0.030   1.877   4.932 -0.3789 -0.1712 -0.0126
  260EOH      C 1043   0.049   1.975   5.033 -0.0024 -0.0953 -0.1582
  260EOH      C 1044   0.084   1.909   5.168 -0.3328  0.3418  0.1448
  260EOH      H 1045  -0.059   1.845   4.938 -0.3729 -0.0413  0.8124
  261EOH      O 1046   6.138   4.004   1.398  0.6595  0.4374 -0.0548
  261EOH      C 1047   6.009   4.039   1.346  0.4009  0.2228  0.4363
  261EOH      C 1048   6.000   4.192   1.351 -0.8151  0.1815 -0.2671
  261EOH      H 1049   6.147   3.912   1.376  0.7153  0.5143 -0.3614
  262EOH      O 1050   1.634   3.407   2.321 -0.1680  0.2348 -0.1781
  262EOH      C 1051   1.767   3.447   2.290  0.0082 -0.0851  0.1623
  262EOH      C 1052   1.750   3.515   2.153 -0.1882 -0.3216  0.0695
  262EOH      H 1053   1.608   3.342   2.257 -1.6098  0.3746  0.2481
  263EOH      O 1054   0.188   4.744   5.299 -0.2299 -0.1291  0.2880
  263EOH      C 1055   0.214   4.877   5.345 -0.3041 -0.0154  0.0014
  263EOH      C 1056   0.137   4.918   5.472 -0.1287  0.4845 -0.0525
  263EOH      H 1057   0.240   4.734   5.222 -1.2083  0.1849 -0.4215
  264EOH      O 1058   5.397   4.456   5.522 -0.7479 -0.0435 -0.4131
  264EOH      C 1059   5.323   4.378   5.616  0.0219  0.0776  0.3059
  264EOH      C 1060   5.402   4.254   5.664  0.3581  0.2921  0.3063
  264EOH      H 1061   5.467   4.405   5.484 -1.0753 -0.5229 -0.3717
  265EOH      O 1062   2.320   5.844   2.448  0.0818 -0.0128 -0.2852
  265EOH      C 1063   2.387   5.936   2.536  0.0549 -0.0669 -0.2092
  265EOH      C 1064   2.321   6.075   2.541 -0.0766 -0.1450  0.2292
  265EOH      H 1065   2.228   5.862   2.455 -0.0187 -0.2364 -1.0515
  266EOH      O 1066   4.986   6.247   4.830 -0.6106 -0.6168  0.1209
  266EOH      C 1067   4.939   6.230   4.964 -0.5989 -0.0384  0.2023
  266EOH      C 1068   5.038   6.160   5.058 -0.0801  0.2517 -0.1310
  266EOH      H 1069   4.920   6.276   4.768 -1.3692 -0.1536  1.1272
  267EOH      O 1070   3.364   6.203   3.486 -0.1262 -0.0027  0.0891
  267EOH      C 1071   3.447   6.264   3.586  0.0728 -0.1227 -0.0019
  267EOH      C 1072   3.425   6.185   3.716  0.4805  0.1172  0.2133
  267EOH      H 1073   3.275   6.231   3.494 -1.4587 -3.3885 -1.8338
  268EOH      O 1074   6.198   1.214   6.277 -0.0069 -0.3563  0.3897
  268EOH      C 1075   6.313   1.288   6.319 -0.4292  0.2127  0.5456
  268EOH      C 1076   6.294   1.417   6.237 -0.7432 -0.0132  0.2602
  268EOH      H 1077   6.130   1.237   6.338 -0.0597 -2.3420  1.1374
  269EOH      O 1078   2.804   1.066   0.199 -0.2250 -0.1299 -0.1179
  269EOH      C 1079   2.826   0.935   0.251 -0.4728 -0.3230 -0.4941
  269EOH      C 1080   2.700   0.881   0.322 -0.1149 -0.4114  0.0779
  269EOH      H 1081   2.890   1.103   0.190  0.1130 -0.4466  1.6707
  270EOH      O 1082   0.572   5.394   5.054  0.0234 -0.0384 -0.2058
  270EOH      C 1083   0.448   5.328   5.029  0.1817 -0.2125 -0.5349
  270EOH      C 1084   0.454   5.183   5.080  0.5630 -0.1949 -0.5316
  270EOH      H 1085   0.575   5.404   5.148  0.7746 -2.6279  0.0775
  271EOH      O 1086   6.270   1.714   3.154  0.4242  0.5965  0.2055
  271EOH      C 1087   6.140   1.697   3.097  0.2972  0.5400  0.5068
  271EOH      C 1088   6.029   1.663   3.198  0.2889  0.3650  0.4390
  271EOH      H 1089   6.334   1.697   3.086 -1.0856 -2.0857 -0.5782
  272EOH      O 1090   3.052   2.278   0.774  0.0065 -0.4768  0.1416
  272EOH      C 1091   3.080   2.141   0.799 -0.0921 -0.4583  0.3492
  272EOH      C 1092   3.104   2.053   0.675  0.0750 -0.3104  0.2766
  272EOH      H 1093   3.132   2.328   0.760 -0.6747  0.6760  0.2780
  273EOH      O 1094   1.779   3.326   3.361  0.8648 -0.6707  0.5164
  273EOH      C 1095   1.636   3.317   3.358  0.7942  0.4174  0.4316
  273EOH      C 1096   1.577   3.423   3.452 -0.6912  0.1132 -0.1442
  273EOH      H 1097   1.802   3.393   3.298  0.4163 -0.1237  0.9186
  274EOH      O 1098   5.597   3.221   2.581  0.2605 -0.7737 -0.1851
  274EOH      C 1099   5.700   3.199   2.678  0.1000  0.4289  0.2730
  274EOH      C 1100   5.823   3.139   2.607 -0.4154 -0.4260  0.0933
  274EOH      H 1101   5.544   3.292   2.614  0.1988 -0.7139 -0.4139
  275EOH      O 1102   5.057   5.295   5.965 -0.0842  0.0401 -0.0985
  275EOH      C 1103   5.127   5.171   5.946  0.3934  0.2736  0.1436
  275EOH      C 1104   5.143   5.116   6.089  0.1000 -0.3614 -0.0698
  275EOH      H 1105   4.965   5.291   5.943 -0.3835 -0.3618  1.1702
  276EOH      O 1106   5.620   4.365   5.441 -0.1144  0.3453  0.2876
  276EOH      C 1107   5.732   4.399   5.524 -0.1524  0.6713  0.2060
  276EOH      C 1108   5.744   4.310   5.649  0.5839  0.1633 -0.2245
  276EOH      H 1109   5.648   4.351   5.352 -1.6351  0.0465 -0.1443
  277EOH      O 1110   3.405   5.335   0.964  0.0299 -0.2337  0.0448
  277EOH      C 1111   3.366   5.428   0.862 -0.5059  0.1534  0.5955
  277EOH      C 1112   3.461   5.546   0.837 -0.0746 -0.3487 -0.1524
  277EOH      H 1113   3.422   5.257   0.915 -1.9537 -0.8155  0.2291
  278EOH      O 1114   3.701   0.464   4.298 -0.0607  0.1127 -0.2736
  278EOH      C 1115   3.763   0.393   4.405  0.0303  0.0886 -0.3435
  278EOH      C 1116   3.684   0.265   4.435  0.6152 -0.1122  0.3381
  278EOH      H 1117   3.742   0.548   4.309 -0.1922 -0.1967  2.9099
  279EOH      O 1118   2.282   0.641   5.996  0.3148 -0.2980 -0.2608
  279EOH      C 1119   2.237   0.702   5.875 -0.0607 -0.0452  0.0042
  279EOH      C 1120   2.091   0.652   5.872  0.0880 -0.4726 -0.1968
  279EOH      H 1121   2.297   0.703   6.065  1.0030 -1.1050  0.3278
  280EOH      O 1122   6.140   0.229   3.017 -0.0144 -0.3560 -0.4995
  280EOH      C 1123   6.169   0.227   2.877  0.0011 -0.1038 -0.5006
  280EOH      C 1124   6.046   0.295   2.813 -0.5379 -0.1684  0.4444
  280EOH      H 1125   6.148   0.317   3.051  0.2060 -1.4004  2.2942
  281EOH      O 1126   3.399   5.879   6.273 -0.3269 -0.3326 -0.3341
  281EOH      C 1127   3.517   5.799   6.258  0.0913  0.2275 -0.0458
  281EOH      C 1128   3.559   5.781   6.111 -0.3773  0.0254 -0.1552
  281EOH      H 1129   3.329   5.830   6.312  0.8312 -1.1052  0.8230
  282EOH      O 1130   5.726   3.801   5.240 -0.2984  0.0075  0.1733
  282EOH      C 1131   5.636   3.768   5.134 -0.0037 -0.4281  0.0576
  282EOH      C 1132   5.534   3.881   5.110 -0.1960 -0.6522 -0.1819
  282EOH      H 1133   5.691   3.781   5.326 -3.1578 -2.0665 -1.4010
  283EOH      O 1134   3.455   0.073   2.752 -0.1093  0.0993  0.0694
  283EOH      C 1135   3.506   0.025   2.876 -0.0921  0.1278  0.0738
  283EOH      C 1136   3.419  -0.094   2.919  0.2077 -0.2574 -0.3882
  283EOH      H 1137   3.440   0.163   2.776  2.3957  0.1469  1.6377
  284EOH      O 1138   1.493   2.125   3.355  0.5806  0.1972 -0.0420
  284EOH      C 1139   1.606   2.053   3.404  0.2995 -0.1806  0.0582
  284EOH      C 1140   1.690   1.985   3.295  0.3228  0.3323 -0.2467
  284EOH      H 1141   1.438   2.137   3.431 -1.4440  2.7352 -1.7947
  285EOH      O 1142   1.626   0.739   5.383  0.2121  0.5391 -0.4641
  285EOH      C 1143   1.553   0.861   5.365 -0.3202  0.2745 -0.1166
  285EOH      C 1144   1.646   0.956   5.287  0.2873  0.1922  0.4968
  285EOH      H 1145   1.571   0.662   5.387 -0.6319  1.0881 -1.2995
  286EOH      O 1146   2.939   4.030   0.173 -0.3909 -0.0108  0.5925
  286EOH      C 1147   3.013   4.106   0.268 -0.3281 -0.0792  0.5979
  286EOH      C 1148   3.058   4.014   0.384 -0.2857 -0.4943  0.2510
  286EOH      H 1149   2.998   3.972   0.129 -0.1838 -0.1588  1.0682
  287EOH      O 1150   2.977   2.663   4.685  0.2005 -0.2755 -0.2780
  287EOH      C 1151   3.012   2.801   4.675 -0.0938 -0.2441 -0.8810
  287EOH      C 1152   2.908   2.866   4.581 -0.0715  0.0197 -0.7257
  287EOH      H 1153   2.925   2.652   4.764 -0.3263 -0.3144 -0.6325
  288EOH      O 1154   5.438   3.852   1.445 -0.1200 -0.2108 -0.0439
  288EOH      C 1155   5.570   3.796   1.446  0.0832  0.2717 -0.0974
  288EOH      C 1156   5.659   3.885   1.357  0.4572  0.1950  0.1965
  288EOH      H 1157   5.385   3.779   1.475  0.9737 -1.6815 -1.5469
  289EOH      O 1158   4.583   1.431   5.448 -0.4308 -0.0334 -0.3130
  289EOH      C 1159   4.590   1.573   5.460  0.5606 -0.1219  0.2325
  289EOH      C 1160   4.514   1.650   5.351  0.0010 -0.3798  0.4342
  289EOH      H 1161   4.668   1.389   5.449  0.0881  0.9848  1.1004
  290EOH      O 1162   2.384   5.568   3.793  0.0006 -0.6544 -0.4049
  290EOH      C 1163   2.438   5.512   3.913 -0.1487 -0.6432 -0.3335
  290EOH      C 1164   2.531   5.398   3.868  0.6662 -0.2911  0.4527
  290EOH      H 1165   2.371   5.659   3.817  1.4079 -0.6074  0.2445
  291EOH      O 1166   1.838   1.217   4.721  0.0519 -0.2712 -0.2295
  291EOH      C 1167   1.834   1.250   4.582 -0.5801 -0.5905 -0.2855
  291EOH      C 1168   1.850   1.401   4.553  0.6038 -0.7771 -0.6052
  291EOH      H 1169   1.749   1.203   4.747 -0.5981  0.2735 -2.1032
  292EOH      O 1170   3.494   2.664   5.148 -0.2019 -0.1963 -0.0302
  292EOH      C 1171   3.490   2.773   5.055  0.1507 -0.1973 -0.0461
  292EOH      C 1172   3.503   2.723   4.910 -0.2145 -0.3810 -0.0155
  292EOH      H 1173   3.577   2.667   5.193 -0.4567 -0.9836  0.5007
  293EOH      O 1174   2.928   1.234   2.198  0.1596 -0.1242 -0.2273
  293EOH      C 1175   2.914   1.363   2.258  0.3724 -0.2778  0.1537
  293EOH      C 1176   2.853   1.346   2.399 -0.6884  0.2763 -0.2292
  293EOH      H 1177   2.940   1.257   2.107  1.0945 -1.7173 -0.5176
  294EOH      O 1178   4.912   5.258   4.773  0.1881  0.0841 -0.1824
  294EOH      C 1179   4.928   5.118   4.748  0.0786  0.0505 -0.0661
  294EOH      C 1180   4.842   5.048   4.641 -0.2212 -0.4330  0.4864
  294EOH      H 1181   4.970   5.283   4.843  0.3456  0.0810 -0.3125
  295EOH      O 1182   1.464   5.151   5.109  0.3284  0.1252  0.5007
  295EOH      C 1183   1.520   5.164   4.978  0.7746 -0.2062  0.6596
  295EOH      C 1184   1.656   5.092   4.970  0.4506 -0.7158 -0.4189
  295EOH      H 1185   1.428   5.064   5.117  3.6296 -1.3419  0.1627
  296EOH      O 1186   1.576   5.027   4.005 -0.4003  0.1770  0.4957
  296EOH      C 1187   1.656   4.935   3.930 -0.0698  0.5442  0.3986
  296EOH      C 1188   1.780   4.897   4.013  0.0729  0.0852 -0.0258
  296EOH      H 1189   1.518   5.070   3.944  1.9574  0.8815 -1.3355
  297EOH      O 1190   5.899   1.684   2.501  0.0551  0.0366 -0.0951
  297EOH      C 1191   5.943   1.658   2.368  0.6861  0.0194  0.1114
  297EOH      C 1192   5.922   1.508   2.341  0.5356  0.1715 -0.6501
  297EOH      H 1193   5.821   1.737   2.506 -1.3794 -1.8621 -1.6404
  298EOH      O 1194   5.328   4.683   5.421 -0.3612  0.3041 -0.1852
  298EOH      C 1195   5.411   4.758   5.331 -0.1790 -0.0780 -0.3411
  298EOH      C 1196   5.317   4.869   5.278 -0.0195  0.2109 -0.0187
  298EOH      H 1197   5.376   4.605   5.444  0.9095  1.1248  0.0336
  299EOH      O 1198   4.357   6.125   2.145 -0.0889  0.0094 -0.5713
  299EOH      C 1199   4.385   6.014   2.059 -0.1458  0.1201 -0.7335
  299EOH      C 1200   4.539   6.007   2.052 -0.1418 -0.8212  0.2001
  299EOH      H 1201   4.379   6.206   2.100 -2.7002 -0.0069 -1.9423
  300EOH      O 1202   5.456   2.564   3.342  0.2504 -0.1307 -0.2829
  300EOH      C 1203   5.387   2.451   3.395 -0.4151  0.0419 -0.7604
  300EOH      C 1204   5.492   2.343   3.425 -0.6943 -0.0580 -0.1366
  300EOH      H 1205   5.510   2.588   3.415 -1.3245 -0.5057  1.0396
  301EOH      O 1206   4.696   5.464   1.896 -0.0474  0.0272 -0.5823
  301EOH      C 1207   4.829   5.517   1.886  0.1723 -0.3674  0.1581
  301EOH      C 1208   4.847   5.629   1.990 -0.7866 -0.0163 -0.0442
  301EOH      H 1209   4.689   5.397   1.831 -0.2629 -0.2541 -0.2699
  302EOH      O 1210   4.379   5.460   1.527  0.4943  0.4746  0.5236
  302EOH      C 1211   4.419   5.532   1.409 -0.2353 -0.1432 -0.1043
  302EOH      C 1212   4.569   5.566   1.415 -0.1082 -0.6982 -0.1224
  302EOH      H 1213   4.409   5.509   1.601  0.8590  0.8854  0.1090
  303EOH      O 1214   2.857   4.742   4.643 -0.6009  0.2528  0.2628
  303EOH      C 1215   2.857   4.859   4.561 -1.0768  0.1481  0.1159
  303EOH      C 1216   2.861   4.993   4.637  0.3353  0.2731 -0.1719
  303EOH      H 1217   2.901   4.673   4.596 -0.3301 -0.3800  1.4235
  304EOH      O 1218   2.957   3.138   5.001 -0.0448 -0.2693 -0.4352
  304EOH      C 1219   2.949   3.011   5.066  0.3478 -0.2378 -0.3279
  304EOH      C 1220   3.093   2.957   5.053  0.3966 -0.0316 -0.6434
  304EOH      H 1221   2.875   3.185   5.012 -0.4901 -1.4602  1.5960
  305EOH      O 1222   2.965   2.709   0.897  0.5501 -0.0277  0.2082
  305EOH      C 1223   2.966   2.704   0.754  0.5127 -0.0647  0.2093
  305EOH      C 1224   3.037   2.837   0.721 -0.0522  0.1246 -0.2588
  305EOH      H 1225   2.911   2.633   0.912  2.7172 -1.5822  0.3197
  306EOH      O 1226   0.649   4.954   5.880 -0.0112  0.8518  0.1064
  306EOH      C 1227   0.546   5.021   5.954 -0.2448  0.1745  0.4032
  306EOH      C 1228   0.487   5.123   5.854  0.2368  0.0699  0.0082
  306EOH      H 1229   0.644   4.866   5.915 -2.1220  0.3008 -1.4788
  307EOH      O 1230   1.222   2.675   3.459  0.0622  0.0766  0.2190
  307EOH      C 1231   1.281   2.594   3.356  0.3889  0.3885  0.1613
  307EOH      C 1232   1.200   2.617   3.227 -0.7225 -0.1252  0.7682
  307EOH      H 1233   1.144   2.626   3.481 -0.4524  0.7433 -0.1230
  308EOH      O 1234   0.822   3.796   5.294  0.2769  0.6401 -0.3295
  308EOH      C 1235   0.803   3.789   5.436 -0.0044  0.0161 -0.3942
  308EOH      C 1236   0.678   3.870   5.476  0.1721 -0.0881  0.3599
  308EOH      H 1237   0.910   3.766   5.276 -0.3330 -0.7892 -1.0135
  309EOH      O 1238   3.058   2.121   4.470  0.0403  0.2084 -0.1280
  309EOH      C 1239   3.046   2.217   4.364  0.6046  0.8181  0.3546
  309EOH      C 1240   3.090   2.154   4.231  0.9734  0.0063  0.8599
  309EOH      H 1241   3.148   2.122   4.498  0.0933 -1.6283 -0.1651
  310EOH      O 1242   3.988   1.991   2.385  0.6362 -0.1203  0.4595
  310EOH      C 1243   3.969   2.130   2.414  0.0463 -0.1013 -0.0154
  310EOH      C 1244   4.105   2.184   2.461  0.0875 -0.1055 -0.1281
  310EOH      H 1245   4.004   1.944   2.466 -0.5824 -0.8406  0.2964
  311EOH      O 1246   1.300   3.618   5.825 -0.9301 -0.4566 -0.4501
  311EOH      C 1247   1.180   3.635   5.901 -0.3650 -0.2741  0.4113
  311EOH      C 1248   1.085   3.732   5.828  0.7456  0.2081 -0.4196
  311EOH      H 1249   1.338   3.540   5.863  0.1575 -0.3046 -1.1778
  312EOH      O 1250   5.225   5.056   0.618  0.2427 -0.1618  0.0845
  312EOH      C 1251   5.136   5.136   0.696  0.0740 -0.2156 -0.0534
  312EOH      C 1252   5.059   5.226   0.597  0.0871 -0.2386 -0.0845
  312EOH      H 1253   5.315   5.081   0.632  0.8516 -2.0105 -0.3109
  313EOH      O 1254   6.139   3.263   0.927  0.2741 -0.1231 -0.6229
  313EOH      C 1255   6.252   3.176   0.925 -0.1743 -0.7450  0.3543
  313EOH      C 1256   6.285   3.116   1.063 -0.2277 -0.1833  0.6150
  313EOH      H 1257   6.161   3.333   0.868 -0.9711  1.6599  0.9519
  314EOH      O 1258   3.601   0.484   0.129  0.2878 -0.2847  0.6797
  314EOH      C 1259   3.484   0.461   0.049  0.3112  0.2582  0.4866
  314EOH      C 1260   3.417   0.332   0.100  0.0611  0.2693  0.1853
  314EOH      H 1261   3.595   0.578   0.126 -1.6039 -0.3870  0.3247
  315EOH      O 1262   3.797   5.189   2.674  0.4167 -0.7615  0.4338
  315EOH      C 1263   3.670   5.135   2.711  0.1703 -0.0790  0.5927
  315EOH      C 1264   3.560   5.242   2.728  0.0561 -0.1180  0.1260
  315EOH      H 1265   3.865   5.123   2.678  0.5271 -0.7397 -0.8701
  316EOH      O 1266   1.969   4.486   1.012 -0.6829  0.3622  0.3408
  316EOH      C 1267   1.950   4.411   1.132 -0.5322  0.1741  0.2477
  316EOH      C 1268   1.883   4.274   1.109 -0.7689  0.3824 -0.3052
  316EOH      H 1269   1.980   4.571   1.052 -1.1996  0.1229  1.0018
  317EOH      O 1270   4.351   2.224   1.132  0.2551 -0.2884  0.3540
  317EOH      C 1271   4.432   2.151   1.225  0.1779 -0.8803 -0.0386
  317EOH      C 1272   4.567   2.222   1.250 -0.0661 -0.3249 -0.2854
  317EOH      H 1273   4.396   2.237   1.050 -1.9486  0.8791 -0.7024
  318EOH      O 1274   2.686   4.553   0.315  0.4426  0.3959  0.0498
  318EOH      C 1275   2.691   4.501   0.448  0.1491  0.1268 -0.0436
  318EOH      C 1276   2.774   4.372   0.436 -0.8511 -0.5049 -0.2094
  318EOH      H 1277   2.610   4.608   0.304  0.2554 -0.2633 -2.4327
  319EOH      O 1278   2.676   2.626   3.886 -0.0623 -0.5756  0.4353
  319EOH      C 1279   2.544   2.593   3.932 -0.0340 -0.7330  0.4014
  319EOH      C 1280   2.447   2.622   3.816  0.0901  0.1661  0.5189
  319EOH      H 1281   2.714   2.570   3.820 -0.6259  1.2205 -1.4676
  320EOH      O 1282   6.112   4.535   2.881 -0.5058  0.0967  1.0816
  320EOH      C 1283   6.180   4.416   2.923 -0.8553 -0.4173  0.2160
  320EOH      C 1284   6.205   4.319   2.806 -0.0081  0.4739 -0.3502
  320EOH      H 1285   6.144   4.607   2.932  2.0929  0.0603 -0.3922
  321EOH      O 1286   5.003   1.482   6.022  0.0395  0.1072  0.3687
  321EOH      C 1287   4.924   1.382   5.956  0.2317  0.4107 -0.3288
  321EOH      C 1288   4.957   1.242   6.010  0.8702  0.6720 -0.0301
  321EOH      H 1289   4.991   1.451   6.110 -2.8077 -0.4694 -0.1842
  322EOH      O 1290   3.939   5.374   2.764  0.0765 -0.4046  0.1188
  322EOH      C 1291   3.872   5.500   2.760  0.1578 -0.3672 -0.0961
  322EOH      C 1292   3.949   5.613   2.832 -0.2922  0.2704 -0.6053
  322EOH      H 1293   3.886   5.302   2.732 -0.2928  0.4438 -1.2338
  323EOH      O 1294   4.766   6.072   5.318  0.2505 -0.5743  0.0342
  323EOH      C 1295   4.828   5.943   5.317 -0.2137 -0.8058  0.5094
  323EOH      C 1296   4.796   5.863   5.189  0.2604 -0.2468  0.0345
  323EOH      H 1297   4.834   6.132   5.345 -0.2853  0.1918 -0.3199
  324EOH      O 1298   0.291   1.423   3.942 -0.8372  0.2487  0.2296
  324EOH      C 1299   0.254   1.560   3.963 -0.0360  0.4975  0.0355
  324EOH      C 1300   0.233   1.635   3.830 -0.2318  0.5523  0.0973
  324EOH      H 1301   0.279   1.380   4.024 -1.9637  1.6062  0.7964
  325EOH      O 1302   3.065   6.044   5.964  0.2587 -0.0822 -0.0388
  325EOH      C 1303   3.103   5.909   5.993  0.2973  0.0138  0.3665
  325EOH      C 1304   3.087   5.810   5.875  0.1339 -0.0758  0.4636
  325EOH      H 1305   3.147   6.090   5.974  2.3136 -2.8573 -3.0518
  326EOH      O 1306   3.464   1.116   1.457 -0.0472  0.3406 -0.7064
  326EOH      C 1307   3.464   1.254   1.417  0.2239  0.3933 -0.5229
  326EOH      C 1308   3.609   1.299   1.390  0.5282 -0.1111  0.2260
  326EOH      H 1309   3.375   1.090   1.476  0.0541 -0.4099 -1.2122
  327EOH      O 1310   1.336   3.158   3.855  0.1132 -0.1755  0.7146
  327EOH      C 1311   1.302   3.278   3.786  0.1909 -0.6185 -0.0962
  327EOH      C 1312   1.396   3.397   3.809 -0.0476 -0.4655  0.0951
  327EOH      H 1313   1.285   3.088   3.818  0.8213 -0.6048  0.5469
  328EOH      O 1314   5.954   0.696   0.022  0.2334  0.0540 -0.0184
  328EOH      C 1315   5.967   0.581  -0.061  0.1898 -0.3899  0.5890
  328EOH      C 1316   5.826   0.534  -0.100 -0.0697  0.3486  0.6518
  328EOH      H 1317   6.039   0.734   0.039 -0.4549  0.7645  2.0009
  329EOH      O 1318   1.775   1.810   4.639 -0.5213 -0.5412  0.3571
  329EOH      C 1319   1.732   1.758   4.513  0.2050 -0.2724 -0.0033
  329EOH      C 1320   1.609   1.837   4.464 -0.1918 -0.7346  0.2382
  329EOH      H 1321   1.869   1.802   4.645 -0.1871  3.0448  0.7608
  330EOH      O 1322   1.140   1.355   4.292 -0.1227 -0.2195  0.2668
  330EOH      C 1323   1.088   1.381   4.161  0.5057  0.0403  0.0640
  330EOH      C 1324   0.965   1.473   4.180  0.3913 -0.1047  0.0306
  330EOH      H 1325   1.161   1.438   4.332 -2.6719 -0.3757  2.0306
  331EOH      O 1326   0.040   3.791   1.525 -0.3187 -0.5284  0.0538
  331EOH      C 1327   0.120   3.730   1.627 -0.3526 -0.4271  0.1418
  331EOH      C 1328   0.181   3.606   1.559 -0.3210 -0.0786 -0.4687
  331EOH      H 1329   0.075   3.878   1.518  0.2188 -0.8446 -1.1698
  332EOH      O 1330   6.214   2.465   1.034  0.2781 -0.0783 -0.1757
  332EOH      C 1331   6.112   2.373   0.994 -0.2060  0.5759 -0.4493
  332EOH      C 1332   6.117   2.360   0.840 -0.2021  0.2224 -0.4190
  332EOH      H 1333   6.190   2.495   1.121  1.3473  1.7159 -0.4831
  333EOH      O 1334   4.733   3.337   4.399 -0.1511 -0.7982  0.1611
  333EOH      C 1335   4.745   3.480   4.399  0.4447 -0.8457 -0.1018
  333EOH      C 1336   4.832   3.531   4.283  0.5543 -0.0870  0.3087
  333EOH      H 1337   4.808   3.296   4.360 -0.8091 -3.1985  1.3628
  334EOH      O 1338   3.835   0.389   3.636  0.5254 -0.5701  0.1079
  334EOH      C 1339   3.726   0.355   3.550  0.4539  0.5666 -0.2536
  334EOH      C 1340   3.664   0.476   3.478  0.2793 -0.0358 -1.1343
  334EOH      H 1341   3.920   0.359   3.605  0.1871 -2.2461  0.7297
  335EOH      O 1342   0.703   4.240   0.828  0.6629 -0.5772  0.3840
  335EOH      C 1343   0.784   4.312   0.734 -0.5391  0.1216 -0.1298
  335EOH      C 1344   0.779   4.232   0.603 -0.3163 -0.1388  0.0191
  335EOH      H 1345   0.768   4.190   0.874  0.4727 -0.9725  0.2229
  336EOH      O 1346   4.645   0.690   1.401 -0.2165 -0.2085  0.0348
  336EOH      C 1347   4.685   0.741   1.273 -0.1685  0.0380  0.1480
  336EOH      C 1348   4.826   0.696   1.232 -0.2007  0.1707 -0.1096
  336EOH      H 1349   4.719   0.704   1.458  0.5164  2.6502 -1.4989
  337EOH      O 1350   0.708   0.961   5.408  0.5162 -0.4836 -0.3712
  337EOH      C 1351   0.652   0.831   5.432  0.1018 -0.3626 -0.6854
  337EOH      C 1352   0.763   0.727   5.458  0.1441  0.0601  0.8708
  337EOH      H 1353   0.762   0.979   5.483 -0.5804  0.0683  0.3019
  338EOH      O 1354   5.329   2.918   1.171 -0.5394  0.1927  0.5818
  338EOH      C 1355   5.381   2.821   1.262  0.4553  0.4965  0.3414
  338EOH      C 1356   5.511   2.765   1.201  0.2188 -0.2420  0.5028
  338EOH      H 1357   5.303   2.872   1.093 -0.6128  1.5254 -0.1951
  339EOH      O 1358   2.596   3.734   4.091 -0.1731  0.3849  0.2233
  339EOH      C 1359   2.473   3.724   4.019  0.3930 -0.2490 -0.6692
  339EOH      C 1360   2.469   3.583   3.958 -0.4264 -0.2750 -0.5527
  339EOH      H 1361   2.628   3.818   4.062  0.2583 -0.3962 -1.6628
  340EOH      O 1362   0.709   1.362   6.066  0.1490 -0.0977 -0.3727
  340EOH      C 1363   0.715   1.499   6.105  0.0457 -0.2732  0.2643
  340EOH      C 1364   0.810   1.578   6.013 -0.6166 -0.4306 -0.5579
  340EOH      H 1365   0.619   1.333   6.057 -0.1644  0.6630  0.2767
  341EOH      O 1366   4.047   5.820   4.144 -0.3248 -0.4459  0.0367
  341EOH      C 1367   4.006   5.917   4.048 -0.2896 -0.1382  0.3321
  341EOH      C 1368   3.873   5.979   4.097 -0.0278  0.5022  0.2392
  341EOH      H 1369   3.991   5.743   4.138  0.5773 -1.3009  2.0131
  342EOH      O 1370   0.676   3.942   1.777  0.1525  0.3656 -0.7965
  342EOH      C 1371   0.804   3.918   1.836 -0.3057 -1.0814 -0.3588
  342EOH      C 1372   0.923   3.899   1.739 -0.0040  0.0604 -0.2144
  342EOH      H 1373   0.630   3.987   1.846 -0.6333 -2.6472  0.7288
  343EOH      O 1374   5.330   1.156   3.118  0.3775  1.0148 -0.0694
  343EOH      C 1375   5.332   1.175   3.259  0.1473  0.0627  0.0659
  343EOH      C 1376   5.227   1.284   3.286 -0.2058 -0.2198 -0.1630
  343EOH      H 1377   5.410   1.114   3.090  0.1897  0.1626  0.6736
  344EOH      O 1378   0.241   2.575   1.491  0.0763 -0.0947 -0.0203
  344EOH      C 1379   0.255   2.659   1.376 -0.7589  0.2265  0.1088
  344EOH      C 1380   0.137   2.755   1.353 -0.5816  0.3130 -0.4404
  344EOH      H 1381   0.313   2.513   1.489  1.0955  1.0745 -0.4616
  345EOH      O 1382   5.702   5.470   1.129  0.5587 -0.3406  0.5543
  345EOH      C 1383   5.779   5.525   1.022 -0.0833 -0.0523  0.2357
  345EOH      C 1384   5.792   5.678   1.028  0.1471 -0.0248 -0.8130
  345EOH      H 1385   5.750   5.458   1.209 -0.5050  1.3913  1.4906
  346EOH      O 1386   2.030   4.836   0.922 -0.0830  0.2913  0.3700
  346EOH      C 1387   1.961   4.811   0.800  0.2924 -0.1387  0.2464
  346EOH      C 1388   2.034   4.906   0.703  0.4109 -0.1809  0.2939
  346EOH      H 1389   1.986   4.793   0.994  0.7379  0.5603  1.0527
  347EOH      O 1390   1.606   1.617   6.310 -0.6465  0.0772 -0.1988
  347EOH      C 1391   1.489   1.636   6.390 -0.4124 -0.2987  0.2370
  347EOH      C 1392   1.524   1.745   6.492  0.2489  0.0942 -0.4040
  347EOH      H 1393   1.592   1.570   6.230  0.1695  0.8328 -0.7958
  348EOH      O 1394   1.038   6.144   5.770  0.0310 -0.3035  0.0725
  348EOH      C 1395   1.007   6.186   5.637  0.2654  0.0429  0.1266
  348EOH      C 1396   0.982   6.062   5.549 -0.3931  0.0332  0.3286
  348EOH      H 1397   1.103   6.075   5.764  1.8005  1.3773 -0.4123
  349EOH      O 1398   2.423   5.502   5.152 -0.2328 -0.4678  0.1146
  349EOH      C 1399   2.388   5.573   5.271 -0.0284  0.0279 -0.1229
  349EOH      C 1400   2.517   5.594   5.353 -0.0431  0.6521 -0.2523
  349EOH      H 1401   2.489   5.549   5.104 -1.2763  2.3643  1.3405
  350EOH      O 1402   2.951   2.925   1.840  0.2539  0.2094 -0.0309
  350EOH      C 1403   2.869   2.816   1.796  0.2945  0.1642  0.0059
  350EOH      C 1404   2.928   2.675   1.816 -0.6725 -0.3211 -0.5319
  350EOH      H 1405   2.923   2.950   1.927  3.5477  1.4092  0.7664
  351EOH      O 1406   1.665   1.576   0.603  0.2630  0.0155  0.0546
  351EOH      C 1407   1.654   1.714   0.568 -0.1090 -0.1288 -0.4025
  351EOH      C 1408   1.588   1.767   0.696  0.5318  0.1602 -0.1905
  351EOH      H 1409   1.732   1.563   0.669 -0.9513 -0.3600  1.2298
  352EOH      O 1410   3.994   1.874   0.220 -0.4749 -0.2972  0.0513
  352EOH      C 1411   4.033   1.997   0.158 -0.2674 -0.4674 -0.1559
  352EOH      C 1412   4.084   1.969   0.016  0.2849 -0.0549 -0.0391
  352EOH      H 1413   3.918   1.838   0.178  0.1696 -3.4466  1.4148
  353EOH      O 1414   2.164   2.804   4.220 -0.3017  0.5554  0.8504
  353EOH      C 1415   2.163   2.863   4.090  0.3854 -0.1601  0.5132
  353EOH      C 1416   2.014   2.898   4.074  0.5306 -0.0436 -0.6650
  353EOH      H 1417   2.253   2.779   4.240 -0.3059  1.8770  2.6536
  354EOH      O 1418   5.728   4.004   0.187  0.3028 -0.3857  0.4816
  354EOH      C 1419   5.675   3.884   0.130  0.2469 -0.1554  0.0432
  354EOH      C 1420   5.783   3.792   0.071  0.0490 -0.1474 -0.3341
  354EOH      H 1421   5.683   4.010   0.270  1.0434 -1.0219  0.9340
  355EOH      O 1422   5.842   3.776   1.723 -0.1829 -0.4773  0.6416
  355EOH      C 1423   5.915   3.897   1.705 -0.2564 -0.4830  0.3071
  355EOH      C 1424   5.808   4.002   1.739 -0.1950 -0.3830  0.1934
  355EOH      H 1425   5.802   3.776   1.808 -1.5867 -0.9451 -0.0121
  356EOH      O 1426   2.300   3.557   1.555  0.0045 -0.1485 -0.1025
  356EOH      C 1427   2.399   3.538   1.454  0.1186  0.1256 -0.0430
  356EOH      C 1428   2.490   3.417   1.484 -0.2780 -0.1558  0.0315
  356EOH      H 1429   2.347   3.609   1.618 -2.0363  2.7709 -0.8895
  357EOH      O 1430   0.543   3.907   3.361 -0.3608 -0.2749 -0.1379
  357EOH      C 1431   0.671   3.887   3.301 -0.1001 -0.2755  0.4156
  357EOH      C 1432   0.790   3.876   3.398  0.1517  0.6490  0.2162
  357EOH      H 1433   0.523   3.825   3.404 -0.9629  0.1709  0.4390
  358EOH      O 1434   3.594   1.625   5.405 -0.3174 -0.1775 -0.5119
  358EOH      C 1435   3.542   1.493   5.385 -0.2988 -0.3290  0.4308
  358EOH      C 1436   3.642   1.377   5.402 -0.2554 -0.2805  0.5023
  358EOH      H 1437   3.536   1.682   5.356 -1.2565 -0.4670  0.2563
  359EOH      O 1438   1.568   1.607   2.233  0.0280 -0.2674 -0.2829
  359EOH      C 1439   1.659   1.520   2.166 -0.0430 -0.2966 -0.3421
  359EOH      C 1440   1.780   1.599   2.112  0.4530 -0.8256 -0.0200
  359EOH      H 1441   1.499   1.558   2.275  1.5141 -2.0187  0.2015
  360EOH      O 1442   5.717   5.241   2.440 -0.2122  0.0624  0.3103
  360EOH      C 1443   5.860   5.247   2.434 -0.2365  0.5862  0.2996
  360EOH      C 1444   5.909   5.344   2.325 -0.3162 -0.2584 -0.4901
  360EOH      H 1445   5.697   5.154   2.473  3.1140  0.0307  2.4726
  361EOH      O 1446   0.218   4.524   5.022 -0.4983  0.4629 -0.5998
  361EOH      C 1447   0.088   4.540   4.964 -0.6527  0.1128 -0.3506
  361EOH      C 1448  -0.011   4.600   5.066  0.0644 -0.5239  0.7393
  361EOH      H 1449   0.207   4.483   5.107 -0.9600  0.1116 -0.8284
  362EOH      O 1450   6.204   3.760   1.352 -0.6192  0.2030  0.1190
  362EOH      C 1451   6.137   3.633   1.358  0.3677 -0.3233  0.1581
  362EOH      C 1452   6.001   3.634   1.285  0.4119 -0.1360  0.0780
  362EOH      H 1453   6.274   3.756   1.414  0.7375  1.1038 -1.3176
  363EOH      O 1454   2.357   2.819   1.655  0.0714 -0.0417 -0.5940
  363EOH      C 1455   2.257   2.908   1.705  0.1520 -0.0968 -0.3348
  363EOH      C 1456   2.330   3.039   1.739 -0.9366  0.3435  0.3354
  363EOH      H 1457   2.308   2.740   1.637  2.4400 -1.4032 -1.3255
  364EOH      O 1458   1.471   5.180   0.599  0.3657 -0.0659  0.8626
  364EOH      C 1459   1.570   5.087   0.553 -0.0637 -0.3177  0.4510
  364EOH      C 1460   1.681   5.073   0.658  0.8344 -0.3272 -0.4984
  364EOH      H 1461   1.402   5.186   0.535  1.6502  0.0142 -0.5297
  365EOH      O 1462   4.434   6.161   2.787 -0.2815  0.4332  0.1762
  365EOH      C 1463   4.483   6.238   2.898  0.1810  0.3160  0.0560
  365EOH      C 1464   4.634   6.263   2.884  0.2619 -0.2834 -0.1632
  365EOH      H 1465   4.510   6.142   2.733 -0.9688  0.4304 -0.7862
  366EOH      O 1466   2.525   2.405   2.777 -0.5484 -0.5253 -0.0017
  366EOH      C 1467   2.421   2.386   2.681 -0.6678 -0.3692  0.0949
  366EOH      C 1468   2.455   2.457   2.548 -0.5678  0.1254  0.3832
  366EOH      H 1469   2.480   2.434   2.855 -0.2396  2.4418 -0.8719
  367EOH      O 1470   4.248   6.299   1.596  0.1180  0.7669 -0.3179
  367EOH      C 1471   4.245   6.231   1.470 -0.2948  0.3108 -0.0611
  367EOH      C 1472   4.333   6.104   1.476 -0.5135  0.1615  0.0020
  367EOH      H 1473   4.161   6.300   1.633  0.9772  0.0148  1.7367
  368EOH      O 1474   0.272   5.190   3.834  0.3264 -0.2046  0.0186
  368EOH      C 1475   0.232   5.295   3.922 -0.0022 -0.3246  0.0159
  368EOH      C 1476   0.123   5.244   4.018  0.5037 -0.2938  0.6105
  368EOH      H 1477   0.349   5.227   3.794  0.2858  1.5862  1.5052
  369EOH      O 1478   4.253   1.682   1.183  0.0670 -0.1007 -0.3603
  369EOH      C 1479   4.261   1.729   1.049  0.3288  0.6442 -0.0827
  369EOH      C 1480   4.210   1.872   1.019 -0.4058  0.4370  0.1695
  369EOH      H 1481   4.199   1.604   1.188 -1.4020  1.0365  3.1222
  370EOH      O 1482   3.481   4.643   5.863 -0.6144  0.2412 -0.0264
  370EOH      C 1483   3.449   4.734   5.758 -0.4240  0.5192  0.1560
  370EOH      C 1484   3.304   4.720   5.710 -0.3194  0.0683 -0.0337
  370EOH      H 1485   3.504   4.561   5.823 -0.9824 -0.2637  0.7879
  371EOH      O 1486   4.603   2.396   0.807  0.0300  0.4238  0.3167
  371EOH      C 1487   4.704   2.373   0.905  0.0035 -0.4061  0.1557
  371EOH      C 1488   4.836   2.318   0.849  0.3861  0.3138  0.3294
  371EOH      H 1489   4.627   2.463   0.744 -0.3936 -1.0922 -1.5020
  372EOH      O 1490   3.217   0.234   0.666  0.1281 -0.0470 -0.3209
  372EOH      C 1491   3.172   0.104   0.705  0.6959 -0.0267  0.4061
  372EOH      C 1492   3.144   0.111   0.856  0.1146 -0.3267  0.3132
  372EOH      H 1493   3.305   0.225   0.633  1.0123  0.3520  1.8458
  373EOH      O 1494   4.603   0.735   5.355 -0.0583 -0.0890  0.0957
  373EOH      C 1495   4.731   0.715   5.416  0.0416 -0.4170 -0.2211
  373EOH      C 1496   4.834   0.808   5.350  0.0922 -0.3499 -0.0485
  373EOH      H 1497   4.549   0.799   5.399 -1.9447  0.2978 -2.6649
  374EOH      O 1498   0.315   6.302   2.329 -0.2894  0.0014  0.3364
  374EOH      C 1499   0.314   6.185   2.248  0.6639 -0.1000  0.4733
  374EOH      C 1500   0.421   6.189   2.137  0.3205  0.2811  0.1564
  374EOH      H 1501   0.226   6.313   2.359 -1.3676  1.9080 -3.2774
  375EOH      O 1502   2.393   1.764   3.716 -0.0557  0.6481  0.6656
  375EOH      C 1503   2.277   1.683   3.695  0.2811  0.1699  0.6374
  375EOH      C 1504   2.315   1.540   3.654  0.5941  0.4468 -0.0512
  375EOH      H 1505   2.438   1.757   3.634  0.0706  0.1535  0.7770
  376EOH      O 1506   5.037   5.375   4.957 -0.1910  0.9730 -0.1334
  376EOH      C 1507   5.101   5.347   5.082 -0.1712  0.4107 -0.2655
  376EOH      C 1508   5.227   5.259   5.072 -0.6165 -0.2827  0.2277
  376EOH      H 1509   5.070   5.460   4.933  0.6018  0.7752  0.2592
  377EOH      O 1510   1.341   1.648   3.434  0.0387 -0.0825  0.0389
  377EOH      C 1511   1.403   1.717   3.326 -0.0116  0.2497  0.2218
  377EOH      C 1512   1.288   1.774   3.240  0.3892  0.0699 -0.4337
  377EOH      H 1513   1.303   1.567   3.402  0.0221  0.0585 -0.2957
  378EOH      O 1514   2.191   0.534   0.723 -0.4016 -0.5642 -0.5127
  378EOH      C 1515   2.283   0.431   0.687  0.0946 -0.3587  0.1605
  378EOH      C 1516   2.309   0.327   0.798  0.2867  0.2471  0.6904
  378EOH      H 1517   2.135   0.557   0.651 -0.9946  0.1391  0.1611
  379EOH      O 1518   1.639   0.063   6.154  0.1256 -0.1796  0.2771
  379EOH      C 1519   1.746   0.156   6.174 -0.1786  0.1679  0.3043
  379EOH      C 1520   1.857   0.065   6.229 -0.0016  0.1644 -0.0568
  379EOH      H 1521   1.672  -0.016   6.115 -0.1823 -0.3917  0.4489
  380EOH      O 1522   2.573   1.206   0.998  0.0406  0.3442  0.0065
  380EOH      C 1523   2.441   1.245   0.960  0.0082  0.0713 -0.1692
  380EOH      C 1524   2.427   1.317   0.825  0.0397 -0.0365 -0.2301
  380EOH      H 1525   2.619   1.180   0.919 -1.5567 -0.0338 -0.8251
  381EOH      O 1526   5.572   3.769   5.483 -0.6736 -0.0745 -0.2727
  381EOH      C 1527   5.461   3.805   5.565 -0.3416 -0.3286  0.2899
  381EOH      C 1528   5.365   3.909   5.505  0.0625 -0.1492 -0.0455
  381EOH      H 1529   5.648   3.740   5.532 -0.5651  2.0511  0.8369
  382EOH      O 1530   3.994   4.065   3.443 -0.3150  0.4409 -0.1114
  382EOH      C 1531   4.013   4.079   3.584 -0.3474  0.0339 -0.0653
  382EOH      C 1532   3.897   4.147   3.659 -0.3930  0.2593 -0.3393
  382EOH      H 1533   3.951   3.981   3.436  0.9007 -0.1651 -0.4698
  383EOH      O 1534   2.940   2.492   3.282  0.4750  0.4881 -0.1513
  383EOH      C 1535   2.873   2.596   3.210 -0.6173 -0.0129  0.1269
  383EOH      C 1536   2.754   2.527   3.141 -0.4135  0.2002 -0.4462
  383EOH      H 1537   3.018   2.479   3.231 -0.9840  1.8759 -2.8392
  384EOH      O 1538   2.908   3.409   1.184 -0.1371 -0.2420 -0.1940
  384EOH      C 1539   2.958   3.460   1.308 -0.0805 -0.0434 -0.2987
  384EOH      C 1540   3.098   3.397   1.327 -0.0138  0.0995 -0.3153
  384EOH      H 1541   2.831   3.460   1.164 -0.8513 -1.5043 -0.7448
  385EOH      O 1542   4.945   6.314   0.341  0.4541 -0.0491  0.2933
  385EOH      C 1543   4.968   6.214   0.241  0.0145  0.0296  0.1129
  385EOH      C 1544   5.074   6.255   0.137  0.3488 -0.4508  0.2647
  385EOH      H 1545   5.018   6.321   0.400 -0.7637 -1.0087  1.9620
  386EOH      O 1546   3.278   4.277   0.757  0.2845  0.3108  0.0556
  386EOH      C 1547   3.336   4.251   0.885  0.2261 -0.0252  0.0153
  386EOH      C 1548   3.393   4.108   0.879 -0.1331 -0.1495 -0.5053
  386EOH      H 1549   3.205   4.336   0.766 -0.3823 -0.4882 -0.0230
  387EOH      O 1550   3.765   2.627   0.543 -0.1082 -0.4157  0.0219
  387EOH      C 1551   3.785   2.508   0.620  0.2573 -0.5737 -0.3190
  387EOH      C 1552   3.811   2.548   0.766 -0.1574  0.7998 -0.6093
  387EOH      H 1553   3.845   2.676   0.531 -1.0856  2.1253  3.2344
  388EOH      O 1554   1.326   4.024   5.812 -0.0898 -0.0469  0.1064
  388EOH      C 1555   1.384   4.085   5.927 -0.1181  0.3423 -0.0852
  388EOH      C 1556   1.519   4.137   5.874 -0.1561  0.0671 -0.4504
  388EOH      H 1557   1.382   3.955   5.778 -0.5085  0.3417 -1.4249
  389EOH      O 1558   4.069   2.106   1.851  0.3740  0.4810  0.3342
  389EOH      C 1559   4.061   2.101   1.708  0.2111 -0.4681  0.3699
  389EOH      C 1560   3.976   1.975   1.691  0.2119 -0.3981 -0.1433
  389EOH      H 1561   3.979   2.108   1.881  1.0365  0.7575  2.4137
  390EOH      O 1562   0.009   2.615   3.036  0.1947  0.3931  0.3995
  390EOH      C 1563  -0.053   2.742   3.016  0.1479  0.2645 -0.2820
  390EOH      C 1564  -0.165   2.733   2.912 -0.3117  0.3469  0.2027
  390EOH      H 1565  -0.049   2.559   3.085  1.3725 -0.1590  1.2101
  391EOH      O 1566   4.880   5.484   4.650 -0.4651  0.0756 -0.1497
  391EOH      C 1567   4.852   5.483   4.510  0.1819 -0.0611 -0.2811
  391EOH      C 1568   4.897   5.353   4.440  0.3509  0.0828 -0.4394
  391EOH      H 1569   4.871   5.399   4.688 -0.1837  1.1079  2.3591
  392EOH      O 1570   1.096   3.259   2.959  0.0065 -0.3411  0.0103
  392EOH      C 1571   0.963   3.288   2.916  0.3173 -0.0015 -0.7241
  392EOH      C 1572   0.961   3.417   2.832 -0.0373  0.4427 -0.0354
  392EOH      H 1573   1.117   3.168   2.942 -0.9093 -0.8066  1.3109
  393EOH      O 1574   5.863   0.030   0.330 -0.0761 -0.5356  0.1398
  393EOH      C 1575   5.931   0.139   0.392 -0.0371 -0.3242 -0.2690
  393EOH      C 1576   6.047   0.201   0.311  0.2062 -0.4272 -0.0036
  393EOH      H 1577   5.809  -0.011   0.395  2.2747 -3.0741  0.5945
  394EOH      O 1578   6.160   3.119   2.318  0.0963 -0.4838 -0.4767
  394EOH      C 1579   6.140   3.043   2.199  0.3062  0.0315 -0.8409
  394EOH      C 1580   6.002   2.975   2.190 -0.1491  0.7604  0.6109
  394EOH      H 1581   6.105   3.196   2.309 -0.2950 -0.7020 -0.0168
  395EOH      O 1582   5.649   5.699   2.419  0.0046  0.1445  0.3513
  395EOH      C 1583   5.747   5.757   2.504  0.1328 -0.0711  0.3528
  395EOH      C 1584   5.687   5.767   2.646 -0.1843 -0.1198  0.2201
  395EOH      H 1585   5.611   5.629   2.469  1.8141 -0.3902  1.0360
  396EOH      O 1586   5.617   1.151   5.637 -0.6449  0.4067 -0.0796
  396EOH      C 1587   5.726   1.228   5.688  0.0228 -0.0666 -0.7900
  396EOH      C 1588   5.679   1.374   5.700 -0.6151 -0.3104 -0.3112
  396EOH      H 1589   5.635   1.059   5.643  0.0364  0.5033 -0.5906
  397EOH      O 1590   0.711   3.985   4.299  0.1893 -0.0369  0.3538
  397EOH      C 1591   0.664   4.093   4.380 -0.2271 -0.0340  0.1100
  397EOH      C 1592   0.687   4.056   4.528 -0.1439 -0.5158 -0.0230
  397EOH      H 1593   0.796   4.010   4.267  0.7001  0.4705  2.0736
  398EOH      O 1594   5.699   4.376   0.890  0.5455  0.1933  0.0062
  398EOH      C 1595   5.607   4.324   0.987  0.5942 -0.0447 -0.0754
  398EOH      C 1596   5.645   4.355   1.133  0.0447  0.6222 -0.0745
  398EOH      H 1597   5.650   4.407   0.816  1.0481 -4.0256 -2.2093
  399EOH      O 1598   0.648   1.060   2.835  0.3380 -0.0783 -0.5594
  399EOH      C 1599   0.538   1.142   2.795  0.4741  0.5845  0.4173
  399EOH      C 1600   0.593   1.273   2.734  0.5755  0.2383 -0.2365
  399EOH      H 1601   0.616   0.992   2.892 -1.4999  1.7891  0.7177
  400EOH      O 1602   1.266   0.707   4.224 -0.3628 -0.0585 -0.1216
  400EOH      C 1603   1.355   0.684   4.334 -0.3047 -0.4669 -0.2537
  400EOH      C 1604   1.290   0.601   4.446 -0.5519 -0.1937 -0.1955
  400EOH      H 1605   1.228   0.792   4.239  0.7250  0.5902 -0.9477
  401EOH      O 1606   3.621   1.662   3.917  0.7964 -0.0723  0.5021
  401EOH      C 1607   3.597   1.799   3.951  0.3031 -0.0300 -0.0137
  401EOH      C 1608   3.578   1.811   4.103 -0.6818 -0.0220 -0.1331
  401EOH      H 1609   3.542   1.619   3.944  0.4368  0.8712  0.9716
  402EOH      O 1610   1.916   3.284   0.747  0.0329  0.2565 -0.1142
  402EOH      C 1611   1.952   3.423   0.750 -0.2221  0.3267 -0.3254
  402EOH      C 1612   1.915   3.487   0.885 -0.2678 -0.8502  0.2245
  402EOH      H 1613   1.993   3.238   0.777 -0.1910  1.0243  1.6954
  403EOH      O 1614   5.552   5.309   4.138 -0.1359  0.3744  0.5254
  403EOH      C 1615   5.596   5.173   4.132  0.0526  0.4555 -0.0113
  403EOH      C 1616   5.747   5.153   4.106 -0.0197  0.3006 -0.3099
  403EOH      H 1617   5.458   5.303   4.147 -0.0295 -1.1281  0.7253
  404EOH      O 1618   3.244   4.084   5.949 -0.1846 -0.8260  0.1873
  404EOH      C 1619   3.192   3.978   5.868 -0.2482 -0.4387 -0.2836
  404EOH      C 1620   3.302   3.884   5.813  0.0270 -0.3555  0.1169
  404EOH      H 1621   3.160   4.127   5.959 -0.6242 -1.5892 -0.1674
  405EOH      O 1622   0.164   6.010   3.375  0.0615 -0.3615 -0.2831
  405EOH      C 1623   0.129   6.071   3.500  0.5693  0.0622 -0.3459
  405EOH      C 1624   0.231   6.033   3.609  0.2766  0.1854 -0.0285
  405EOH      H 1625   0.212   6.077   3.329  0.4658 -0.3301  0.1806
  406EOH      O 1626   0.699   4.329   4.075  0.2550  0.1637  0.1957
  406EOH      C 1627   0.572   4.272   4.043  0.4631 -0.1638 -0.0465
  406EOH      C 1628   0.582   4.132   3.981  0.3380 -0.3379  0.3263
  406EOH      H 1629   0.699   4.407   4.022 -0.8684 -0.8984 -1.4004
  407EOH      O 1630   0.865   2.316   2.633 -0.0332 -0.1765 -0.2146
  407EOH      C 1631   0.844   2.326   2.492  0.4466  0.1061 -0.2684
  407EOH      C 1632   0.716   2.252   2.447  0.5249 -0.1236 -0.1154
  407EOH      H 1633   0.931   2.383   2.645 -0.5450  0.1727  0.6781
  408EOH      O 1634   3.258   2.621   5.289 -0.5154  0.5803 -0.8470
  408EOH      C 1635   3.208   2.736   5.357 -0.2973  0.1806 -0.0048
  408EOH      C 1636   3.332   2.803   5.420  0.0636 -0.6052  0.1244
  408EOH      H 1637   3.322   2.652   5.227 -0.5275  0.9639 -0.6631
  409EOH      O 1638   2.600   0.825   4.361 -0.1143 -0.0381 -0.5918
  409EOH      C 1639   2.667   0.752   4.258  0.6616 -0.4347  0.1941
  409EOH      C 1640   2.563   0.709   4.153  0.7998 -0.2085 -0.0365
  409EOH      H 1641   2.660   0.883   4.405  0.3503 -0.4346 -0.7031
  410EOH      O 1642   0.842   2.281   5.530 -0.0247 -0.5012  0.5959
  410EOH      C 1643   0.950   2.200   5.578  0.6044 -0.1422 -0.1873
  410EOH      C 1644   1.063   2.286   5.637 -0.2839  0.1652  1.0948
  410EOH      H 1645   0.867   2.300   5.441  0.0892  0.6424  0.8580
  411EOH      O 1646   5.716   4.278   4.803  0.3191  0.1994  0.1857
  411EOH      C 1647   5.844   4.340   4.785  0.2386  0.1071 -0.7052
  411EOH      C 1648   5.956   4.250   4.841 -0.1555 -0.1266 -0.2910
  411EOH      H 1649   5.648   4.339   4.781 -0.9931 -1.0083  0.7971
  412EOH      O 1650   4.175   5.193   2.493  0.3117  0.0184 -0.0362
  412EOH      C 1651   4.265   5.297   2.534 -0.5509  0.7588 -0.0127
  412EOH      C 1652   4.281   5.308   2.686  0.0509 -0.2565 -0.0001
  412EOH      H 1653   4.122   5.219   2.420  0.2138  1.8099  0.6519
  413EOH      O 1654   2.194   3.158   0.415  0.3441 -0.0047 -0.3183
  413EOH      C 1655   2.210   3.246   0.303 -0.4378  0.4384 -0.0869
  413EOH      C 1656   2.105   3.358   0.311 -0.4789  0.3526  0.5991
  413EOH      H 1657   2.103   3.130   0.413  0.5301 -0.5916 -1.4575
  414EOH      O 1658   3.514   5.389   1.885 -0.3464  0.5177 -0.1219
  414EOH      C 1659   3.431   5.433   1.993 -0.3354 -0.2200  0.1860
  414EOH      C 1660   3.291   5.428   1.930 -0.1890  0.1660 -0.1709
  414EOH      H 1661   3.503   5.452   1.816 -1.2095  0.6732  0.1425
  415EOH      O 1662   0.646   3.969   1.527  0.0860 -0.7678 -0.6223
  415EOH      C 1663   0.535   3.888   1.487 -0.7339  0.0423 -0.0055
  415EOH      C 1664   0.578   3.741   1.503 -0.5984  0.0783 -0.0379
  415EOH      H 1665   0.657   3.956   1.620  1.3734 -2.6044 -0.9991
  416EOH      O 1666   5.988   2.082   4.227 -0.2525  0.7151  0.1200
  416EOH      C 1667   5.857   2.031   4.202  0.0583 -0.2671  0.4632
  416EOH      C 1668   5.860   1.884   4.156  0.5723  0.0243 -0.4331
  416EOH      H 1669   5.979   2.175   4.218  0.9795  0.8184 -0.1796
  417EOH      O 1670   0.583   0.634   2.371 -0.3218  0.1746  0.1586
  417EOH      C 1671   0.505   0.587   2.481 -0.5013  0.1909  0.0381
  417EOH      C 1672   0.516   0.688   2.597  0.3510 -0.2583  0.3555
  417EOH      H 1673   0.606   0.556   2.323  1.1134  0.8554 -0.2990
  418EOH      O 1674   5.828   4.756   4.998  0.2723  0.3773 -0.4573
  418EOH      C 1675   5.896   4.745   5.124  0.1477 -0.1182 -0.4309
  418EOH      C 1676   5.825   4.637   5.207  0.4074  0.0532  0.0103
  418EOH      H 1677   5.896   4.740   4.934  2.0878  0.3439  1.4285
  419EOH      O 1678   1.672   3.387   5.178  0.3157 -0.1282 -0.1570
  419EOH      C 1679   1.707   3.523   5.149 -0.7869  0.0361 -0.7602
  419EOH      C 1680   1.650   3.618   5.256  0.0512  0.2118 -0.4621
  419EOH      H 1681   1.591   3.366   5.135  0.7456  1.0434 -1.5700
  420EOH      O 1682   2.155   2.222   0.406 -0.3276  0.4211 -0.0481
  420EOH      C 1683   2.160   2.209   0.263  0.1081  0.3654 -0.0297
  420EOH      C 1684   2.239   2.078   0.247  0.1000  0.3111  0.3715
  420EOH      H 1685   2.077   2.176   0.433  1.2663 -0.3587  3.4700
  421EOH      O 1686   1.432   3.440   5.958 -0.3331  0.5699 -0.5300
  421EOH      C 1687   1.532   3.351   5.907  0.1182  0.4117  0.6175
  421EOH      C 1688   1.656   3.350   5.999 -0.1182  0.5148  0.9413
  421EOH      H 1689   1.383   3.400   6.028  0.4524  4.3581  2.3308
  422EOH      O 1690   0.170   5.427   1.974 -0.3002 -0.5756 -0.4772
  422EOH      C 1691   0.215   5.299   1.929  0.7086 -0.3266 -0.2087
  422EOH      C 1692   0.197   5.290   1.776 -0.0388  0.1891 -0.1530
  422EOH      H 1693   0.191   5.425   2.066  1.3923 -3.1220 -0.8592
  423EOH      O 1694   0.580   3.429   3.900  0.7499 -0.3738 -0.2599
  423EOH      C 1695   0.493   3.339   3.967  0.2229  0.3793  0.0771
  423EOH      C 1696   0.566   3.212   4.016  0.2011  0.3763  0.1013
  423EOH      H 1697   0.533   3.492   3.848 -1.1548 -1.2370  0.3653
  424EOH      O 1698   1.959   1.233   4.956  0.5352  0.3603  0.3135
  424EOH      C 1699   1.914   1.133   5.046  0.1641 -0.3516 -0.6521
  424EOH      C 1700   1.982   1.146   5.184  0.2014 -0.0945 -0.6960
  424EOH      H 1701   1.905   1.241   4.879  1.8678 -2.4788 -0.9746
  425EOH      O 1702   4.283   2.482   4.630 -0.0872 -0.1288  0.0778
  425EOH      C 1703   4.163   2.538   4.683 -0.0555 -0.2301  0.2590
  425EOH      C 1704   4.088   2.618   4.574  0.0575 -0.2560  0.1629
  425EOH      H 1705   4.269   2.473   4.537 -0.6348  1.6853 -0.0232
  426EOH      O 1706   6.065   4.999   1.844 -0.0069 -0.2542  0.3854
  426EOH      C 1707   6.171   5.064   1.915 -0.0179  0.2729 -0.0682
  426EOH      C 1708   6.109   5.164   2.015 -0.4225  0.0871 -0.1312
  426EOH      H 1709   6.115   4.923   1.820  0.3346  0.3667 -0.8995
  427EOH      O 1710   1.947   5.043   5.874  0.6479  0.0041 -0.0744
  427EOH      C 1711   1.979   4.904   5.864  0.1754 -0.0858 -0.3273
  427EOH      C 1712   2.121   4.900   5.804  0.4615  0.1434  0.3308
  427EOH      H 1713   1.857   5.046   5.902  0.1896  2.3418 -1.6511
  428EOH      O 1714   0.070   2.443   6.100 -0.0831 -0.0911  0.1551
  428EOH      C 1715   0.061   2.315   6.038 -0.6983  0.3553 -0.6895
  428EOH      C 1716  -0.068   2.240   6.077 -0.2687  0.2438  0.5476
  428EOH      H 1717   0.014   2.501   6.051 -0.2703  0.7234  1.3012
  429EOH      O 1718   3.845   5.611   0.894  0.3576  0.0168  0.1373
  429EOH      C 1719   3.838   5.724   0.982  0.1169 -0.2972  0.5231
  429EOH      C 1720   3.769   5.673   1.110 -0.5429 -0.4370  0.1130
  429EOH      H 1721   3.868   5.642   0.808  0.6346 -0.8311 -0.0951
  430EOH      O 1722   0.401   1.553   5.970  0.4282  0.1487  0.0350
  430EOH      C 1723   0.319   1.659   6.019  0.5511  0.1792  0.1743
  430EOH      C 1724   0.313   1.634   6.171  0.2822 -0.0934  0.1212
  430EOH      H 1725   0.437   1.575   5.885  0.2217  2.9883  0.6246
  431EOH      O 1726   5.197   0.080   1.759 -0.3203 -0.0408 -0.0713
  431EOH      C 1727   5.065   0.123   1.724  0.0046  0.3766 -0.8057
  431EOH      C 1728   5.025   0.243   1.811 -0.6181 -0.4051 -0.0013
  431EOH      H 1729   5.215  -0.005   1.723  0.5462 -0.1420  0.5813
  432EOH      O 1730   2.339   3.578   4.783 -0.5540 -0.2480 -0.5399
  432EOH      C 1731   2.215   3.515   4.820 -0.1580 -0.5185  0.3403
  432EOH      C 1732   2.254   3.431   4.943 -0.3299 -0.0615  0.7069
  432EOH      H 1733   2.324   3.670   4.772  1.3308  0.1293  0.0195
  433EOH      O 1734   1.913   1.799   3.584  0.3044 -0.2422  0.1545
  433EOH      C 1735   1.926   1.935   3.624  0.3900 -0.3106  0.3584
  433EOH      C 1736   2.056   1.937   3.706  0.2934  0.1375  0.5036
  433EOH      H 1737   1.875   1.758   3.660  0.0574 -0.0212  0.1512
  434EOH      O 1738   0.767   1.199   5.750  0.3610  0.2243 -0.2538
  434EOH      C 1739   0.629   1.231   5.769  0.3763  0.3361 -0.3262
  434EOH      C 1740   0.562   1.173   5.644  0.7797 -0.3760 -0.2162
  434EOH      H 1741   0.808   1.214   5.833 -1.3458  1.1951  0.4440
  435EOH      O 1742   2.749   1.434   3.631  0.2541  0.0039  0.0058
  435EOH      C 1743   2.738   1.294   3.661  0.2183 -0.0455 -0.2364
  435EOH      C 1744   2.678   1.213   3.544  0.0047  0.0187 -0.1722
  435EOH      H 1745   2.749   1.480   3.713  1.2238 -0.7971  0.4655
  436EOH      O 1746   1.786   2.221   1.373 -0.0927 -0.1179 -0.1741
  436EOH      C 1747   1.925   2.192   1.360 -0.0679 -0.0765  0.0011
  436EOH      C 1748   2.006   2.315   1.314  0.1316 -0.3089 -0.2700
  436EOH      H 1749   1.749   2.144   1.412  1.2656 -1.1452 -0.8798
  437EOH      O 1750   4.106   4.442   1.316  0.2728  0.1462  0.2930
  437EOH      C 1751   4.077   4.334   1.227 -0.2633  0.1286  0.4856
  437EOH      C 1752   4.088   4.215   1.324  0.1894  0.1162  0.4192
  437EOH      H 1753   4.050   4.444   1.392 -1.6399 -2.3113 -0.9551
  438EOH      O 1754   1.069   2.509   3.597 -0.1685  0.6626 -0.0713
  438EOH      C 1755   0.962   2.428   3.646  0.0565  0.7765  0.6045
  438EOH      C 1756   0.872   2.495   3.752 -0.6319 -0.2777  0.7038
  438EOH      H 1757   1.143   2.502   3.654 -1.8338  0.2509  2.1150
  439EOH      O 1758   5.715   3.355   3.887 -0.6029 -0.3709 -0.2980
  439EOH      C 1759   5.660   3.272   3.784 -0.2976 -0.5841 -0.2873
  439EOH      C 1760   5.626   3.133   3.842  0.2518 -0.5754  0.0638
  439EOH      H 1761   5.646   3.409   3.924  1.6911  1.2464  1.7436
  440EOH      O 1762   4.570   5.159   1.516 -0.1445  0.1574 -0.0367
  440EOH      C 1763   4.618   5.213   1.393 -0.3883  0.1137 -0.1513
  440EOH      C 1764   4.761   5.154   1.387 -0.3175  0.2812 -0.1224
  440EOH      H 1765   4.480   5.186   1.525  0.0974  0.2044  2.6476
  441EOH      O 1766   4.631   1.288   4.017  0.0987  0.1826  0.3827
  441EOH      C 1767   4.535   1.387   3.978  0.4960  0.5217  0.2501
  441EOH      C 1768   4.569   1.436   3.836  0.0610 -0.1434 -0.0855
  441EOH      H 1769   4.713   1.309   3.974  0.0921 -0.1481  0.2085
  442EOH      O 1770   4.270   0.766   0.380 -0.4234  0.2617  0.1229
  442EOH      C 1771   4.304   0.764   0.519  0.5765  0.7709 -0.1055
  442EOH      C 1772   4.369   0.629   0.555 -0.3611  0.3990  0.2265
  442EOH      H 1773   4.350   0.784   0.332 -0.4478  0.5154  0.1778
  443EOH      O 1774   2.837   2.936   5.856 -0.3527  0.3296  0.0728
  443EOH      C 1775   2.905   2.919   5.980  0.4030 -0.2400 -0.4134
  443EOH      C 1776   2.915   3.045   6.067  0.6182 -0.1432 -0.5790
  443EOH      H 1777   2.833   2.850   5.816  2.3788 -1.2836  3.0664
  444EOH      O 1778   6.099   5.600   1.730  0.2415 -0.0649  0.4382
  444EOH      C 1779   6.223   5.610   1.801  0.7015 -0.0120 -0.3651
  444EOH      C 1780   6.195   5.639   1.949 -0.1386  0.1721 -0.5533
  444EOH      H 1781   6.048   5.525   1.755 -0.2492 -0.1014 -0.6408
  445EOH      O 1782   0.350   1.370   5.372 -0.5466 -0.5379 -0.2067
  445EOH      C 1783   0.381   1.468   5.272 -0.5040 -0.3215  0.0179
  445EOH      C 1784   0.534   1.470   5.261 -0.4802  0.1833  0.4164
  445EOH      H 1785   0.331   1.288   5.329 -1.3805 -0.2465 -0.4098
  446EOH      O 1786   4.539   3.890   0.815  0.4672 -0.1781 -0.3734
  446EOH      C 1787   4.500   3.754   0.792 -0.2096 -0.0070 -0.2235
  446EOH      C 1788   4.626   3.668   0.778  0.1420  0.5566 -0.5248
  446EOH      H 1789   4.473   3.927   0.871 -0.1443 -0.3140 -1.0030
  447EOH      O 1790   1.240   6.085   4.491 -0.3759 -0.3785 -0.2279
  447EOH      C 1791   1.233   5.974   4.581  0.2783 -0.5264 -0.3573
  447EOH      C 1792   1.090   5.955   4.635  0.3064 -0.4018 -0.2402
  447EOH      H 1793   1.205   6.160   4.537 -0.3082  0.0198 -0.8340
  448EOH      O 1794   0.035   0.956   2.751  0.3759  0.0870  0.1257
  448EOH      C 1795   0.164   0.909   2.789  0.2563  0.1942  0.6694
  448EOH      C 1796   0.253   0.924   2.664  0.0903  0.1675  0.5476
  448EOH      H 1797  -0.013   0.960   2.833  1.0252 -1.1208  0.5691
  449EOH      O 1798   0.227   3.101   2.449  0.0647 -0.2583 -0.0819
  449EOH      C 1799   0.205   3.044   2.320 -0.1196  0.0094 -0.1703
  449EOH      C 1800   0.158   2.900   2.346  0.3218 -0.1291 -0.1425
  449EOH      H 1801   0.143   3.142   2.468  0.8046  0.9354  0.6563
  450EOH      O 1802   3.829   6.184   5.429 -0.1723 -0.3038  0.6936
  450EOH      C 1803   3.700   6.129   5.456 -0.3860 -0.1457 -0.0073
  450EOH      C 1804   3.666   6.019   5.354  0.6926 -0.2480 -0.2643
  450EOH      H 1805   3.900   6.122   5.424  1.3214  1.3304  1.0283
  451EOH      O 1806   4.745   2.864   5.149  0.2648 -0.1759  0.4804
  451EOH      C 1807   4.854   2.955   5.129  0.1586 -0.1127  0.1873
  451EOH      C 1808   4.893   2.937   4.981  0.1016  0.0068  0.1573
  451EOH      H 1809   4.674   2.916   5.182  1.2704  1.4854  0.1360
  452EOH      O 1810   2.028   4.415   3.363 -0.0880  0.0542 -0.2720
  452EOH      C 1811   2.148   4.342   3.393  0.0938  0.3053 -0.3870
  452EOH      C 1812   2.219   4.301   3.263  0.6042  0.1374 -0.0582
  452EOH      H 1813   1.974   4.350   3.321  2.0004 -2.5830  0.9403
  453EOH      O 1814   6.037   1.291   5.844 -0.1125  0.2427  0.4410
  453EOH      C 1815   6.005   1.429   5.827 -0.3580  0.1066 -0.2147
  453EOH      C 1816   6.037   1.459   5.680 -0.0718  0.6402 -0.0446
  453EOH      H 1817   6.030   1.261   5.934 -1.5589  1.5123  0.7697
  454EOH      O 1818   0.746   2.721   2.092  0.0384 -0.4671 -0.5431
  454EOH      C 1819   0.685   2.744   1.965 -0.4674 -0.1535 -0.2415
  454EOH      C 1820   0.782   2.757   1.846 -0.0436  0.5099  0.1728
  454EOH      H 1821   0.733   2.799   2.145  2.4848 -0.8390  0.7074
  455EOH      O 1822   2.584   5.117   1.008 -0.3442 -0.1846  0.0912
  455EOH      C 1823   2.638   5.235   0.946  0.3017 -0.2323  0.5605
  455EOH      C 1824   2.719   5.323   1.043 -0.4412  0.2296  0.7658
  455EOH      H 1825   2.492   5.123   0.987 -0.5477 -0.4600  0.8896
  456EOH      O 1826   5.356   3.266   0.036  0.1095 -0.1966  0.2601
  456EOH      C 1827   5.425   3.311  -0.081 -0.1366 -0.1309  0.1407
  456EOH      C 1828   5.347   3.429  -0.141 -0.3023 -0.1322  0.3563
  456EOH      H 1829   5.407   3.296   0.110  0.9490 -0.9150 -0.0209
  457EOH      O 1830   3.975   2.140   4.725 -0.0305 -0.1112 -0.0534
  457EOH      C 1831   4.021   2.196   4.601 -0.5654  0.4670  0.0079
  457EOH      C 1832   3.904   2.246   4.514 -0.3335  0.8355 -0.0921
  457EOH      H 1833   3.939   2.211   4.775 -0.5084 -1.9871  2.3357
  458EOH      O 1834   2.036   3.142   1.257  0.1953 -0.2918  0.1862
  458EOH      C 1835   2.175   3.161   1.234  0.0972  0.6565  0.3649
  458EOH      C 1836   2.271   3.105   1.341  0.0605  0.1620  0.1413
  458EOH      H 1837   1.986   3.166   1.181  0.0488 -1.8164 -0.2164
  459EOH      O 1838   2.353   5.554   4.617 -0.0494  0.2455  0.4296
  459EOH      C 1839   2.248   5.508   4.531  0.5295  0.2217 -0.2686
  459EOH      C 1840   2.246   5.583   4.396 -0.1974  0.3300 -0.1952
  459EOH      H 1841   2.420   5.487   4.622  0.2433  0.6024  1.4297
  460EOH      O 1842   2.448   3.529   2.379  0.1834 -0.2648 -0.2793
  460EOH      C 1843   2.570   3.465   2.417  0.2883 -0.0192 -0.2040
  460EOH      C 1844   2.554   3.439   2.568  0.2790  0.1898 -0.1684
  460EOH      H 1845   2.474   3.590   2.312  1.8809 -1.0721 -0.3868
  461EOH      O 1846   4.771   2.687   1.960  0.3227 -0.1340 -0.0007
  461EOH      C 1847   4.872   2.588   1.982  0.4392  0.0359  0.2201
  461EOH      C 1848   5.003   2.626   2.055  0.6390 -0.5391  0.1583
  461EOH      H 1849   4.690   2.652   1.995  0.3022  1.9541  2.1048
  462EOH      O 1850   2.747   5.080   1.960  0.0861 -0.0445  0.0266
  462EOH      C 1851   2.884   5.120   1.953 -0.2316  1.1367  0.4731
  462EOH      C 1852   2.968   5.096   2.080 -0.0942  0.2641  0.2180
  462EOH      H 1853   2.717   5.116   2.042 -0.7003 -0.5981 -0.0141
  463EOH      O 1854   1.061   4.996   4.216  0.0396 -0.4637 -0.2398
  463EOH      C 1855   1.020   5.045   4.088 -0.6122 -0.4435 -0.0270
  463EOH      C 1856   1.151   5.102   4.031 -0.6323  0.0830  0.4556
  463EOH      H 1857   0.988   5.010   4.275 -1.2150 -1.6001 -1.4782
  464EOH      O 1858   4.137   3.158   1.603 -0.8368  0.2859 -0.0936
  464EOH      C 1859   4.037   3.066   1.648 -0.3884 -0.1090  0.0956
  464EOH      C 1860   4.078   2.924   1.605 -0.1059 -0.0469  0.1528
  464EOH      H 1861   4.134   3.160   1.508  0.3102  0.5005 -0.1322
  465EOH      O 1862   2.340   4.269   1.692  0.1085 -0.5046 -0.0318
  465EOH      C 1863   2.350   4.297   1.552 -0.4731  0.2070  0.0678
  465EOH      C 1864   2.246   4.210   1.480  0.0875 -0.2863 -0.1462
  465EOH      H 1865   2.401   4.326   1.736 -0.4000  1.0406 -1.2741
  466EOH      O 1866   0.594   4.510   4.504  0.2784 -0.1384  0.0203
  466EOH      C 1867   0.628   4.476   4.369  0.6647 -0.8637  0.2991
  466EOH      C 1868   0.728   4.579   4.313  0.2472 -0.4889  0.2394
  466EOH      H 1869   0.672   4.491   4.553 -0.2235  0.5743  1.1189
  467EOH      O 1870   5.187   3.878   4.238  0.2954  0.2125  0.1779
  467EOH      C 1871   5.235   3.748   4.274 -0.3704  0.0394  0.4416
  467EOH      C 1872   5.192   3.717   4.419  0.3123 -0.5728  0.5136
  467EOH      H 1873   5.261   3.935   4.220 -0.1402  0.5499 -0.5810
  468EOH      O 1874   1.144   1.764   0.647 -0.2452 -0.4695 -0.2073
  468EOH      C 1875   1.187   1.686   0.758 -0.4306 -0.6414 -0.2555
  468EOH      C 1876   1.157   1.741   0.899  0.1655 -0.0695 -0.3508
  468EOH      H 1877   1.175   1.721   0.568  2.6053 -0.6206  0.9621
  469EOH      O 1878   3.963   5.265   5.581 -0.1628  0.3685  0.1077
  469EOH      C 1879   3.930   5.366   5.485 -0.3681 -0.0545 -0.2694
  469EOH      C 1880   3.790   5.422   5.514 -0.3897 -0.0135 -0.4542
  469EOH      H 1881   3.925   5.187   5.544 -0.2194 -0.4870  1.8981
  470EOH      O 1882   0.739   2.451   0.351  0.4350 -0.6621 -0.3184
  470EOH      C 1883   0.838   2.468   0.250  0.0010 -0.7608 -0.7654
  470EOH      C 1884   0.967   2.540   0.295 -0.3225 -0.2734 -0.6180
  470EOH      H 1885   0.671   2.391   0.323 -1.0632  1.4906 -1.4693
  471EOH      O 1886   0.153   1.933   5.746  0.0233 -0.1454  0.3499
  471EOH      C 1887   0.151   1.829   5.647  0.0400  0.1667  0.0214
  471EOH      C 1888   0.003   1.806   5.615  0.1535 -0.5265 -0.0036
  471EOH      H 1889   0.085   1.913   5.809 -1.0146  0.9449 -0.3846
  472EOH      O 1890   1.156   5.611   1.066 -0.0129 -0.1064  0.3796
  472EOH      C 1891   1.087   5.689   1.164 -0.0657  0.0921  0.1860
  472EOH      C 1892   1.163   5.697   1.298  0.5394  0.0083 -0.1527
  472EOH      H 1893   1.092   5.587   1.001 -0.1097  1.9657 -0.3476
  473EOH      O 1894   0.245   0.314   0.601  0.0259  0.6367 -0.0335
  473EOH      C 1895   0.160   0.244   0.510  0.2188  0.5536 -0.1490
  473EOH      C 1896   0.229   0.135   0.426 -0.2041  0.6000 -0.5590
  473EOH      H 1897   0.319   0.338   0.548 -1.4213  1.0610 -1.9145
  474EOH      O 1898   0.818   1.209   4.622 -0.0574 -0.1167  0.6741
  474EOH      C 1899   0.904   1.268   4.720  0.2404  0.2913  0.1741
  474EOH      C 1900   1.037   1.193   4.737  0.2188  0.2555  0.1858
  474EOH      H 1901   0.800   1.127   4.666 -0.1021  1.0808  2.9873
  475EOH      O 1902   1.093   4.841   3.368 -0.3742  0.0104 -0.0740
  475EOH      C 1903   1.134   4.712   3.412  0.0501  0.4059  0.7088
  475EOH      C 1904   1.256   4.734   3.504  0.6641  0.5051 -0.1301
  475EOH      H 1905   1.125   4.845   3.279  1.0025  0.7696  0.4457
  476EOH      O 1906   0.101   4.770   4.063 -0.4358 -0.2097  0.1265
  476EOH      C 1907   0.172   4.770   4.187  0.1452  0.1416 -0.2060
  476EOH      C 1908   0.258   4.897   4.194  0.2879  0.0497 -0.2900
  476EOH      H 1909   0.142   4.836   4.011  0.3037 -1.0352 -0.3565
  477EOH      O 1910   4.314   4.573   1.393  0.4816 -0.1793  0.3492
  477EOH      C 1911   4.343   4.671   1.293  0.0752 -0.2143  0.1957
  477EOH      C 1912   4.245   4.789   1.287 -0.1206 -0.3938 -0.0914
  477EOH      H 1913   4.240   4.520   1.368  0.0048  0.7459 -0.2273
  478EOH      O 1914   3.782   0.171   1.038  0.3619 -0.3280 -0.5175
  478EOH      C 1915   3.791   0.172   1.181  0.2792  0.6058 -0.5145
  478EOH      C 1916   3.742   0.302   1.247 -0.0152 -0.0622  0.5956
  478EOH      H 1917   3.848   0.228   1.000  2.0807 -1.8468  0.0935
  479EOH      O 1918   1.654   6.103   6.027  0.2001  0.1394  0.2336
  479EOH      C 1919   1.556   6.015   6.082 -0.3149  0.6063  0.0697
  479EOH      C 1920   1.612   5.980   6.221 -0.5839 -0.8620 -0.1743
  479EOH      H 1921   1.727   6.056   5.990  1.2614  2.2339 -0.4396
  480EOH      O 1922   6.096   5.364   3.715 -0.0614 -0.1988 -0.2161
  480EOH      C 1923   6.202   5.436   3.653  0.2706 -0.3893  0.1296
  480EOH      C 1924   6.187   5.590   3.652  0.2693 -0.3909 -0.1839
  480EOH      H 1925   6.078   5.403   3.799  0.1926  1.4440 -0.9045
  481EOH      O 1926   3.759   4.342   1.645  0.4932 -0.0825 -0.1579
  481EOH      C 1927   3.760   4.230   1.735  0.3408  0.3693  0.4034
  481EOH      C 1928   3.725   4.285   1.875 -0.2049  0.3141  0.2902
  481EOH      H 1929   3.675   4.340   1.603  0.3379  0.9747  0.0876
  482EOH      O 1930   3.126   1.111   5.226  0.0946  0.0734 -0.3541
  482EOH      C 1931   3.234   1.041   5.289  0.0172 -0.1701 -0.4905
  482EOH      C 1932   3.331   1.151   5.337  0.0268 -0.1882 -0.4679
  482EOH      H 1933   3.056   1.049   5.214 -0.0105 -0.0298  0.7391
  483EOH      O 1934   4.726   5.566   2.454  0.3706 -0.0287 -0.1160
  483EOH      C 1935   4.850   5.612   2.398  0.3053  0.6724  0.3048
  483EOH      C 1936   4.981   5.576   2.470  0.2397  0.1054  0.1445
  483EOH      H 1937   4.654   5.575   2.393 -0.8356 -1.3951  1.0817
  484EOH      O 1938   1.265   4.041   5.088 -0.0743 -0.3702 -0.4114
  484EOH      C 1939   1.158   4.130   5.116  0.7367  0.5330 -0.1630
  484EOH      C 1940   1.123   4.212   4.991  0.3225  0.3145 -0.1888
  484EOH      H 1941   1.234   3.953   5.101  1.1495 -0.6053  1.0149
  485EOH      O 1942   1.411   2.854   0.060 -0.3856 -0.1302 -0.1787
  485EOH      C 1943   1.456   2.990   0.066  0.3741 -0.3789 -0.3101
  485EOH      C 1944   1.532   3.034  -0.061  0.1051  0.2104 -0.2642
  485EOH      H 1945   1.483   2.797   0.080  0.6153  0.9360 -0.7451
  486EOH      O 1946   4.508   1.248   1.256  0.2176 -0.0884 -0.0826
  486EOH      C 1947   4.598   1.350   1.298  0.3879 -0.1451 -0.3060
  486EOH      C 1948   4.573   1.478   1.217  0.4994  0.0106 -0.0976
  486EOH      H 1949   4.468   1.216   1.335  0.9087 -1.8406 -0.4225
  487EOH      O 1950   3.447   3.458   5.686  0.0521 -0.2713  0.6545
  487EOH      C 1951   3.479   3.595   5.711 -0.6764 -0.0582  0.4464
  487EOH      C 1952   3.567   3.597   5.837 -0.4174 -0.5528  0.2705
  487EOH      H 1953   3.359   3.444   5.652  0.2305 -2.7976  1.1783
  488EOH      O 1954   1.279   4.010   0.500  0.2639 -0.0820  0.3596
  488EOH      C 1955   1.250   4.107   0.601 -0.2139  0.4878 -0.3227
  488EOH      C 1956   1.108   4.089   0.659 -0.0069  0.3117  0.1258
  488EOH      H 1957   1.330   4.049   0.431  0.8433 -0.9638  0.2788
  489EOH      O 1958   3.585   5.892   1.874 -0.0493  0.8746  0.3888
  489EOH      C 1959   3.493   5.859   1.979  0.0276 -0.9637 -0.1054
  489EOH      C 1960   3.564   5.780   2.090  0.2919 -0.1318  0.3188
  489EOH      H 1961   3.601   5.808   1.833 -0.9071 -0.1581  2.1423
  490EOH      O 1962   4.040   0.853   3.027 -0.3059 -0.4913  0.0989
  490EOH      C 1963   4.171   0.902   3.059 -0.4791 -0.0589  0.1553
  490EOH      C 1964   4.175   0.982   3.190  0.0148  0.2021 -0.0185
  490EOH      H 1965   4.043   0.763   3.054  3.3696  0.0569  1.8590
  491EOH      O 1966   3.907   5.642   5.205 -0.0208  0.0843  0.7093
  491EOH      C 1967   3.853   5.746   5.124 -0.6489 -0.9157 -0.1602
  491EOH      C 1968   3.918   5.764   4.985 -0.1380  0.1483  0.2112
  491EOH      H 1969   3.997   5.667   5.217  0.1192 -0.0738  0.0228
  492EOH      O 1970   5.345   4.740   5.846  0.0704  0.9800 -0.1923
  492EOH      C 1971   5.443   4.841   5.874  0.3261  0.5773  0.3672
  492EOH      C 1972   5.528   4.800   5.996 -0.1899 -0.0375  0.5259
  492EOH      H 1973   5.298   4.766   5.768 -1.6825  0.5886  0.7009
  493EOH      O 1974   2.592   5.356   0.192  0.2792 -0.1769 -0.1123
  493EOH      C 1975   2.642   5.325   0.322  0.1964 -0.0654 -0.0538
  493EOH      C 1976   2.733   5.202   0.302 -0.4502 -0.5127 -0.2687
  493EOH      H 1977   2.503   5.388   0.201 -1.1555 -3.6450 -1.1790
  494EOH      O 1978   1.110   4.818   0.042  0.3461 -0.0598 -0.3073
  494EOH      C 1979   0.990   4.878  -0.008 -0.0186 -0.3290  0.2398
  494EOH      C 1980   0.998   5.032  -0.011 -0.0697 -0.3427 -0.5765
  494EOH      H 1981   1.101   4.724   0.042  1.1827 -0.1470 -0.0609
  495EOH      O 1982   0.591   2.785   2.399  0.3086 -0.5706 -0.0498
  495EOH      C 1983   0.637   2.797   2.534  0.2790  0.2737 -0.1127
  495EOH      C 1984   0.761   2.709   2.554  0.1969  0.3331  0.6416
  495EOH      H 1985   0.558   2.696   2.393  0.8633 -0.8400  0.8872
  496EOH      O 1986   3.196   0.388   4.871  0.0401  0.0528  0.5114
  496EOH      C 1987   3.317   0.378   4.795 -0.0358  0.3735  0.3481
  496EOH      C 1988   3.355   0.506   4.717  0.1111 -0.3959 -0.8568
  496EOH      H 1989   3.166   0.300   4.887 -2.0845  0.2776 -1.8616
  497EOH      O 1990   5.278   4.380   4.857 -0.1659  0.2514 -0.2547
  497EOH      C 1991   5.141   4.406   4.888 -0.2114 -0.1245 -0.1429
  497EOH      C 1992   5.126   4.511   5.000 -0.7175 -0.4975  0.1412
  497EOH      H 1993   5.292   4.287   4.864 -0.3326  0.2159 -0.4022
  498EOH      O 1994   4.819   3.672   2.470  0.2546  0.4418 -0.4481
  498EOH      C 1995   4.876   3.559   2.404  0.3440  0.1938  0.0509
  498EOH      C 1996   4.759   3.468   2.364  0.3763  0.1290  0.1031
  498EOH      H 1997   4.881   3.708   2.532 -0.0970  0.7813 -0.2857
  499EOH      O 1998   2.309   1.831   1.654 -0.3757  0.4476  0.1208
  499EOH      C 1999   2.386   1.926   1.728  0.2849 -0.1732  0.2264
  499EOH      C 2000   2.347   1.922   1.877 -0.2697 -0.4760  0.0730
  499EOH      H 2001   2.364   1.768   1.610  1.2009  0.5606  1.8883
  500EOH      O 2002   2.483   0.162   3.773  0.0733 -0.0111  0.3439
  500EOH      C 2003   2.596   0.090   3.722 -0.1211 -0.3197  0.3454
  500EOH      C 2004   2.568  -0.008   3.607 -0.1043 -0.1110  0.1634
  500EOH      H 2005   2.510   0.244   3.811 -0.0803  0.0544  0.3116
  501EOH      O 2006   2.613   5.191   3.213 -0.1098  0.5329  0.0468
  501EOH      C 2007   2.666   5.241   3.090  0.2722 -0.9760 -0.4049
  501EOH      C 2008   2.711   5.129   2.994  0.7543 -0.4006 -0.8571
  501EOH      H 2009   2.567   5.262   3.256 -0.2575  0.5162 -0.0856
  502EOH      O 2010   2.309   1.390   5.720  0.1311  0.5959 -0.5322
  502EOH      C 2011   2.435   1.345   5.669  0.0107 -0.2206 -0.1120
  502EOH      C 2012   2.436   1.390   5.522  0.2606 -0.7017 -0.2604
  502EOH      H 2013   2.292   1.343   5.800 -2.0137  3.0255  0.5226
  503EOH      O 2014   3.502   4.356   1.584 -0.0124  0.0607  0.1668
  503EOH      C 2015   3.389   4.270   1.570  0.0100 -0.0249  0.5288
  503EOH      C 2016   3.422   4.120   1.556 -0.0282 -0.0194  0.3672
  503EOH      H 2017   3.474   4.447   1.578 -0.8158 -0.1975 -0.0621
  504EOH      O 2018   6.288   4.551   4.045  0.2232 -0.2187 -0.4634
  504EOH      C 2019   6.367   4.446   4.100  0.0722 -0.3392 -0.4759
  504EOH      C 2020   6.466   4.387   3.998  0.5156 -0.2663 -0.0911
  504EOH      H 2021   6.339   4.629   4.030  0.9571 -0.8198 -1.1289
  505EOH      O 2022   2.949   3.765   5.065 -0.0400 -0.2574  0.6414
  505EOH      C 2023   3.039   3.654   5.063  0.1992 -0.0517  0.1433
  505EOH      C 2024   2.987   3.558   5.170 -0.2331 -0.1126 -0.1188
  505EOH      H 2025   2.991   3.845   5.037 -0.7406  0.0853  0.5621
  506EOH      O 2026   3.960   3.841   5.474  0.4281  0.0635  0.2580
  506EOH      C 2027   3.881   3.954   5.513  0.2411 -0.1881  0.6145
  506EOH      C 2028   3.810   3.914   5.644 -0.6117 -0.2278  0.1482
  506EOH      H 2029   3.918   3.802   5.400 -0.5868 -0.9065  1.3189
  507EOH      O 2030   4.377   4.124   0.271  0.5619  0.3173  0.3014
  507EOH      C 2031   4.276   4.207   0.214  0.2828 -0.3456 -0.1728
  507EOH      C 2032   4.224   4.328   0.293  0.0187 -0.6172  0.0766
  507EOH      H 2033   4.346   4.104   0.358  2.1802  0.9874  1.0539
  508EOH      O 2034   2.590   4.805   0.295 -0.0274  0.2104  0.2039
  508EOH      C 2035   2.468   4.828   0.224 -0.0891 -0.3585  0.1189
  508EOH      C 2036   2.492   4.935   0.115 -0.1806 -0.2902  0.1662
  508EOH      H 2037   2.595   4.849   0.379  1.4808 -1.2625  0.9118
  509EOH      O 2038   6.278   0.837   4.846 -0.0752  0.3127  0.1259
  509EOH      C 2039   6.206   0.859   4.967 -0.0547  0.4525  0.1125
  509EOH      C 2040   6.074   0.780   4.956  0.1110  0.1752  0.1205
  509EOH      H 2041   6.354   0.893   4.845 -0.1226  0.3994  1.3270
  510EOH      O 2042   1.270   2.427   4.704 -1.0237 -0.3416  0.5745
  510EOH      C 2043   1.273   2.538   4.794 -0.1945  0.1768 -0.0901
  510EOH      C 2044   1.400   2.623   4.773  0.1153 -0.1332  0.5053
  510EOH      H 2045   1.213   2.356   4.728  0.4146 -1.4730  0.7179
  511EOH      O 2046   4.795   5.256   2.731  0.3658  0.2283 -0.5760
  511EOH      C 2047   4.678   5.181   2.700  0.1227  0.3081  0.1657
  511EOH      C 2048   4.676   5.057   2.793  0.1715  0.0725 -0.1474
  511EOH      H 2049   4.778   5.348   2.715  3.5990  0.8206 -1.0135
  512EOH      O 2050   1.464   5.871   2.217 -0.2326 -0.6669  0.4435
  512EOH      C 2051   1.519   5.768   2.135  0.0457  0.0029 -0.2164
  512EOH      C 2052   1.650   5.716   2.199 -0.1966  0.1328  0.3894
  512EOH      H 2053   1.393   5.832   2.265  0.8735 -1.9214  1.0852
  513EOH      O 2054   3.396   5.958   4.509 -0.3926 -0.1430  0.0401
  513EOH      C 2055   3.467   6.036   4.412 -0.2075 -0.2930  0.0540
  513EOH      C 2056   3.354   6.087   4.321 -0.0811  0.1606  0.1482
  513EOH      H 2057   3.459   5.909   4.560 -3.1913 -1.5813  2.2573
  514EOH      O 2058   0.810   4.308   2.628  0.0787  0.1464  0.5744
  514EOH      C 2059   0.691   4.315   2.707 -0.3485  0.3438 -0.0799
  514EOH      C 2060   0.647   4.173   2.748  0.2567  0.1914  0.0515
  514EOH      H 2061   0.800   4.311   2.534 -1.6440  0.3118  0.7481
  515EOH      O 2062   1.299   3.715   3.951 -0.2625 -0.0666  0.1912
  515EOH      C 2063   1.169   3.704   4.008 -0.2567  0.1303  0.2408
  515EOH      C 2064   1.099   3.567   4.005  0.1837 -0.0950  0.2967
  515EOH      H 2065   1.356   3.676   4.016 -1.8631  0.1803  1.7739
  516EOH      O 2066   1.773   1.701   3.793 -0.1421 -0.2707 -0.8683
  516EOH      C 2067   1.633   1.730   3.798 -0.1176 -0.2845  0.0180
  516EOH      C 2068   1.594   1.793   3.663  0.3797  0.0478  0.0261
  516EOH      H 2069   1.794   1.639   3.861  0.0809 -2.2152 -2.6551
  517EOH      O 2070   2.400   0.005   0.723 -0.2599  0.2508 -0.0893
  517EOH      C 2071   2.273  -0.022   0.783 -0.2472  0.2071 -0.0825
  517EOH      C 2072   2.276  -0.170   0.825  0.0878  0.2266 -0.0374
  517EOH      H 2073   2.464   0.026   0.790 -0.3222  1.4440 -0.3853
  518EOH      O 2074   4.606   5.420   4.027 -0.1537 -0.0032  0.0774
  518EOH      C 2075   4.678   5.526   4.090  0.0479  0.1958 -0.4844
  518EOH      C 2076   4.681   5.650   3.999  0.0417  0.6506  0.1326
  518EOH      H 2077   4.586   5.361   4.098 -0.3996  0.8745  0.7447
  519EOH      O 2078   0.608   4.461   4.899 -0.2567 -0.8074 -0.3658
  519EOH      C 2079   0.579   4.350   4.985  0.2698 -0.7037 -0.0496
  519EOH      C 2080   0.600   4.231   4.890 -0.6621 -0.2666 -0.8108
  519EOH      H 2081   0.532   4.480   4.847  0.0686  1.4104 -0.0926
  520EOH      O 2082   0.103   2.203   3.367 -0.4874  0.1507 -0.1052
  520EOH      C 2083   0.216   2.263   3.302 -0.0719 -0.4517  0.0592
  520EOH      C 2084   0.171   2.347   3.182 -0.2765 -0.0565  0.4090
  520EOH      H 2085   0.134   2.175   3.452 -1.0504 -1.0154 -0.2738
  521EOH      O 2086   0.858   1.033   5.597 -0.2146 -0.0303  0.7458
  521EOH      C 2087   0.990   1.000   5.642 -0.1352 -0.6743  0.0344
  521EOH      C 2088   1.087   1.044   5.531 -0.0921 -0.2286  0.2506
  521EOH      H 2089   0.826   1.090   5.666  1.4242  1.4457  0.3343
  522EOH      O 2090   3.739   4.547   0.794  0.6179 -0.1100 -1.0260
  522EOH      C 2091   3.638   4.619   0.722  0.2196  0.3103 -0.0598
  522EOH      C 2092   3.503   4.600   0.794  0.2459  0.4142  0.0175
  522EOH      H 2093   3.725   4.454   0.782 -1.2859  0.1165 -0.8202
  523EOH      O 2094   6.013   1.578   2.696  0.0489 -0.2022 -0.4673
  523EOH      C 2095   5.961   1.466   2.769 -0.2975  0.1758 -0.1304
  523EOH      C 2096   5.811   1.494   2.788 -0.3642 -0.3412  0.1127
  523EOH      H 2097   5.961   1.603   2.621  1.2800  2.9648 -0.3578
  524EOH      O 2098   3.729   5.055   4.305  0.2251 -0.1665  0.2040
  524EOH      C 2099   3.819   4.969   4.234 -0.4517 -0.8055  0.1147
  524EOH      C 2100   3.819   5.015   4.086 -0.0082  0.8991  0.6261
  524EOH      H 2101   3.739   5.038   4.397  0.5388 -1.0293  0.0169
  525EOH      O 2102   4.113   4.853   0.337  0.4423 -0.1187  0.1115
  525EOH      C 2103   4.142   4.841   0.198 -0.1947  0.6354 -0.0901
  525EOH      C 2104   4.132   4.976   0.124 -0.5780  0.3229 -0.6117
  525EOH      H 2105   4.120   4.771   0.384 -1.4991 -0.9048 -0.9290
  526EOH      O 2106   5.892   6.294   0.841  0.5094 -0.1552 -0.2163
  526EOH      C 2107   5.847   6.399   0.928  0.1271 -0.0743 -0.5139
  526EOH      C 2108   5.942   6.519   0.907  0.3248 -0.0988  0.2542
  526EOH      H 2109   5.978   6.267   0.868  0.2815  0.7945  1.5567
  527EOH      O 2110   2.486   6.180   5.812 -0.6896 -0.2055 -0.2155
  527EOH      C 2111   2.379   6.160   5.905 -0.1670 -0.3140  0.3625
  527EOH      C 2112   2.289   6.282   5.880  0.2387  0.0312  0.5719
  527EOH      H 2113   2.560   6.127   5.839  0.3258  0.3245 -1.8687
  528EOH      O 2114   0.759   5.488   4.295  0.6768  0.3021  0.3493
  528EOH      C 2115   0.848   5.388   4.343  0.6421  0.2737  0.3547
  528EOH      C 2116   0.987   5.401   4.277  0.5482 -0.1348  0.0729
  528EOH      H 2117   0.693   5.494   4.363 -0.3347 -1.3222 -0.4662
  529EOH      O 2118   0.357   2.041   5.895  0.6006 -0.6511 -0.2272
  529EOH      C 2119   0.476   2.080   5.826  1.0247  0.6214  1.2135
  529EOH      C 2120   0.585   1.985   5.876  0.3909 -0.8335 -0.1335
  529EOH      H 2121   0.303   1.984   5.841 -0.7818 -0.6033  1.0781
  530EOH      O 2122   3.791   4.263   4.827  0.0416 -0.4570 -0.2500
  530EOH      C 2123   3.855   4.230   4.703 -0.3643 -0.3770 -0.4852
  530EOH      C 2124   4.003   4.200   4.733 -0.4085 -0.1484 -0.0253
  530EOH      H 2125   3.697   4.268   4.816  0.0574 -0.0302 -0.1948
  531EOH      O 2126   3.890   3.713   5.274  0.0516 -0.3639  0.3942
  531EOH      C 2127   3.813   3.592   5.282 -0.3631 -0.1309 -0.0653
  531EOH      C 2128   3.765   3.551   5.141 -0.3923 -0.1292 -0.0561
  531EOH      H 2129   3.946   3.697   5.200  0.1327 -1.0160  0.5919
  532EOH      O 2130   0.465   0.967   0.312  0.4000  0.0700  0.3630
  532EOH      C 2131   0.355   1.031   0.378 -0.1604 -0.9172  0.3928
  532EOH      C 2132   0.228   0.970   0.317 -0.3780 -0.3403  0.2678
  532EOH      H 2133   0.548   1.012   0.316 -0.2393  1.1784  1.4489
  533EOH      O 2134   2.347   2.405   3.053  0.0169 -0.4424 -0.5687
  533EOH      C 2135   2.429   2.304   3.111  0.1255  0.0242  0.0952
  533EOH      C 2136   2.478   2.209   3.000 -0.5561 -0.3348  0.1032
  533EOH      H 2137   2.262   2.403   3.093  1.0646 -0.2396  1.6995
  534EOH      O 2138   0.297   3.991   6.124  0.4031 -0.3390 -0.0322
  534EOH      C 2139   0.360   3.952   6.246 -0.0294 -0.1865  0.2395
  534EOH      C 2140   0.496   3.884   6.222  0.0292 -0.0410  0.1574
  534EOH      H 2141   0.213   4.032   6.140  1.3502  2.1945 -1.2542
  535EOH      O 2142   4.053   5.880   0.143 -0.3914  0.1416 -0.4519
  535EOH      C 2143   4.035   5.770   0.053  0.4255 -0.6629  0.3549
  535EOH      C 2144   3.950   5.834  -0.058  0.4469 -0.7518  0.2873
  535EOH      H 2145   4.139   5.910   0.118 -0.6086 -0.9262 -2.6269
  536EOH      O 2146   1.345   3.332   0.064 -0.5231 -0.1312 -0.1631
  536EOH      C 2147   1.241   3.352   0.161 -0.1519 -0.0339  0.2163
  536EOH      C 2148   1.285   3.282   0.291  0.1345  0.5138  0.4178
  536EOH      H 2149   1.427   3.367   0.096 -1.2565  0.6329  0.9339
  537EOH      O 2150   1.552   1.390   4.901  0.0716 -0.0074  0.0619
  537EOH      C 2151   1.617   1.507   4.849 -0.1134  0.0795  0.0234
  537EOH      C 2152   1.748   1.522   4.929 -0.3342 -0.2287  0.4476
  537EOH      H 2153   1.507   1.432   4.973 -0.3399 -0.7121  0.2165
  538EOH      O 2154   6.141   5.194   0.944  0.0913  0.6872 -0.7391
  538EOH      C 2155   6.128   5.098   0.839 -0.7675  0.4015 -0.3765
  538EOH      C 2156   6.142   4.952   0.885  0.8030  0.6842  0.0789
  538EOH      H 2157   6.221   5.238   0.920  0.1848  0.9798  0.0768
  539EOH      O 2158   5.539   2.728   3.536 -0.1899  0.2997  0.1319
  539EOH      C 2159   5.507   2.785   3.663 -0.3777 -0.1277  0.2756
  539EOH      C 2160   5.416   2.907   3.637  0.1239  0.1340 -0.2439
  539EOH      H 2161   5.603   2.784   3.494 -0.1038  0.1106  0.0098
  540EOH      O 2162   2.541   2.065   1.095  0.1562  0.2634 -0.1018
  540EOH      C 2163   2.648   1.990   1.037 -0.2028 -0.4861  0.2053
  540EOH      C 2164   2.779   2.036   1.104 -0.2573  0.0005 -0.0187
  540EOH      H 2165   2.529   2.051   1.187  0.4165  1.4142  0.1147
  541EOH      O 2166   4.116   5.302   2.968  0.4925 -0.4109 -0.2071
  541EOH      C 2167   4.050   5.209   3.054  0.7754  0.2790  0.7631
  541EOH      C 2168   3.917   5.282   3.077  0.4759  0.0561 -0.2479
  541EOH      H 2169   4.042   5.320   2.912  0.9117  0.4573 -0.5001
  542EOH      O 2170   1.264   5.537   3.890 -0.2529 -0.1349  0.0346
  542EOH      C 2171   1.179   5.429   3.930 -0.2960 -0.1457 -0.0887
  542EOH      C 2172   1.076   5.389   3.822 -0.1372 -0.2328 -0.2073
  542EOH      H 2173   1.220   5.612   3.926 -2.0276  0.2140 -2.7196
  543EOH      O 2174   3.599   3.096   1.401 -0.4853 -0.1044  0.0156
  543EOH      C 2175   3.608   3.238   1.417 -0.3091 -0.1114 -0.0212
  543EOH      C 2176   3.747   3.269   1.477 -0.2361 -0.7716  0.1606
  543EOH      H 2177   3.515   3.077   1.362  1.1332 -0.2402 -3.5979
  544EOH      O 2178   4.754   0.280   0.527 -0.1729 -0.0903  0.4660
  544EOH      C 2179   4.641   0.357   0.568 -0.5192 -0.1087 -0.4363
  544EOH      C 2180   4.657   0.385   0.719 -0.0372 -0.0226 -0.5010
  544EOH      H 2181   4.736   0.222   0.455 -0.4664  2.2651 -1.3894
  545EOH      O 2182   2.566   4.093   4.209  0.7719  0.2082 -0.2552
  545EOH      C 2183   2.566   4.004   4.321 -0.0470  0.6643  0.1168
  545EOH      C 2184   2.715   3.980   4.354  0.1201  0.0409 -1.0350
  545EOH      H 2185   2.475   4.106   4.190  1.0828  1.3827 -1.0600
  546EOH      O 2186   0.982   1.285   3.736  0.0714 -0.7878  0.3485
  546EOH      C 2187   0.858   1.243   3.793 -0.2181 -0.4507 -0.0253
  546EOH      C 2188   0.825   1.105   3.732 -0.5360 -0.2529 -0.3051
  546EOH      H 2189   1.008   1.372   3.761  1.8939 -0.4342 -2.4410
  547EOH      O 2190   2.734   3.886   0.186 -0.3995  0.2303 -0.2137
  547EOH      C 2191   2.628   3.947   0.113 -0.5142  0.2338 -0.0467
  547EOH      C 2192   2.636   4.100   0.130  0.1308  0.0854  1.0181
  547EOH      H 2193   2.805   3.948   0.193  0.2321 -0.5111  0.0697
  548EOH      O 2194   5.938   3.470   3.320  0.1517  0.2726  0.0793
  548EOH      C 2195   6.009   3.495   3.441  0.3908  0.4855 -0.1039
  548EOH      C 2196   5.953   3.422   3.565 -0.8059  0.1836 -0.8199
  548EOH      H 2197   6.004   3.449   3.256 -0.3076  0.0489 -0.3253
  549EOH      O 2198   6.021   2.805   3.583 -0.0504  0.3135 -0.3211
  549EOH      C 2199   6.088   2.765   3.703 -0.0325  0.8658 -0.1433
  549EOH      C 2200   5.988   2.786   3.818  0.1459  0.1243  0.1521
  549EOH      H 2201   6.033   2.898   3.578 -1.9591  0.7407  1.8613
  550EOH      O 2202   0.913   5.986   3.084  0.1972 -0.2156  0.2583
  550EOH      C 2203   0.841   5.941   3.199 -0.2811  0.1956  0.1230
  550EOH      C 2204   0.850   5.787   3.191  0.2671  0.2264  0.1562
  550EOH      H 2205   0.902   6.080   3.078  1.5416 -0.0117  0.8047
  551EOH      O 2206   0.658   4.099   5.799  0.2552  0.1250  0.2585
  551EOH      C 2207   0.653   4.215   5.715  0.3807  0.2506  0.4239
  551EOH      C 2208   0.798   4.231   5.666  0.0668  0.2084 -0.5401
  551EOH      H 2209   0.571   4.084   5.835 -0.7231  3.5405 -0.4910
  552EOH      O 2210   5.422   1.468   2.359  0.1051  0.3373  0.3383
  552EOH      C 2211   5.542   1.405   2.406  0.0508 -0.1897 -0.2143
  552EOH      C 2212   5.524   1.316   2.530 -0.0457 -0.0470 -0.1249
  552EOH      H 2213   5.441   1.485   2.268 -2.0685  2.2719  0.2268
  553EOH      O 2214   6.227   1.009   2.968  0.5932 -0.0149  0.2977
  553EOH      C 2215   6.160   0.919   3.057 -0.4791  0.4024 -0.0794
  553EOH      C 2216   6.105   0.810   2.963 -0.2021 -0.1328  0.3771
  553EOH      H 2217   6.263   1.076   3.024  0.8296 -0.7067  0.9795
  554EOH      O 2218   1.514   3.986   2.033  0.3715  0.6441  0.3203
  554EOH      C 2219   1.614   3.889   2.062 -0.6184 -0.4343  0.1310
  554EOH      C 2220   1.702   3.962   2.164 -0.6866  0.4899 -0.4679
  554EOH      H 2221   1.449   3.939   1.982  0.6846  1.1408 -0.5577
  555EOH      O 2222   4.382   5.323   0.803 -0.1435  1.0123  0.5302
  555EOH      C 2223   4.308   5.385   0.698 -0.1518 -0.1489 -0.1642
  555EOH      C 2224   4.398   5.498   0.643 -0.1986  0.4456  0.9685
  555EOH      H 2225   4.410   5.390   0.863 -1.3117  3.9677 -2.0832
  556EOH      O 2226   0.715   6.314   1.035  0.1241 -0.7690 -0.4405
  556EOH      C 2227   0.736   6.317   0.893 -0.5001  0.1463 -0.5175
  556EOH      C 2228   0.786   6.178   0.851 -0.3600  0.0617 -0.0708
  556EOH      H 2229   0.705   6.404   1.061 -2.1209 -2.0682  3.5409
  557EOH      O 2230   0.918   0.462   3.909  0.0637 -0.3918 -0.1825
  557EOH      C 2231   0.830   0.558   3.848 -0.1057 -0.1158  0.4985
  557EOH      C 2232   0.698   0.479   3.839 -0.0283 -0.1659 -0.1972
  557EOH      H 2233   0.950   0.410   3.837  0.0024  1.1084 -1.3222
  558EOH      O 2234   1.972   2.217   5.105  0.0887 -0.2841  0.1372
  558EOH      C 2235   1.944   2.109   5.195  0.0082 -0.5006 -0.1434
  558EOH      C 2236   1.828   2.138   5.293 -0.2468 -0.4009 -0.4740
  558EOH      H 2237   1.888   2.254   5.083 -0.6042 -0.5682  2.2204
  559EOH      O 2238   3.419   4.040   2.615  0.3524  0.0026 -0.3384
  559EOH      C 2239   3.386   3.949   2.721 -0.0087  0.2148 -0.2668
  559EOH      C 2240   3.271   3.856   2.677  0.5172 -0.7144  0.2919
  559EOH      H 2241   3.476   3.991   2.557 -0.0921  2.3775 -2.8463
  560EOH      O 2242   5.623   5.215   1.322  0.3342 -0.1386 -0.4406
  560EOH      C 2243   5.575   5.086   1.362 -0.2436  0.2735  0.2271
  560EOH      C 2244   5.430   5.076   1.311 -0.1825 -0.2692  0.1552
  560EOH      H 2245   5.555   5.252   1.269 -1.1439  1.5919  2.5051
  561EOH      O 2246   3.947   4.203   6.064 -0.4701 -0.3265 -0.3317
  561EOH      C 2247   3.955   4.172   5.925 -0.1342 -0.2584 -0.3269
  561EOH      C 2248   4.090   4.106   5.892  0.1433 -0.2448  0.7551
  561EOH      H 2249   3.963   4.294   6.083 -1.0064 -0.3720  0.3699
  562EOH      O 2250   0.755   3.875   5.906  0.2793  0.2962 -0.2089
  562EOH      C 2251   0.653   3.784   5.864  0.5338 -0.1775  0.1913
  562EOH      C 2252   0.688   3.637   5.894  0.3204 -0.1939  0.3646
  562EOH      H 2253   0.735   3.962   5.875 -1.2421  0.3419  0.8170
  563EOH      O 2254   1.031   4.107   3.562  0.6259  0.0162 -0.1548
  563EOH      C 2255   1.070   4.035   3.680  0.4080 -0.1700 -0.1964
  563EOH      C 2256   1.025   4.112   3.805  0.7810  0.5616 -0.5045
  563EOH      H 2257   1.079   4.069   3.490 -0.9990  1.2121 -1.9072
  564EOH      O 2258   3.640   4.533   3.465  0.5358  0.0949  0.4202
  564EOH      C 2259   3.559   4.469   3.565  0.3071 -0.1611  0.0700
  564EOH      C 2260   3.625   4.506   3.699  0.1746  0.2023  0.0353
  564EOH      H 2261   3.640   4.623   3.495  1.4605  0.3060 -0.2085
  565EOH      O 2262   4.080   0.356   3.439  0.4232 -0.0699  0.4954
  565EOH      C 2263   4.032   0.261   3.343  0.4015  0.1357  0.3008
  565EOH      C 2264   4.050   0.118   3.399  0.0303 -0.0758 -0.1170
  565EOH      H 2265   4.172   0.338   3.428  0.0933 -0.6401 -1.5863
  566EOH      O 2266   6.004   5.416   3.948  0.1260 -0.1096 -0.1382
  566EOH      C 2267   6.027   5.386   4.086  0.2203  0.5336 -0.0137
  566EOH      C 2268   6.047   5.514   4.170  0.2457  0.3748  0.2221
  566EOH      H 2269   5.921   5.457   3.928  0.9121  2.1749  1.1146
  567EOH      O 2270   5.113   0.822   0.390 -0.7027  0.1088  0.5424
  567EOH      C 2271   5.004   0.767   0.316 -0.4338 -0.0008  0.2318
  567EOH      C 2272   5.049   0.710   0.180  0.0875 -0.4752  0.6001
  567EOH      H 2273   5.156   0.893   0.345 -0.2714 -0.5271 -0.0602
  568EOH      O 2274   2.878   2.725   5.727  0.0628 -0.1712  0.1983
  568EOH      C 2275   3.008   2.673   5.698  0.3911  0.7490 -0.0217
  568EOH      C 2276   3.055   2.604   5.827  0.1415  0.0427 -0.3009
  568EOH      H 2277   2.821   2.650   5.732  2.6707 -2.2512 -0.1991
  569EOH      O 2278   2.704   4.970   3.270 -0.4935  0.4305 -0.4470
  569EOH      C 2279   2.643   4.915   3.388 -0.1435  0.4355 -0.2621
  569EOH      C 2280   2.725   4.918   3.518 -0.3066 -0.2231 -0.1462
  569EOH      H 2281   2.666   5.056   3.264  0.1440  0.6204 -2.0437
  570EOH      O 2282   4.856   5.992   3.514 -0.0528 -0.3041 -0.5344
  570EOH      C 2283   4.801   6.123   3.522  0.0906 -0.2652 -0.2061
  570EOH      C 2284   4.729   6.146   3.657  0.0161 -0.1788 -0.2597
  570EOH      H 2285   4.910   5.982   3.437 -2.7083 -1.2166 -2.3527
  571EOH      O 2286   0.127   3.030   4.704 -0.0465 -0.0289 -0.1034
  571EOH      C 2287   0.112   2.907   4.776  0.7471  0.1731  0.4039
  571EOH      C 2288   0.190   2.792   4.711 -0.4151  0.0473 -0.7804
  571EOH      H 2289   0.115   3.020   4.610  0.2276 -0.4205 -0.0955
  572EOH      O 2290   0.711   2.202   0.942  0.0372 -0.2000  0.3818
  572EOH      C 2291   0.581   2.191   1.000 -0.0608 -0.3276  0.1382
  572EOH      C 2292   0.525   2.055   0.955 -0.0536 -0.4149  0.3912
  572EOH      H 2293   0.719   2.290   0.908 -1.5571  0.5071  1.8215
  573EOH      O 2294   3.030   1.049   2.347  0.2963 -0.6512  0.2167
  573EOH      C 2295   2.950   0.991   2.451 -0.3137 -0.0450  0.0896
  573EOH      C 2296   2.990   1.052   2.586  0.4938 -0.0053 -0.1645
  573EOH      H 2297   2.978   1.113   2.301  1.4499  2.1857  2.7381
  574EOH      O 2298   5.735   5.115   5.700 -0.1447 -0.2093  0.4983
  574EOH      C 2299   5.723   4.974   5.675 -0.1954 -0.0910 -0.1417
  574EOH      C 2300   5.869   4.924   5.683 -0.0732  0.2482 -0.2042
  574EOH      H 2301   5.769   5.155   5.622 -0.9679 -0.7502 -0.1445
  575EOH      O 2302   2.921   0.502   1.312  0.1204  0.3422 -0.2537
  575EOH      C 2303   2.861   0.630   1.333  0.0869  0.2645  0.1155
  575EOH      C 2304   2.960   0.713   1.417  0.1101  0.5037 -0.1502
  575EOH      H 2305   2.896   0.446   1.384 -3.1634  0.4392 -1.2179
  576EOH      O 2306   2.496   6.217   0.510 -0.5718 -0.1050 -0.2493
  576EOH      C 2307   2.506   6.311   0.403  0.1571  0.1323  0.0227
  576EOH      C 2308   2.636   6.393   0.417  0.1373  0.2116 -0.2601
  576EOH      H 2309   2.465   6.262   0.587 -0.3193 -1.8429  0.8973
  577EOH      O 2310   0.622   0.575   5.772  0.4052 -0.6473  0.4517
  577EOH      C 2311   0.642   0.658   5.887  0.0407  0.1975 -0.0866
  577EOH      C 2312   0.623   0.806   5.850  0.8050  0.3144 -0.0247
  577EOH      H 2313   0.529   0.564   5.772  0.2967  0.1186 -0.9844
  578EOH      O 2314   2.351   5.448   0.186 -0.3703 -0.3491 -0.5805
  578EOH      C 2315   2.215   5.420   0.220 -0.4111 -0.0817 -0.5219
  578EOH      C 2316   2.213   5.364   0.363 -0.2428  1.0811 -0.0649
  578EOH      H 2317   2.345   5.499   0.107  0.9574  0.9499  0.1279
  579EOH      O 2318   3.906   5.009   5.464 -0.1417  0.0083 -0.1257
  579EOH      C 2319   4.030   4.962   5.411 -0.0557 -0.1948  0.2493
  579EOH      C 2320   4.135   4.955   5.523  0.1227 -0.3738  0.0697
  579EOH      H 2321   3.827   4.977   5.423 -0.5700  0.2656  0.4771
  580EOH      O 2322   3.635   0.052   1.810  0.9353 -0.0062 -0.4794
  580EOH      C 2323   3.619   0.022   1.949 -0.0901 -0.4669 -0.6946
  580EOH      C 2324   3.707  -0.099   1.987  0.0786 -0.2746 -0.4710
  580EOH      H 2325   3.591  -0.021   1.770  0.8218  0.1083 -0.5654
  581EOH      O 2326   2.386   5.873   1.143 -0.2547 -0.1374  0.3322
  581EOH      C 2327   2.424   5.775   1.046 -0.0862 -0.0197  0.2803
  581EOH      C 2328   2.558   5.714   1.093  0.1839  0.6689  0.4050
  581EOH      H 2329   2.291   5.870   1.150 -0.1777 -1.1542  1.1531
  582EOH      O 2330   4.809   5.425   5.562 -1.0489 -0.0687 -0.2293
  582EOH      C 2331   4.759   5.537   5.488 -0.2898  0.1645 -0.3918
  582EOH      C 2332   4.685   5.642   5.573  0.3924 -0.0401  0.4647
  582EOH      H 2333   4.899   5.415   5.537 -1.0091 -1.3678  0.4093
  583EOH      O 2334   4.702   3.247   0.364 -0.1433 -0.4888  0.0733
  583EOH      C 2335   4.607   3.297   0.269  0.5918  0.2979 -0.2550
  583EOH      C 2336   4.612   3.217   0.137  0.2248 -0.4908  0.2025
  583EOH      H 2337   4.760   3.311   0.403 -0.9940 -0.3877  1.1976
  584EOH      O 2338   2.574   4.635   4.292 -0.0237 -0.1818 -0.2443
  584EOH      C 2339   2.549   4.726   4.400 -0.1202  0.0516 -0.4617
  584EOH      C 2340   2.505   4.673   4.537 -0.1757 -0.1663 -0.5623
  584EOH      H 2341   2.496   4.612   4.244 -0.2241  0.3554 -0.1768
  585EOH      O 2342   2.736   0.143   4.756 -0.1013 -0.4831  0.2868
  585EOH      C 2343   2.596   0.168   4.746  0.0102  0.0356  0.0046
  585EOH      C 2344   2.525   0.067   4.654 -0.0291  0.1668 -0.1093
  585EOH      H 2345   2.784   0.172   4.680  1.0978 -2.2772  0.3107
  586EOH      O 2346   2.583   4.912   5.757  0.0410  0.3652  0.2563
  586EOH      C 2347   2.580   4.826   5.871 -0.1712 -0.0510 -0.0613
  586EOH      C 2348   2.434   4.822   5.919 -0.3886 -0.2023 -0.7329
  586EOH      H 2349   2.554   4.998   5.784 -1.0487 -0.4251  1.6401
  587EOH      O 2350   2.915   4.727   4.894 -0.1986 -0.2138 -0.5316
  587EOH      C 2351   2.872   4.601   4.948  0.7023 -0.2157  0.2089
  587EOH      C 2352   2.998   4.513   4.953  0.2063 -0.8964  0.7492
  587EOH      H 2353   2.874   4.734   4.809 -0.8961 -0.8303 -0.2482
  588EOH      O 2354   4.238   1.249   5.906 -0.0989  0.1901 -0.3567
  588EOH      C 2355   4.130   1.213   5.993  0.1281 -0.2214 -0.2444
  588EOH      C 2356   4.073   1.076   5.949  0.6219 -0.2347 -0.8450
  588EOH      H 2357   4.317   1.247   5.958 -0.0691  0.4200 -0.3918
  589EOH      O 2358   1.758   2.318   5.007 -0.1026  0.3489 -0.1529
  589EOH      C 2359   1.646   2.386   5.064 -0.0260 -0.0101  0.4355
  589EOH      C 2360   1.513   2.309   5.055 -0.0354  0.0796 -0.2573
  589EOH      H 2361   1.744   2.310   4.914 -1.1143 -0.4490  0.0505
  590EOH      O 2362   3.751   5.153   5.895  0.4355  0.3654 -0.0139
  590EOH      C 2363   3.767   5.047   5.800 -0.0654  0.1491  0.1418
  590EOH      C 2364   3.647   5.035   5.705  0.2920 -0.0767 -0.2777
  590EOH      H 2365   3.834   5.193   5.917  2.0171 -1.8454 -1.7171
  591EOH      O 2366   0.720   2.486   5.638 -0.1700  0.4031 -0.2831
  591EOH      C 2367   0.610   2.447   5.721  0.0331  0.3130 -0.0574
  591EOH      C 2368   0.660   2.439   5.867 -0.2066 -0.0862  0.0036
  591EOH      H 2369   0.764   2.412   5.598 -1.2598  0.5480 -1.7840
  592EOH      O 2370   1.851   4.802   6.217  0.0217  0.5215 -0.4189
  592EOH      C 2371   1.923   4.682   6.187 -0.1413  0.3579 -0.1587
  592EOH      C 2372   2.062   4.718   6.243  0.2420  0.1313 -0.9494
  592EOH      H 2373   1.779   4.806   6.155 -0.0771 -0.1286 -0.3487
  593EOH      O 2374   5.831   1.999   0.337  0.1128  0.0211 -0.2405
  593EOH      C 2375   5.973   2.012   0.345  0.1332 -0.2840 -0.1007
  593EOH      C 2376   6.029   2.041   0.204 -0.3165 -0.3254 -0.2882
  593EOH      H 2377   5.797   2.087   0.346  0.1708 -0.0368  0.5527
  594EOH      O 2378   0.285   3.227   1.921  0.1941  0.1933 -0.5261
  594EOH      C 2379   0.153   3.170   1.926 -0.0890  0.8950  0.1114
  594EOH      C 2380   0.044   3.270   1.967 -0.7605  0.0051  0.5189
  594EOH      H 2381   0.334   3.183   1.853 -1.4132 -2.4852 -0.0448
  595EOH      O 2382   5.180   4.000   0.800 -0.1904  0.0992 -0.0003
  595EOH      C 2383   5.037   4.004   0.808 -0.2683 -0.2020 -1.1406
  595EOH      C 2384   4.987   3.863   0.846 -0.1273  0.1324  0.3354
  595EOH      H 2385   5.205   4.086   0.767 -1.3780  0.6708  0.5624
  596EOH      O 2386   2.710   5.608   1.692 -0.1977  0.3439 -0.3077
  596EOH      C 2387   2.773   5.610   1.820 -0.4278 -0.0283 -0.1904
  596EOH      C 2388   2.925   5.595   1.798 -0.4897  0.1264 -0.7355
  596EOH      H 2389   2.729   5.530   1.643 -2.8008 -0.7746  0.4020
  597EOH      O 2390   0.933   4.882   2.080  0.5026  0.2479 -0.9145
  597EOH      C 2391   1.070   4.917   2.101  0.4636 -0.1111 -0.0611
  597EOH      C 2392   1.098   4.937   2.251 -0.4279 -0.1469  0.1113
  597EOH      H 2393   0.890   4.954   2.035  0.3233  0.3648 -0.5531
  598EOH      O 2394   2.879   4.321   0.921 -0.4403  0.2632  0.1143
  598EOH      C 2395   2.892   4.187   0.968  0.3454  0.0647 -0.6429
  598EOH      C 2396   2.893   4.101   0.840 -0.0552 -0.0589 -0.5648
  598EOH      H 2397   2.810   4.363   0.969 -0.9117 -0.9157  0.4853
  599EOH      O 2398   5.800   5.795   4.986 -0.3412 -0.0068 -0.6713
  599EOH      C 2399   5.810   5.655   5.013  0.6071  0.0935 -0.4978
  599EOH      C 2400   5.675   5.591   5.050  0.6020  0.2379 -0.2717
  599EOH      H 2401   5.858   5.831   5.050  0.0545 -2.4904  0.4110
  600EOH      O 2402   1.090   3.937   2.556 -0.0603  0.4191 -0.3753
  600EOH      C 2403   1.001   3.847   2.488  1.0500 -0.8513 -0.1688
  600EOH      C 2404   0.944   3.750   2.593 -0.0787  0.0933  0.1010
  600EOH      H 2405   1.042   4.015   2.578  1.4671  0.8052  1.7276
  601EOH      O 2406   2.897   4.805   3.185  0.2941  0.3139  0.0155
  601EOH      C 2407   2.945   4.724   3.292  0.0503 -0.4309 -0.4381
  601EOH      C 2408   3.055   4.630   3.237  0.5482 -0.1701  0.1036
  601EOH      H 2409   2.836   4.868   3.219  2.4708  1.7281  1.4701
  602EOH      O 2410   5.526   5.429   3.354 -0.0679  0.0410  0.0426
  602EOH      C 2411   5.646   5.422   3.277 -0.2256  0.6368 -0.2674
  602EOH      C 2412   5.643   5.528   3.166 -1.0718  0.5968 -0.2870
  602EOH      H 2413   5.500   5.345   3.388  0.3904 -0.0109  0.2640
  603EOH      O 2414   1.207   1.587   0.468  0.8802  0.0282 -0.1262
  603EOH      C 2415   1.130   1.504   0.381 -0.2745  0.6085  0.3182
  603EOH      C 2416   1.189   1.510   0.238 -0.1963  0.1107  0.3292
  603EOH      H 2417   1.275   1.536   0.509  1.2898  0.5831 -0.1091
  604EOH      O 2418   0.205   0.757   3.301  0.0083 -0.2300 -0.1214
  604EOH      C 2419   0.178   0.896   3.281 -0.5567 -0.2853  0.2640
  604EOH      C 2420   0.059   0.958   3.356 -0.4408  0.0324  0.1847
  604EOH      H 2421   0.280   0.756   3.359 -2.3330  0.8697  2.9973
  605EOH      O 2422   4.789   1.797   1.554 -0.2456  0.5820  0.0858
  605EOH      C 2423   4.805   1.853   1.424  0.2488  0.1435 -0.0447
  605EOH      C 2424   4.940   1.925   1.400  0.1331  0.3165 -0.1838
  605EOH      H 2425   4.784   1.872   1.612 -1.1719  3.6752 -3.7809
  606EOH      O 2426   6.224   4.274   6.068 -0.0418  0.1244  0.0675
  606EOH      C 2427   6.162   4.380   5.994  0.3106  0.1699 -0.1628
  606EOH      C 2428   6.161   4.336   5.846 -1.0293  0.4187 -0.2296
  606EOH      H 2429   6.159   4.217   6.107  1.0148  0.1947  1.9867
  607EOH      O 2430   0.274   3.251   3.600 -0.0298  0.0345 -0.2945
  607EOH      C 2431   0.412   3.240   3.564  0.1541  0.1542  0.3727
  607EOH      C 2432   0.470   3.101   3.596  0.0722 -0.1245 -0.6641
  607EOH      H 2433   0.254   3.329   3.649 -0.0668 -0.6163  0.7239
  608EOH      O 2434   3.130   0.152   4.915  0.1526 -0.3912 -0.0781
  608EOH      C 2435   3.204   0.041   4.967 -0.1601 -0.4089  0.3300
  608EOH      C 2436   3.277  -0.026   4.849  0.2079  0.6575 -0.0495
  608EOH      H 2437   3.039   0.133   4.931 -0.0408 -0.4199 -1.1761
  609EOH      O 2438   3.894   3.987   6.301 -0.7606 -0.6685  0.0470
  609EOH      C 2439   4.015   3.915   6.276 -0.2733  0.0367  0.3642
  609EOH      C 2440   4.003   3.795   6.371 -0.2919  0.2217  0.5965
  609EOH      H 2441   3.877   4.036   6.222  0.8199  0.7982  0.5827
  610EOH      O 2442   3.068   1.855   0.340 -0.3207 -0.2833  0.3203
  610EOH      C 2443   3.188   1.805   0.279 -0.1392  0.2857  0.2096
  610EOH      C 2444   3.241   1.910   0.180  0.6908 -0.2237  0.1170
  610EOH      H 2445   2.992   1.800   0.326  0.1732 -1.0460  0.5821
  611EOH      O 2446   5.947   3.405   3.967  0.1893  0.2225  0.0567
  611EOH      C 2447   5.946   3.525   4.043  0.0823  0.2564  0.0007
  611EOH      C 2448   6.081   3.592   4.013  0.1259 -0.0716 -0.5271
  611EOH      H 2449   5.861   3.378   3.941 -0.5002  1.3178  1.1957
  612EOH      O 2450   0.368   0.217   2.374 -0.4119  0.1735  0.0554
  612EOH      C 2451   0.476   0.280   2.304 -0.0254 -0.6471 -0.0955
  612EOH      C 2452   0.609   0.214   2.345  0.0003 -0.4647  0.1204
  612EOH      H 2453   0.364   0.129   2.340  2.7571 -0.2153  0.5545
  613EOH      O 2454   4.545   3.909   0.226  0.5722 -0.2263 -0.0525
  613EOH      C 2455   4.491   3.789   0.281  0.0520  0.1243  0.2096
  613EOH      C 2456   4.350   3.772   0.222 -0.0380  0.1480  0.4223
  613EOH      H 2457   4.482   3.978   0.239  0.0797 -0.4432 -1.1580
  614EOH      O 2458   2.971   4.125   5.194 -0.2696  0.2131  0.2223
  614EOH      C 2459   3.003   4.234   5.280 -0.3488  0.4020  0.0136
  614EOH      C 2460   3.136   4.302   5.246  0.3346 -0.4596  0.9377
  614EOH      H 2461   2.877   4.125   5.205 -0.0706 -0.3709  1.9381
  615EOH      O 2462   2.936   4.302   1.385 -0.0026  0.1209 -0.4107
  615EOH      C 2463   2.916   4.220   1.500  0.0066  0.4001 -0.2115
  615EOH      C 2464   3.045   4.139   1.518 -0.1131  0.1867 -0.3016
  615EOH      H 2465   3.027   4.303   1.359  0.0489 -1.3717 -0.3610
  616EOH      O 2466   5.162   1.278   0.430  0.4168  0.7374 -0.2144
  616EOH      C 2467   5.216   1.404   0.470  0.2783  0.5183  0.6718
  616EOH      C 2468   5.355   1.380   0.533  0.3109 -0.2397  0.3140
  616EOH      H 2469   5.072   1.285   0.459  0.7494  2.0988  0.5337
  617EOH      O 2470   0.596   2.831   3.122  0.0526  0.0670 -0.0322
  617EOH      C 2471   0.684   2.925   3.060 -0.1776  0.0457 -0.3949
  617EOH      C 2472   0.751   2.874   2.932 -0.2151 -0.0297 -0.3841
  617EOH      H 2473   0.524   2.823   3.062  1.1936 -0.0863 -1.4036
  618EOH      O 2474   0.292   3.945   0.932 -0.2005 -0.4377 -0.1976
  618EOH      C 2475   0.364   3.872   1.032 -0.0912  0.2031  0.1926
  618EOH      C 2476   0.476   3.784   0.973 -0.3250 -0.2416  0.4098
  618EOH      H 2477   0.357   4.008   0.903  1.6267 -2.2848 -0.2263
  619EOH      O 2478   4.822   3.340   3.287  0.0602  0.5013 -0.1830
  619EOH      C 2479   4.715   3.312   3.379 -0.1834  0.3856 -0.5001
  619EOH      C 2480   4.721   3.402   3.504 -0.6398 -0.3375  0.0402
  619EOH      H 2481   4.810   3.291   3.207 -0.2477  0.6573 -0.2368
  620EOH      O 2482   1.327   5.503   5.904  0.0976  0.4241 -0.4484
  620EOH      C 2483   1.464   5.541   5.892  0.1405  0.4884  0.2501
  620EOH      C 2484   1.507   5.631   6.010 -0.3855  0.4635  0.4577
  620EOH      H 2485   1.334   5.412   5.881  0.3349  0.4130 -0.3276
  621EOH      O 2486   6.234   2.594   6.000  0.3550  0.3376 -0.2345
  621EOH      C 2487   6.108   2.605   5.933  0.3178 -0.1197 -0.2397
  621EOH      C 2488   6.091   2.483   5.840 -0.6489 -0.2796  0.1461
  621EOH      H 2489   6.248   2.679   6.038  0.4671 -0.0372  0.5718
  622EOH      O 2490   2.028   0.236   1.274 -0.1997 -0.6658 -0.0978
  622EOH      C 2491   2.146   0.258   1.197 -0.0891  0.0352  0.2716
  622EOH      C 2492   2.259   0.235   1.299  0.5334  0.8491 -0.2317
  622EOH      H 2493   1.954   0.267   1.225 -1.0087  0.1701  1.5791
  623EOH      O 2494   0.250   5.868   0.843 -0.0813 -0.1206  0.4101
  623EOH      C 2495   0.221   5.889   0.982  0.0451 -0.4823  0.4906
  623EOH      C 2496   0.350   5.866   1.064  0.0261 -0.1864  0.6056
  623EOH      H 2497   0.277   5.778   0.836 -0.8933 -0.3655  0.3150
  624EOH      O 2498   3.180   5.005   4.186 -0.1337  0.6482  0.1866
  624EOH      C 2499   3.156   4.932   4.307 -0.3203 -0.5068 -0.5441
  624EOH      C 2500   3.290   4.879   4.362  0.0009  0.3908 -0.4464
  624EOH      H 2501   3.095   5.034   4.156  0.5670  2.8733  0.2311
  625EOH      O 2502   2.961   2.521   0.258 -0.2522  0.1640 -0.5583
  625EOH      C 2503   2.972   2.539   0.400 -0.2215 -0.1951 -0.5145
  625EOH      C 2504   2.897   2.425   0.470 -0.2384 -0.2172 -0.5688
  625EOH      H 2505   2.992   2.434   0.239 -1.6601 -0.6160  0.6348
  626EOH      O 2506   4.166   3.788   1.821  0.3810  0.0560  0.6964
  626EOH      C 2507   4.182   3.929   1.804  0.2412 -0.0431 -0.3067
  626EOH      C 2508   4.103   3.972   1.679 -0.0451 -0.0055 -0.1166
  626EOH      H 2509   4.196   3.746   1.742 -1.4532  2.6567 -1.4588
  627EOH      O 2510   4.685   3.949   1.277  0.1429  0.2852  0.0838
  627EOH      C 2511   4.617   3.922   1.155 -0.0530  0.1039  0.2334
  627EOH      C 2512   4.530   3.796   1.172  0.3060 -0.2234 -0.3167
  627EOH      H 2513   4.702   4.042   1.275 -0.4599  0.4320  1.5204
  628EOH      O 2514   2.344   2.277   0.547  0.4026 -0.0213  0.1569
  628EOH      C 2515   2.480   2.259   0.506  0.3230 -0.4376  0.0705
  628EOH      C 2516   2.568   2.272   0.632 -0.0301  0.3723  0.2382
  628EOH      H 2517   2.279   2.257   0.482  2.2061 -0.9320 -1.4286
  629EOH      O 2518   4.707   0.059   0.392 -0.1603  0.1997 -0.2494
  629EOH      C 2519   4.618  -0.027   0.320 -0.0369  0.1274 -0.3156
  629EOH      C 2520   4.477   0.036   0.334 -0.1862 -0.2160 -0.2751
  629EOH      H 2521   4.793   0.030   0.367 -0.2493 -0.6029  0.3880
  630EOH      O 2522   3.657   2.813   1.858 -0.1540  0.3170  0.5027
  630EOH      C 2523   3.693   2.951   1.848 -0.4134  0.3303 -0.2882
  630EOH      C 2524   3.659   2.988   1.702 -0.0561  0.5424 -0.3157
  630EOH      H 2525   3.579   2.804   1.910 -0.9787  0.0946 -0.7334
  631EOH      O 2526   0.813   2.275   4.600 -0.4829  0.4400  0.0569
  631EOH      C 2527   0.874   2.321   4.479  0.0493 -0.1264  0.1103
  631EOH      C 2528   0.777   2.409   4.397 -0.3198 -0.4463  0.2029
  631EOH      H 2529   0.866   2.215   4.649 -0.1509 -0.5464 -1.4566
  632EOH      O 2530   1.142   0.919   4.261 -0.6484 -0.1733 -0.0776
  632EOH      C 2531   1.007   0.963   4.276 -0.3790  0.5781  0.1424
  632EOH      C 2532   0.942   0.978   4.138 -0.0711  0.2368 -0.0420
  632EOH      H 2533   1.193   0.995   4.239 -0.0463 -0.8407 -1.0742
  633EOH      O 2534   5.610   6.129   3.174  0.1501  0.1995  0.4761
  633EOH      C 2535   5.618   5.988   3.150  0.7477  0.2654  0.2849
  633EOH      C 2536   5.618   5.957   2.999 -0.1259 -0.1779  0.3732
  633EOH      H 2537   5.617   6.143   3.267 -1.2662 -2.2286  0.9970
  634EOH      O 2538   3.153   5.839   3.747  0.0987 -0.3187 -0.2239
  634EOH      C 2539   3.252   5.781   3.833  0.4345 -0.2201 -0.5454
  634EOH      C 2540   3.312   5.883   3.932 -0.6062 -0.3003  0.1770
  634EOH      H 2541   3.174   5.822   3.657  0.4304  3.4334 -0.9209
  635EOH      O 2542   3.393   3.040   5.704  0.3838  0.2205 -0.2468
  635EOH      C 2543   3.381   2.945   5.811 -0.4328  0.7658  0.1499
  635EOH      C 2544   3.245   2.973   5.879 -0.3689  0.1252  0.5377
  635EOH      H 2545   3.441   3.114   5.738 -0.0091 -0.9996  3.2025
  636EOH      O 2546   0.617   3.487   3.473 -0.4384 -0.0585 -0.6937
  636EOH      C 2547   0.657   3.457   3.339 -0.4656 -0.2691 -0.6548
  636EOH      C 2548   0.672   3.304   3.322  0.5290 -0.2277 -0.1805
  636EOH      H 2549   0.653   3.427   3.537 -2.0547  0.5968  0.8807
  637EOH      O 2550   1.580   4.208   1.908 -0.1614 -0.0918 -0.4099
  637EOH      C 2551   1.603   4.212   1.767 -0.3559 -0.3843 -0.4501
  637EOH      C 2552   1.755   4.198   1.754 -0.3119 -0.4100  0.0672
  637EOH      H 2553   1.566   4.120   1.941 -0.0202  0.3341  0.8355
  638EOH      O 2554   1.386   1.115   6.122  0.1379  0.2121  0.0715
  638EOH      C 2555   1.405   1.021   6.229 -0.1396  0.0766  0.0010
  638EOH      C 2556   1.405   1.103   6.359 -0.1490 -0.3911  0.2972
  638EOH      H 2557   1.370   1.070   6.041 -0.3407 -1.2143  0.9427
  639EOH      O 2558   5.153   3.936   2.062 -0.5365 -0.1316 -0.1517
  639EOH      C 2559   5.197   4.070   2.087 -0.2711 -0.2409 -0.0314
  639EOH      C 2560   5.129   4.124   2.214 -0.0405 -0.2026  0.0774
  639EOH      H 2561   5.105   3.931   1.981 -0.8278  1.7409 -0.1048
  640EOH      O 2562   6.246   3.343   4.435 -0.3052  0.1195  0.1670
  640EOH      C 2563   6.164   3.238   4.385  0.2477 -0.0071 -0.4868
  640EOH      C 2564   6.015   3.277   4.388  0.3958  0.5213  0.1763
  640EOH      H 2565   6.268   3.329   4.525 -0.8922  0.6483  0.3967
  641EOH      O 2566   5.549   0.195   3.522 -0.3136 -0.1950 -0.5583
  641EOH      C 2567   5.412   0.153   3.513 -0.4948  0.2594  0.0761
  641EOH      C 2568   5.381   0.149   3.362 -0.3341 -0.9246  0.0756
  641EOH      H 2569   5.575   0.174   3.610  2.3637 -1.3651 -1.5908
  642EOH      O 2570   3.069   4.420   0.792 -0.0609 -0.4101 -0.0483
  642EOH      C 2571   3.042   4.512   0.686 -0.2933  0.1441  0.4874
  642EOH      C 2572   3.176   4.555   0.623 -0.2040 -0.1051  0.5047
  642EOH      H 2573   2.995   4.378   0.833  1.5251 -2.1325  1.1508
  643EOH      O 2574   3.606   0.872   3.050  0.1831 -0.0637  0.0212
  643EOH      C 2575   3.659   0.745   3.087 -0.4216 -0.1846  0.4816
  643EOH      C 2576   3.539   0.648   3.087 -0.4675 -0.1288  0.1450
  643EOH      H 2577   3.669   0.906   2.987 -0.4921 -1.5042 -1.4414
  644EOH      O 2578   6.279   0.265   6.168 -0.0056  0.1756  0.0646
  644EOH      C 2579   6.317   0.249   6.305  0.2989 -0.3807 -0.0813
  644EOH      C 2580   6.337   0.391   6.362 -0.2987 -0.1189 -0.5187
  644EOH      H 2581   6.296   0.184   6.122 -1.7282 -0.4331  0.4561
  645EOH      O 2582   2.650   5.022   1.716  0.0660  0.2335 -0.6221
  645EOH      C 2583   2.516   5.067   1.734  0.0017 -0.0509 -0.3722
  645EOH      C 2584   2.511   5.218   1.703  0.2998  0.0222 -0.0580
  645EOH      H 2585   2.692   5.035   1.800 -1.1190 -2.0570  0.3852
  646EOH      O 2586   2.397   0.694   2.912 -0.0580  0.3821  0.3626
  646EOH      C 2587   2.261   0.656   2.891 -0.0316  0.2750  0.3884
  646EOH      C 2588   2.177   0.772   2.947 -0.0755  0.5070 -0.1614
  646EOH      H 2589   2.408   0.728   2.999 -1.0210 -0.3423  0.7768
  647EOH      O 2590   4.600   0.515   5.197  0.0932 -0.1003 -0.4612
  647EOH      C 2591   4.514   0.530   5.084  0.2045 -0.4064 -0.5882
  647EOH      C 2592   4.363   0.541   5.113  0.2147  0.2511 -0.7500
  647EOH      H 2593   4.592   0.593   5.249  0.2788 -1.8005  2.2683
  648EOH      O 2594   2.708   3.252   5.002  0.5811 -0.2411 -0.0689
  648EOH      C 2595   2.594   3.280   5.084  0.4495 -0.7291 -0.0844
  648EOH      C 2596   2.622   3.270   5.235  0.4931 -0.1754 -0.0563
  648EOH      H 2597   2.682   3.230   4.914  2.1136  2.5603 -1.2981
  649EOH      O 2598   1.198   1.348   5.227 -0.1301 -0.2220 -0.0083
  649EOH      C 2599   1.263   1.221   5.218  0.1135 -0.1115  0.1776
  649EOH      C 2600   1.396   1.240   5.293  0.2995 -0.1342 -0.1455
  649EOH      H 2601   1.104   1.343   5.233 -0.1728  1.4844  1.2232
  650EOH      O 2602   1.310   4.951   5.181  0.1058 -0.0635 -0.2115
  650EOH      C 2603   1.175   4.947   5.133  0.0987 -0.3813 -0.1665
  650EOH      C 2604   1.139   5.085   5.073 -0.7213 -0.2851  0.5452
  650EOH      H 2605   1.329   4.862   5.204 -0.7205 -0.2411 -0.2130
  651EOH      O 2606   4.451   0.031   1.799 -0.3376 -0.3430  0.1787
  651EOH      C 2607   4.526   0.063   1.681  0.0972  0.2079  0.6019
  651EOH      C 2608   4.674   0.049   1.718  0.2930 -0.0530 -0.2715
  651EOH      H 2609   4.364   0.020   1.762 -1.3246  0.6676  2.0961
  652EOH      O 2610   0.543   4.411   0.355 -0.0311  0.5757 -0.1134
  652EOH      C 2611   0.578   4.303   0.267 -0.1679  0.5116 -0.0891
  652EOH      C 2612   0.706   4.338   0.190 -0.2289 -0.4365 -0.6256
  652EOH      H 2613   0.452   4.428   0.373 -0.7420  0.1408 -3.0665
  653EOH      O 2614   2.362   5.592   6.312 -0.2057 -0.2215 -0.2040
  653EOH      C 2615   2.371   5.607   6.170  0.0196 -0.3389 -0.2019
  653EOH      C 2616   2.257   5.684   6.101 -0.3225 -0.5221  0.1607
  653EOH      H 2617   2.437   5.631   6.354 -0.0484 -1.5001  0.7402
  654EOH      O 2618   0.801   2.416   0.869 -0.5015  0.5415  0.0246
  654EOH      C 2619   0.800   2.422   0.726 -0.0427 -0.1756 -0.0131
  654EOH      C 2620   0.942   2.390   0.676  0.0504 -0.2850  0.3204
  654EOH      H 2621   0.865   2.474   0.908  0.4512 -0.3620 -0.1734
  655EOH      O 2622   0.955   0.804   0.484  0.4035  0.1899  0.2393
  655EOH      C 2623   0.829   0.749   0.522  0.3051  0.3718  0.1749
  655EOH      C 2624   0.721   0.858   0.537  0.0121  0.1138 -0.0451
  655EOH      H 2625   1.020   0.735   0.474 -0.6974 -0.5586 -2.2019
  656EOH      O 2626   3.032   3.972   4.986  0.2986  0.4249 -0.0297
  656EOH      C 2627   3.100   4.035   4.877 -0.4918  0.6813 -0.3799
  656EOH      C 2628   3.061   3.940   4.762 -0.3242  0.5021 -0.2903
  656EOH      H 2629   3.035   4.021   5.067  0.2846 -0.9727  0.8224
  657EOH      O 2630   6.047   5.180   5.434 -0.5273 -0.1791  0.3961
  657EOH      C 2631   6.098   5.092   5.333  0.3392  0.0549  0.6295
  657EOH      C 2632   6.134   5.188   5.218  0.0569  0.2050  0.6670
  657EOH      H 2633   6.115   5.240   5.460 -0.5769  0.9578 -1.9264
  658EOH      O 2634   1.557   5.751   0.417  0.1008  0.4218 -0.1077
  658EOH      C 2635   1.463   5.772   0.312  0.3469  0.1246 -0.3890
  658EOH      C 2636   1.345   5.860   0.357 -0.1007 -0.3843 -0.5652
  658EOH      H 2637   1.632   5.703   0.384 -0.3281  1.1507 -2.2022
  659EOH      O 2638   3.550   2.037   2.507  0.0413  0.3399  0.2724
  659EOH      C 2639   3.643   1.969   2.423 -0.8309 -0.4427 -0.0781
  659EOH      C 2640   3.674   1.819   2.436  0.0445 -0.2575  0.0528
  659EOH      H 2641   3.465   2.009   2.475  1.5270 -2.4786 -1.3875
  660EOH      O 2642   2.731   2.621   2.145 -0.5957  0.0318  0.0249
  660EOH      C 2643   2.797   2.659   2.266 -0.4738  0.4692 -0.1791
  660EOH      C 2644   2.714   2.768   2.337 -0.3759 -0.1471  0.8818
  660EOH      H 2645   2.773   2.546   2.105 -0.3660 -0.5546  1.3478
  661EOH      O 2646   1.906   4.722   1.139  0.5102  0.2429 -0.3894
  661EOH      C 2647   1.938   4.747   1.276  0.2119 -0.5872 -0.1645
  661EOH      C 2648   1.922   4.898   1.304 -0.7123 -0.8065  0.5182
  661EOH      H 2649   1.817   4.690   1.133  0.1303  1.0105  1.0659
  662EOH      O 2650   2.548   1.449   4.023  0.3286  0.3561 -0.6228
  662EOH      C 2651   2.435   1.517   4.077  0.4184  0.0021  0.0138
  662EOH      C 2652   2.373   1.418   4.177 -0.2531  0.2121 -0.1936
  662EOH      H 2653   2.526   1.357   4.019  1.3785  0.0297  0.8346
  663EOH      O 2654   4.853   3.064   2.819 -0.1208  0.1236 -0.0212
  663EOH      C 2655   4.984   3.010   2.839  0.1941  0.6197 -0.7248
  663EOH      C 2656   5.067   3.083   2.946  0.1445 -0.1216 -0.1810
  663EOH      H 2657   4.821   3.047   2.732 -4.2618  0.6889  1.2879
  664EOH      O 2658   0.208   4.793   1.264 -0.1852 -0.0381  0.1251
  664EOH      C 2659   0.156   4.912   1.205  0.1321 -0.0449 -0.1720
  664EOH      C 2660   0.003   4.903   1.187  0.0113  0.2930  0.6621
  664EOH      H 2661   0.303   4.791   1.256 -0.1776  0.6402  0.0273
  665EOH      O 2662   0.638   1.263   4.443  0.1876 -0.2205 -0.3838
  665EOH      C 2663   0.653   1.350   4.330  0.4315  0.1580 -0.0610
  665EOH      C 2664   0.614   1.263   4.209 -0.4451  0.0055  0.3297
  665EOH      H 2665   0.716   1.279   4.494  1.5300  0.8533 -2.6801
  666EOH      O 2666   4.180   2.450   6.041  0.1630 -0.4676 -0.1608
  666EOH      C 2667   4.119   2.411   6.165 -0.6882  0.0831 -0.4006
  666EOH      C 2668   4.104   2.515   6.278  0.2997 -0.0789 -0.1141
  666EOH      H 2669   4.158   2.377   5.985  0.6151 -0.5659 -0.2098
  667EOH      O 2670   4.327   0.287   3.434 -0.8086  0.1074 -0.6528
  667EOH      C 2671   4.447   0.237   3.373 -0.2962 -0.2533  0.6386
  667EOH      C 2672   4.420   0.183   3.232 -0.3614  0.3780  0.4080
  667EOH      H 2673   4.348   0.307   3.524 -0.4170 -0.3526 -0.6365
  668EOH      O 2674   2.147   2.814   4.694  0.1742  0.4772  0.1314
  668EOH      C 2675   2.249   2.765   4.607 -0.4692 -0.1792 -0.2650
  668EOH      C 2676   2.262   2.614   4.633 -0.0917 -0.0577  0.2652
  668EOH      H 2677   2.120   2.903   4.680 -0.7705  0.4836  1.8447
  669EOH      O 2678   3.601   2.241   2.634 -0.0181  0.0281 -0.3868
  669EOH      C 2679   3.469   2.294   2.649 -0.0396 -0.0865 -0.1582
  669EOH      C 2680   3.464   2.426   2.729  0.0004 -0.1775 -0.0062
  669EOH      H 2681   3.597   2.164   2.580 -2.3053  0.8265 -1.4081
  670EOH      O 2682   0.853   0.363   1.827 -0.4455 -0.4141  0.0077
  670EOH      C 2683   0.861   0.360   1.684  0.1142  0.0911  0.0282
  670EOH      C 2684   0.850   0.213   1.641 -0.1218  0.1486 -0.1037
  670EOH      H 2685   0.899   0.298   1.878  2.2481  0.9317 -0.6048
  671EOH      O 2686   5.005   1.406   2.961 -0.1681  0.3378  0.4627
  671EOH      C 2687   4.974   1.295   3.046 -0.7398  0.4521  0.4004
  671EOH      C 2688   4.954   1.165   2.966 -0.2789  0.4019  0.3688
  671EOH      H 2689   5.094   1.391   2.933 -0.1896  0.3874  0.3685
  672EOH      O 2690   5.230   1.933   5.652  0.3568 -0.1872 -0.1953
  672EOH      C 2691   5.178   1.992   5.772 -0.2633 -0.2021 -0.4533
  672EOH      C 2692   5.121   2.132   5.745 -0.3678 -0.0904  0.3452
  672EOH      H 2693   5.220   1.840   5.660  0.3675 -0.0012  2.4868
  673EOH      O 2694   5.336   2.024   4.751  0.2120 -0.1190 -0.2232
  673EOH      C 2695   5.414   2.141   4.726 -0.1653  0.2020  0.0937
  673EOH      C 2696   5.562   2.136   4.769 -0.0250  0.1692 -0.3818
  673EOH      H 2697   5.243   2.033   4.734  0.2342  0.1404 -0.2019
  674EOH      O 2698   3.584   2.527   3.690  0.3824  0.3314  0.3183
  674EOH      C 2699   3.622   2.558   3.824  0.5111  0.0654  0.3434
  674EOH      C 2700   3.517   2.668   3.846  0.1880 -0.1619 -0.0445
  674EOH      H 2701   3.649   2.548   3.624 -0.4139 -2.8709 -1.5735
  675EOH      O 2702   5.025   5.872   0.302 -0.4030  0.3302  0.4531
  675EOH      C 2703   5.048   5.862   0.443  0.0078  0.4511  0.3973
  675EOH      C 2704   5.195   5.894   0.477  0.2249 -0.2238  0.1021
  675EOH      H 2705   4.964   5.807   0.272 -0.0499 -0.2535  0.9740
  676EOH      O 2706   4.878   3.395   0.642  0.2841 -0.2732  0.5508
  676EOH      C 2707   5.009   3.403   0.699  0.5806 -0.2512 -0.1272
  676EOH      C 2708   5.069   3.264   0.670  0.3833 -0.3525 -0.0527
  676EOH      H 2709   4.829   3.335   0.697  0.2008 -0.8229 -0.1132
  677EOH      O 2710   2.789   4.165   3.204  0.2505  0.2330  0.3419
  677EOH      C 2711   2.912   4.234   3.181  0.6329 -0.3727  0.5830
  677EOH      C 2712   2.969   4.188   3.046 -0.7342  0.0216 -0.1338
  677EOH      H 2713   2.801   4.074   3.225 -1.9441  0.2374  1.7928
  678EOH      O 2714   0.014   5.556   1.098  0.0542 -0.7207  0.8352
  678EOH      C 2715  -0.100   5.638   1.074  0.5393 -0.3499 -0.2361
  678EOH      C 2716  -0.139   5.628   0.925  0.4155 -0.0196 -0.2274
  678EOH      H 2717  -0.017   5.472   1.129 -1.6662  0.0448  1.2443
  679EOH      O 2718   3.165   0.842   5.762 -0.1295  0.2459 -0.0336
  679EOH      C 2719   3.215   0.773   5.648  0.1181  0.1329  0.1407
  679EOH      C 2720   3.132   0.808   5.523 -0.1133 -0.0201  0.2524
  679EOH      H 2721   3.205   0.802   5.838  0.8554  0.5895 -0.3645
  680EOH      O 2722   1.886   3.997   5.867 -0.4642 -0.1346 -0.1118
  680EOH      C 2723   1.975   3.936   5.773  0.1981  0.2906  0.2345
  680EOH      C 2724   1.936   3.995   5.636 -0.6336 -0.2580  0.2301
  680EOH      H 2725   1.889   4.091   5.862  0.3501 -0.1539 -0.1278
  681EOH      O 2726   5.453   0.212   5.968  0.4969 -0.4811 -0.1013
  681EOH      C 2727   5.565   0.294   5.932 -0.0050  0.3347  0.1700
  681EOH      C 2728   5.672   0.195   5.883 -0.0312  0.2512  0.2818
  681EOH      H 2729   5.443   0.214   6.062  0.8317  2.7973 -0.0487
  682EOH      O 2730   5.774   1.838   1.230  0.1779  0.3376 -0.4841
  682EOH      C 2731   5.854   1.722   1.204 -0.0775 -0.0901  0.6058
  682EOH      C 2732   5.775   1.591   1.218  0.1959 -0.3664 -0.4208
  682EOH      H 2733   5.821   1.916   1.259  0.3505 -0.3239  1.0953
  683EOH      O 2734   2.378   5.814   4.708 -0.4413  0.0960  0.1926
  683EOH      C 2735   2.476   5.865   4.616 -0.4575 -0.1332  0.0464
  683EOH      C 2736   2.481   6.018   4.597  0.1917 -0.1536  0.0629
  683EOH      H 2737   2.365   5.724   4.682  2.4108  0.1106 -1.5847
  684EOH      O 2738   5.315   1.897   0.137 -0.6938 -0.1510 -0.9539
  684EOH      C 2739   5.200   1.865   0.216  0.0231  0.2259  0.2690
  684EOH      C 2740   5.091   1.796   0.131  0.2828  0.2323 -0.0694
  684EOH      H 2741   5.352   1.816   0.106  1.3175  0.5735 -0.5358
  685EOH      O 2742   2.204   2.331   5.127 -0.2769 -0.3353 -0.5279
  685EOH      C 2743   2.220   2.420   5.016  0.0118  0.2472 -0.0214
  685EOH      C 2744   2.330   2.524   5.041  0.0674  0.2532 -0.2870
  685EOH      H 2745   2.116   2.300   5.118 -0.5180 -1.0189  3.4768
  686EOH      O 2746   5.723   1.296   3.901  0.0741 -0.0630 -0.0568
  686EOH      C 2747   5.841   1.243   3.963  0.4626  0.2993 -0.4825
  686EOH      C 2748   5.862   1.283   4.110 -0.4021  0.2634 -0.3474
  686EOH      H 2749   5.756   1.377   3.864 -1.3079  0.7878  0.5337
  687EOH      O 2750   2.375   4.583   4.160 -0.1577 -0.0401  0.1834
  687EOH      C 2751   2.314   4.454   4.172 -0.3530  0.0035 -0.3387
  687EOH      C 2752   2.273   4.443   4.320 -0.1228  0.1318 -0.2650
  687EOH      H 2753   2.337   4.632   4.089 -0.6934  1.1335  1.2781
  688EOH      O 2754   1.985   4.916   1.743  0.1194  0.1041 -0.0910
  688EOH      C 2755   2.027   4.945   1.877  0.5476  0.0335 -0.2083
  688EOH      C 2756   2.181   4.946   1.873  0.5401  0.3251 -0.5213
  688EOH      H 2757   2.013   4.983   1.683  1.9624 -0.1426  0.4534
  689EOH      O 2758   3.455   1.811   1.704  0.2762  0.3682  0.4558
  689EOH      C 2759   3.539   1.790   1.591 -0.3593  0.2176  0.0109
  689EOH      C 2760   3.588   1.926   1.539 -0.2532  0.0893 -0.2269
  689EOH      H 2761   3.486   1.741   1.760 -1.4113 -1.1496 -0.4739
  690EOH      O 2762   0.677   5.784   2.004  0.3034 -0.2946  0.2315
  690EOH      C 2763   0.746   5.659   2.002 -0.0917 -0.4989 -0.7435
  690EOH      C 2764   0.790   5.613   2.142  0.2672  0.1609 -0.6386
  690EOH      H 2765   0.666   5.806   1.913  0.7752  2.1691  0.7268
  691EOH      O 2766   4.764   3.888   0.113 -0.0941 -0.4495  0.0576
  691EOH      C 2767   4.854   3.998   0.134 -0.1095 -0.3346 -0.4513
  691EOH      C 2768   4.939   4.024   0.009 -0.1998 -0.3413 -0.5137
  691EOH      H 2769   4.680   3.914   0.147 -0.1145 -0.3653 -0.0531
  692EOH      O 2770   2.563   1.752   3.529 -0.4243 -0.0757 -0.0302
  692EOH      C 2771   2.644   1.863   3.488 -0.5526 -0.0843 -0.3059
  692EOH      C 2772   2.573   1.973   3.406  0.0440  0.4646 -0.0907
  692EOH      H 2773   2.585   1.675   3.480  0.4248 -0.9078  1.6099
  693EOH      O 2774   1.740   4.451   0.865  0.3552 -0.0136 -0.3570
  693EOH      C 2775   1.816   4.383   0.765 -0.2286 -0.7811 -0.2816
  693EOH      C 2776   1.833   4.480   0.647 -0.3248 -0.3774  0.0375
  693EOH      H 2777   1.793   4.453   0.943  0.1969 -3.4230 -0.1026
  694EOH      O 2778   5.663   4.061   3.224 -0.0232 -0.2677  0.3532
  694EOH      C 2779   5.673   3.925   3.268 -0.2421 -0.3817  0.0494
  694EOH      C 2780   5.739   3.840   3.159  0.0548  0.4954 -0.4641
  694EOH      H 2781   5.626   4.122   3.287  0.8555 -0.6016  1.2029
  695EOH      O 2782   4.385   2.515   2.769  0.6293  0.1588  0.0814
  695EOH      C 2783   4.418   2.547   2.633 -0.4871  0.0663 -0.2151
  695EOH      C 2784   4.529   2.449   2.590 -0.4935  0.2639 -0.6779
  695EOH      H 2785   4.317   2.450   2.774 -0.3504  1.1409 -0.2210
  696EOH      O 2786   2.724   1.562   3.868  0.1448  0.0685 -0.6363
  696EOH      C 2787   2.743   1.704   3.879  0.7450 -0.0524 -0.1049
  696EOH      C 2788   2.819   1.747   3.752  0.4574 -0.1798 -0.3223
  696EOH      H 2789   2.660   1.535   3.932 -0.6264  0.4862 -1.2194
  697EOH      O 2790   1.876   5.656   0.864 -0.2160  0.3299 -0.1134
  697EOH      C 2791   1.936   5.743   0.768  0.4519  0.2853  0.2566
  697EOH      C 2792   2.090   5.742   0.767  0.4521  0.7817 -0.4259
  697EOH      H 2793   1.834   5.583   0.822  0.5234  0.8547 -1.7731
  698EOH      O 2794   1.405   3.155   4.095 -0.1681  0.3742  0.2827
  698EOH      C 2795   1.298   3.094   4.167  0.1539  0.0787  0.5131
  698EOH      C 2796   1.189   3.196   4.206  0.5939  0.8350 -0.2377
  698EOH      H 2797   1.373   3.168   4.007  2.0223  1.7572 -0.3524
  699EOH      O 2798   4.274   3.320   3.479 -0.2857  0.1908 -0.0743
  699EOH      C 2799   4.339   3.375   3.594 -0.6633  0.0784  0.1933
  699EOH      C 2800   4.411   3.248   3.642 -0.4731  0.0977 -0.0449
  699EOH      H 2801   4.334   3.281   3.418 -1.1340 -0.1889 -0.6758
  700EOH      O 2802   1.224   3.891   6.243 -0.2656 -0.2975 -0.0912
  700EOH      C 2803   1.330   3.797   6.264 -0.4732 -0.5907 -0.3488
  700EOH      C 2804   1.284   3.701   6.375 -0.2456 -0.1013  0.1704
  700EOH      H 2805   1.143   3.843   6.234 -2.7564  3.8043 -0.5447
  701EOH      O 2806   2.018   3.241   1.736  0.0758  0.4482  0.8160
  701EOH      C 2807   1.964   3.373   1.718  0.1219  0.3943  0.2785
  701EOH      C 2808   2.040   3.458   1.822  0.0636 -0.5950  1.1403
  701EOH      H 2809   2.014   3.197   1.653  2.0233 -1.1399  1.5274
  702EOH      O 2810   5.759   3.676   4.339 -0.2907  0.1247 -0.3894
  702EOH      C 2811   5.657   3.582   4.373  0.5182 -0.5836  0.0870
  702EOH      C 2812   5.700   3.435   4.353  0.1842 -0.6453 -0.1743
  702EOH      H 2813   5.837   3.648   4.384  0.5246  2.0879 -0.5140
  703EOH      O 2814   2.067   1.819   1.674 -0.1535  0.1884 -0.0943
  703EOH      C 2815   2.036   1.732   1.565 -0.0307  0.2846 -0.2038
  703EOH      C 2816   2.082   1.589   1.598 -0.2682  0.2568  0.0036
  703EOH      H 2817   2.160   1.832   1.667 -0.3030  1.5929  0.5422
  704EOH      O 2818   2.515   2.539   5.572  0.1487 -0.0659  0.3010
  704EOH      C 2819   2.394   2.613   5.585  0.3256  0.2433  0.1939
  704EOH      C 2820   2.282   2.546   5.668  0.2049 -0.2543 -0.3746
  704EOH      H 2821   2.582   2.584   5.523 -0.9221 -1.3257 -2.3963
  705EOH      O 2822   2.359   5.147   2.589 -0.0146  0.3448  0.2466
  705EOH      C 2823   2.365   5.045   2.690 -0.3028  0.0920  0.0100
  705EOH      C 2824   2.513   5.019   2.724 -0.2727  0.2644  0.0110
  705EOH      H 2825   2.282   5.127   2.538 -0.4943  1.3954  0.5553
  706EOH      O 2826   0.657   2.895   3.368 -0.4179  0.2977  0.2059
  706EOH      C 2827   0.790   2.863   3.411 -0.3116  0.2622 -0.1451
  706EOH      C 2828   0.770   2.819   3.557 -0.2861  0.3062 -0.1285
  706EOH      H 2829   0.652   2.867   3.278  2.2926 -1.6043  0.5888
  707EOH      O 2830   4.186   1.610   2.458  0.4945 -0.3428  0.2340
  707EOH      C 2831   4.296   1.654   2.379  0.1010  0.1078 -0.0615
  707EOH      C 2832   4.422   1.577   2.423 -0.0501 -0.0084  0.1639
  707EOH      H 2833   4.159   1.524   2.428  2.6085 -0.6860 -0.7581
  708EOH      O 2834   2.551   0.489   2.792 -0.3210  0.2699  0.0940
  708EOH      C 2835   2.687   0.531   2.782 -0.2633 -0.0162 -0.3482
  708EOH      C 2836   2.769   0.442   2.687  0.3151 -0.0576  0.1901
  708EOH      H 2837   2.498   0.563   2.819  1.2056  1.2128  0.5346
  709EOH      O 2838   4.810   5.698   0.216 -0.1150  0.3820 -0.3761
  709EOH      C 2839   4.765   5.762   0.097  0.0156  0.0328 -0.6133
  709EOH      C 2840   4.785   5.915   0.097 -0.1015  0.0486 -0.2434
  709EOH      H 2841   4.817   5.607   0.193  1.6548  0.6985 -1.2437
  710EOH      O 2842   1.980   2.068   2.409  0.6844  0.5090  0.0104
  710EOH      C 2843   2.116   2.056   2.454  0.5368 -0.8378  0.1201
  710EOH      C 2844   2.145   2.161   2.563 -0.4635 -0.1418 -0.2714
  710EOH      H 2845   1.931   2.006   2.460  0.6207 -1.8956 -2.8006
  711EOH      O 2846   0.699   0.626   3.014 -0.9817  0.5093 -0.3133
  711EOH      C 2847   0.619   0.514   3.054  0.0415 -0.1830 -0.1799
  711EOH      C 2848   0.503   0.480   2.958 -0.2040  0.4181 -0.1005
  711EOH      H 2849   0.785   0.588   3.010 -1.7782 -1.3987  0.0920
  712EOH      O 2850   2.978   5.689   2.547 -0.4611 -0.0473  0.1757
  712EOH      C 2851   2.840   5.718   2.521 -0.3004  0.2193 -0.3913
  712EOH      C 2852   2.815   5.843   2.607  0.6678  0.4024 -0.3706
  712EOH      H 2853   2.984   5.633   2.623 -1.3908 -1.8921 -1.0680
  713EOH      O 2854   2.225   3.496   2.499  0.7942 -0.5224  0.0080
  713EOH      C 2855   2.149   3.376   2.485  0.1418 -0.1568  0.3490
  713EOH      C 2856   2.184   3.303   2.354 -0.2202 -0.3868  0.3808
  713EOH      H 2857   2.307   3.499   2.453  1.3707  2.3159  1.1316
  714EOH      O 2858   5.383   0.883   4.183 -1.3157  0.0990 -0.2166
  714EOH      C 2859   5.368   1.025   4.194  0.6005  0.2957  0.0050
  714EOH      C 2860   5.500   1.087   4.147  0.4345  0.4804 -0.2199
  714EOH      H 2861   5.321   0.840   4.240  1.1734 -0.9845  1.7633
  715EOH      O 2862   3.383   5.945   3.443  0.0740  0.4442 -0.2251
  715EOH      C 2863   3.416   5.930   3.305 -0.0982  0.1930 -0.2385
  715EOH      C 2864   3.295   5.933   3.210 -0.0255 -0.0763 -0.3434
  715EOH      H 2865   3.371   6.037   3.462  0.5824  0.0392  2.3231
  716EOH      O 2866   3.924   4.454   3.926 -0.1772 -0.4996 -0.1342
  716EOH      C 2867   3.885   4.556   4.019  0.4403 -0.1908 -0.2135
  716EOH      C 2868   3.746   4.541   4.083  0.2894 -0.3381 -0.5707
  716EOH      H 2869   3.995   4.491   3.877  0.9144  0.2315  1.9360
  717EOH      O 2870   0.538   5.767   5.855  0.4663 -0.9633  0.4414
  717EOH      C 2871   0.432   5.708   5.778  0.0940  0.3678 -0.0926
  717EOH      C 2872   0.458   5.556   5.772  0.1496  0.3942 -0.4971
  717EOH      H 2873   0.527   5.729   5.941 -2.0648 -0.0480  0.5779
  718EOH      O 2874   0.360   0.021   6.060 -0.7062  0.1857  0.4643
  718EOH      C 2875   0.382   0.162   6.045  0.0735  0.0495  0.3126
  718EOH      C 2876   0.283   0.216   5.940  0.2347  0.0278  0.1514
  718EOH      H 2877   0.418  -0.027   6.117  0.2567  0.9288  0.1278
  719EOH      O 2878   2.722   1.616   0.541 -0.1642  0.5902  0.0502
  719EOH      C 2879   2.774   1.637   0.672 -0.0040 -0.4746  0.1644
  719EOH      C 2880   2.783   1.787   0.707 -0.4730 -0.3977 -0.0401
  719EOH      H 2881   2.628   1.626   0.539 -0.4112 -0.6831  3.3009
  720EOH      O 2882   3.544   3.099   4.535 -0.1691 -0.3217  0.1260
  720EOH      C 2883   3.410   3.142   4.510  0.0671  0.5139  0.2752
  720EOH      C 2884   3.357   3.008   4.456  0.3083  0.5929 -0.1652
  720EOH      H 2885   3.589   3.174   4.572 -0.3912 -0.7297  1.2151
  721EOH      O 2886   3.554   5.081   0.025  0.4787 -0.4154  1.0285
  721EOH      C 2887   3.693   5.075  -0.008  0.2137  0.4965 -0.2718
  721EOH      C 2888   3.771   5.056   0.123  0.4318 -0.4019 -0.5298
  721EOH      H 2889   3.508   5.092  -0.056  2.6214  2.6668  0.1769
  722EOH      O 2890   1.335   3.031   0.869  0.1317 -0.4044  0.1131
  722EOH      C 2891   1.416   3.028   0.988  0.0802  0.0093  0.1613
  722EOH      C 2892   1.318   2.944   1.072 -0.5706  0.3684 -0.2368
  722EOH      H 2893   1.350   2.955   0.816  0.9663  1.2616 -2.1213
  723EOH      O 2894   5.386   3.864   0.928  0.4541  0.2773  0.3589
  723EOH      C 2895   5.323   3.773   1.019 -0.2002  0.1898 -0.1785
  723EOH      C 2896   5.431   3.670   1.057  0.0970  0.4397 -0.3450
  723EOH      H 2897   5.310   3.907   0.893  0.0497 -1.0878 -0.4688
  724EOH      O 2898   5.081   4.668   1.856 -0.6005 -0.2640 -0.0604
  724EOH      C 2899   5.142   4.543   1.821 -0.0188  0.0787 -0.2673
  724EOH      C 2900   5.246   4.506   1.929 -0.4448 -0.5098 -0.0583
  724EOH      H 2901   5.029   4.701   1.784 -1.5598 -0.1827  0.6642
  725EOH      O 2902   0.336   1.340   4.369  0.0574  0.0599 -0.1018
  725EOH      C 2903   0.257   1.397   4.473  0.2449 -0.1510  0.1579
  725EOH      C 2904   0.351   1.477   4.565 -0.6458  0.4245  0.5798
  725EOH      H 2905   0.426   1.343   4.398  0.2568  0.7465 -0.7850
  726EOH      O 2906   1.052   0.448   5.357  0.0413  0.0743  0.5131
  726EOH      C 2907   1.017   0.311   5.331 -0.0572  0.2009 -0.0451
  726EOH      C 2908   0.902   0.301   5.229  0.0691 -0.1217 -0.1544
  726EOH      H 2909   1.086   0.481   5.275 -1.6058  1.6696  0.4354
  727EOH      O 2910   4.450   5.086   0.879  0.3420  0.0457 -0.0899
  727EOH      C 2911   4.411   4.985   0.786 -0.3235  0.2563 -0.0408
  727EOH      C 2912   4.279   4.923   0.835 -0.2765  0.2284  0.0500
  727EOH      H 2913   4.418   5.170   0.852 -1.7810 -0.6271  0.2766
  728EOH      O 2914   3.905   5.993   1.418 -0.3489  0.1966  0.2723
  728EOH      C 2915   3.945   6.078   1.310 -0.0026  0.3299  0.5057
  728EOH      C 2916   3.820   6.116   1.228  0.3804  0.2688 -0.1161
  728EOH      H 2917   3.902   6.056   1.489  0.6392  1.4802 -0.7839
  729EOH      O 2918   1.389   3.884   1.052 -0.2235  0.1714  0.4470
  729EOH      C 2919   1.300   3.783   1.003  0.5931 -0.0890 -0.5019
  729EOH      C 2920   1.365   3.686   0.903  0.3239 -0.0292 -0.7320
  729EOH      H 2921   1.454   3.845   1.108  1.4432  0.7308 -1.0460
  730EOH      O 2922   0.815   5.949   2.138 -0.5617  0.3780 -0.0148
  730EOH      C 2923   0.744   5.987   2.256 -0.1206 -0.2896  0.4669
  730EOH      C 2924   0.834   5.990   2.380 -0.0629  0.4779  0.4098
  730EOH      H 2925   0.760   5.895   2.083 -2.1802  3.0589 -1.1794
  731EOH      O 2926   2.706   2.525   5.741 -0.2802  0.7232  0.2093
  731EOH      C 2927   2.633   2.472   5.852 -0.2776  0.6578  0.1795
  731EOH      C 2928   2.706   2.490   5.987  0.1505 -0.6831  0.1370
  731EOH      H 2929   2.643   2.517   5.671  2.2340  0.7963 -2.1432
  732EOH      O 2930   4.102   6.225   4.764 -0.2179  0.2848  0.1522
  732EOH      C 2931   4.053   6.281   4.642  0.3933  0.7955  0.1430
  732EOH      C 2932   3.934   6.375   4.669  0.0056  0.3925 -0.1585
  732EOH      H 2933   4.119   6.290   4.830  3.7699 -0.5106  0.0201
  733EOH      O 2934   2.345   5.470   3.110 -0.3516  0.2908  0.6047
  733EOH      C 2935   2.259   5.385   3.033  0.2774  0.3450 -0.1688
  733EOH      C 2936   2.186   5.277   3.115  0.3912  0.0994 -0.3944
  733EOH      H 2937   2.401   5.415   3.163 -2.0718 -0.5649  1.5698
  734EOH      O 2938   4.304   2.457   4.356 -0.4715 -0.0841  0.0650
  734EOH      C 2939   4.216   2.443   4.244 -0.1506  0.0958 -0.2072
  734EOH      C 2940   4.187   2.292   4.244  0.3376  0.0015  0.3631
  734EOH      H 2941   4.392   2.440   4.326  0.0583 -1.0296  2.0896
  735EOH      O 2942   1.991   0.751   4.725 -0.3378 -0.0687 -0.2867
  735EOH      C 2943   2.018   0.846   4.622 -0.5678  0.2391 -0.0640
  735EOH      C 2944   1.916   0.840   4.506 -0.2390  0.0165 -0.3411
  735EOH      H 2945   2.053   0.774   4.792  0.1969  1.9528 -1.4398
  736EOH      O 2946   0.101   4.134   6.179  0.5024 -0.1421 -0.2094
  736EOH      C 2947   0.144   4.246   6.256 -0.3578  0.0277  0.0329
  736EOH      C 2948   0.059   4.269   6.382  0.0923  0.3303  0.2847
  736EOH      H 2949   0.031   4.175   6.129 -0.0887  1.8364  2.1307
  737EOH      O 2950   4.954   0.810   6.001 -0.6108 -0.3399 -0.4236
  737EOH      C 2951   4.948   0.826   6.143  0.3913  0.1006 -0.4294
  737EOH      C 2952   4.806   0.834   6.203  0.3738 -0.3157 -0.4182
  737EOH      H 2953   4.919   0.724   5.982  1.4418 -1.0927 -0.9001
  738EOH      O 2954   0.271   5.617   4.386  0.1966 -0.0668  0.1140
  738EOH      C 2955   0.137   5.604   4.337  0.1378 -0.4429  0.3718
  738EOH      C 2956   0.116   5.453   4.314  0.1115 -0.3898  0.0488
  738EOH      H 2957   0.331   5.631   4.315  0.5053 -2.9570 -0.2444
  739EOH      O 2958   0.534   5.094   2.866  0.0787 -0.1486  0.6156
  739EOH      C 2959   0.446   5.117   2.976  0.0431  0.0122  0.5547
  739EOH      C 2960   0.350   5.231   2.941  0.3901  0.0624 -0.2263
  739EOH      H 2961   0.486   5.057   2.794  0.6925  0.7006 -0.2434
  740EOH      O 2962   2.776   1.789   2.651  0.2904  0.3705 -0.5245
  740EOH      C 2963   2.699   1.905   2.618  0.3040  0.3134 -0.7611
  740EOH      C 2964   2.549   1.875   2.636  0.3665  0.1709 -0.4583
  740EOH      H 2965   2.797   1.789   2.743 -0.7297  0.6766 -0.2904
  741EOH      O 2966   4.891   1.949   0.868 -0.3895  0.7191  0.4060
  741EOH      C 2967   4.765   1.880   0.871 -0.0678  0.1030 -0.1690
  741EOH      C 2968   4.731   1.818   1.008 -0.4096  0.4859 -0.0794
  741EOH      H 2969   4.898   1.989   0.783 -1.6309  2.8368  1.2420
  742EOH      O 2970   3.015   0.437   3.369  0.2525 -0.2485 -0.3062
  742EOH      C 2971   2.934   0.426   3.487  0.4575 -0.0887 -0.1501
  742EOH      C 2972   2.916   0.567   3.545 -0.6996 -0.4512  0.3668
  742EOH      H 2973   3.093   0.487   3.389  1.2306 -1.8252 -0.1412
  743EOH      O 2974   2.044   3.547   1.462  1.0501  0.0832 -0.0053
  743EOH      C 2975   2.040   3.475   1.338  0.6533  0.0895  0.0033
  743EOH      C 2976   1.890   3.448   1.313  0.5181  0.6810  0.1683
  743EOH      H 2977   2.132   3.538   1.496  1.6555  3.0377 -0.6173
  744EOH      O 2978   1.948   2.868   4.947 -0.1649 -0.5379 -0.5170
  744EOH      C 2979   1.898   2.735   4.962  0.2579 -0.7024 -0.5492
  744EOH      C 2980   1.769   2.699   4.885 -0.1867 -0.0448 -0.1188
  744EOH      H 2981   2.041   2.848   4.945 -0.1867 -0.6842  0.0860
  745EOH      O 2982   3.571   4.120   1.202 -0.1372  0.2339  0.1614
  745EOH      C 2983   3.695   4.190   1.191  0.2115 -0.3154  0.6077
  745EOH      C 2984   3.717   4.301   1.296  0.0572  0.4660 -0.1807
  745EOH      H 2985   3.587   4.037   1.244 -2.7353 -1.0568 -1.2745
  746EOH      O 2986   1.148   5.506   6.081 -0.0483  0.3832  0.2965
  746EOH      C 2987   1.225   5.480   6.199  0.4386 -0.1143 -0.1278
  746EOH      C 2988   1.150   5.518   6.328  0.1599  0.1993 -0.3791
  746EOH      H 2989   1.209   5.522   6.011  0.4627  0.3788  0.7395
  747EOH      O 2990   5.047   2.175   0.166 -1.0242  0.0420  0.1015
  747EOH      C 2991   4.991   2.242   0.053  0.1741 -0.0691 -0.5743
  747EOH      C 2992   5.016   2.393   0.043 -0.0855 -0.0104 -0.3464
  747EOH      H 2993   5.138   2.200   0.175 -1.7661  2.7415  0.4521
  748EOH      O 2994   5.092   0.817   0.649 -0.0388  0.1233 -0.1902
  748EOH      C 2995   5.210   0.874   0.707  0.3251 -0.6393 -0.1772
  748EOH      C 2996   5.314   0.768   0.747  0.2320 -0.1263  1.4683
  748EOH      H 2997   5.099   0.819   0.555 -0.8370 -0.2888 -0.2630
  749EOH      O 2998   1.133   4.047   1.493  0.1559 -0.4282  0.0564
  749EOH      C 2999   1.146   4.009   1.355  0.6974 -0.4778  0.1211
  749EOH      C 3000   1.084   3.874   1.318  0.1761 -0.1799 -0.0983
  749EOH      H 3001   1.052   4.096   1.492  0.2534 -0.2490  0.6548
  750EOH      O 3002   2.536   0.503   5.519 -0.3502  0.0116 -0.3674
  750EOH      C 3003   2.520   0.511   5.377  0.0171 -0.3907 -0.4307
  750EOH      C 3004   2.651   0.512   5.295  0.2306  0.6223 -0.0883
  750EOH      H 3005   2.450   0.488   5.557 -0.8302  0.9854 -1.0485
  751EOH      O 3006   2.911   2.459   0.916 -0.3714 -0.1355  0.1178
  751EOH      C 3007   2.802   2.382   0.967 -0.1780 -0.2371  0.3788
  751EOH      C 3008   2.702   2.457   1.057 -0.1583  0.0279  0.1793
  751EOH      H 3009   2.957   2.391   0.868  1.0088  0.0907  1.0954
  752EOH      O 3010   2.548   3.713   2.196 -0.2217  0.2290 -0.2019
  752EOH      C 3011   2.676   3.775   2.181  0.0445 -0.2725 -0.0131
  752EOH      C 3012   2.738   3.804   2.319  0.2465 -0.2831 -0.1020
  752EOH      H 3013   2.476   3.775   2.202 -1.1230 -0.1024 -5.2528
  753EOH      O 3014   0.879   5.209   4.816  0.2299  0.3487 -0.0244
  753EOH      C 3015   0.797   5.108   4.876  1.1131 -0.4796 -0.2057
  753EOH      C 3016   0.698   5.047   4.776 -0.1641  0.5168  0.4317
  753EOH      H 3017   0.852   5.286   4.864 -0.8544  0.9663 -1.5909
  754EOH      O 3018   3.406   4.007   3.782 -0.4324  0.3407  0.2051
  754EOH      C 3019   3.484   4.125   3.758 -0.3124  0.2382  0.0873
  754EOH      C 3020   3.564   4.166   3.883 -0.4072  0.1929  0.1629
  754EOH      H 3021   3.347   3.999   3.708  0.4782  0.7473 -0.5788
  755EOH      O 3022   5.215   6.164   2.899  0.3798 -0.7221  0.2735
  755EOH      C 3023   5.330   6.223   2.960  0.3647 -0.3177 -0.0835
  755EOH      C 3024   5.376   6.350   2.887 -0.1876 -0.0688  0.0024
  755EOH      H 3025   5.154   6.236   2.891  0.3574 -0.5259  1.9557
  756EOH      O 3026   6.297   1.322   5.332 -0.0644  0.1373 -0.0595
  756EOH      C 3027   6.260   1.460   5.324 -0.0962  0.1619  0.4825
  756EOH      C 3028   6.355   1.525   5.221 -0.7341  0.4461  0.0691
  756EOH      H 3029   6.220   1.280   5.366 -0.9052  3.1273  1.9166
  757EOH      O 3030   5.663   3.809   0.644  0.1624  0.0167  0.2518
  757EOH      C 3031   5.596   3.682   0.649  0.3694 -0.1231 -0.4538
  757EOH      C 3032   5.444   3.701   0.633  0.4744  0.8222 -0.3593
  757EOH      H 3033   5.667   3.841   0.733  0.4528 -1.4527  0.7899
  758EOH      O 3034   2.841   6.047   3.995  0.2071 -0.4306 -0.3678
  758EOH      C 3035   2.897   6.178   3.976 -0.1060 -0.3025 -0.4175
  758EOH      C 3036   3.046   6.172   4.014 -0.1152  0.4006 -0.2691
  758EOH      H 3037   2.865   5.988   3.926 -0.3197 -0.4540 -0.5364
  759EOH      O 3038   1.157   3.286   2.403  0.3154  0.1901 -0.2543
  759EOH      C 3039   1.027   3.346   2.399  0.1906 -0.0695 -0.0690
  759EOH      C 3040   0.920   3.268   2.479  0.1039  0.1491  0.0264
  759EOH      H 3041   1.218   3.356   2.385  1.0482 -1.0687 -2.9185
  760EOH      O 3042   0.236   5.673   1.451 -0.3308 -0.1362 -0.1923
  760EOH      C 3043   0.148   5.786   1.445  0.0257  0.1485 -0.0532
  760EOH      C 3044   0.005   5.729   1.439  0.2309 -0.3041 -0.8333
  760EOH      H 3045   0.231   5.628   1.367 -1.5946  0.0694 -0.2401
  761EOH      O 3046   0.537   6.067   0.448 -0.1173  0.2741 -0.3569
  761EOH      C 3047   0.395   6.057   0.444 -0.1358  0.3908 -0.0518
  761EOH      C 3048   0.355   5.976   0.319  0.4538  0.0281 -0.0084
  761EOH      H 3049   0.552   6.160   0.437 -0.8734  0.8296  2.6807
  762EOH      O 3050   4.095   3.375   2.317 -0.7512 -0.4011  0.2058
  762EOH      C 3051   4.149   3.243   2.299  0.6255  0.1270  0.3683
  762EOH      C 3052   4.264   3.205   2.393  0.3860 -0.1880  0.5364
  762EOH      H 3053   4.025   3.385   2.255 -0.6027  1.2136  0.2886
  763EOH      O 3054   4.555   1.628   1.968 -0.5731  0.0679 -0.0435
  763EOH      C 3055   4.585   1.761   2.013  0.0270  0.0116 -0.2678
  763EOH      C 3056   4.735   1.792   2.007  0.0089  0.1114 -0.2234
  763EOH      H 3057   4.581   1.635   1.877 -0.3672 -1.0413 -0.0773
  764EOH      O 3058   2.736   1.613   5.210 -0.3667  0.2962  0.0816
  764EOH      C 3059   2.713   1.673   5.339 -0.3914  0.2725  0.0884
  764EOH      C 3060   2.565   1.714   5.346 -0.4236  0.1773 -0.0260
  764EOH      H 3061   2.768   1.524   5.213  3.5469  1.4433 -3.2955
  765EOH      O 3062   2.907   3.025   2.100  0.6918  0.0660  0.0853
  765EOH      C 3063   2.986   3.140   2.069  0.4695  0.1367 -0.2180
  765EOH      C 3064   2.948   3.280   2.122  0.1460 -0.2370  0.5365
  765EOH      H 3065   2.948   2.988   2.177 -0.8177  2.6290  2.2254
  766EOH      O 3066   4.005   0.041   1.667 -0.0870 -0.6422 -0.7333
  766EOH      C 3067   3.931   0.126   1.579 -0.3280 -0.1546 -0.0639
  766EOH      C 3068   3.790   0.071   1.552 -0.2745 -0.4681  0.2845
  766EOH      H 3069   4.033   0.088   1.745 -1.0958  0.9334 -1.2982
  767EOH      O 3070   1.389   3.074   1.529  0.0191  0.0640 -0.2575
  767EOH      C 3071   1.475   2.959   1.535 -0.0890 -0.0047 -0.0502
  767EOH      C 3072   1.530   2.943   1.393  0.4141 -0.1608  0.1625
  767EOH      H 3073   1.310   3.049   1.484  0.5909 -3.0319  0.3016
  768EOH      O 3074   5.100   4.864   2.041  0.3549 -1.3182 -0.4183
  768EOH      C 3075   4.974   4.849   2.108  0.0404 -0.0645 -0.7010
  768EOH      C 3076   4.868   4.924   2.026 -0.4872  0.0699  0.0960
  768EOH      H 3077   5.116   4.790   1.985  1.6950 -1.4463  0.1158
  769EOH      O 3078   2.390   5.856   4.950  0.0486 -0.1590  0.1093
  769EOH      C 3079   2.357   5.990   4.988  0.0491 -0.0589 -0.2491
  769EOH      C 3080   2.209   5.992   5.030  0.0081 -0.2727 -0.3821
  769EOH      H 3081   2.398   5.855   4.856  0.9957 -0.3488  0.1850
  770EOH      O 3082   5.723   2.552   6.161  0.0874 -0.0606  0.0555
  770EOH      C 3083   5.712   2.646   6.054 -0.1432 -0.1116  0.0350
  770EOH      C 3084   5.711   2.791   6.106 -0.3303 -0.2012  0.2802
  770EOH      H 3085   5.634   2.529   6.182  0.9952 -0.6361  3.5419
  771EOH      O 3086   1.631   5.223   4.149  0.3185 -0.0140  0.9963
  771EOH      C 3087   1.523   5.214   4.242 -0.2103 -0.3459  0.3513
  771EOH      C 3088   1.498   5.348   4.313 -0.0508 -0.1937  0.1175
  771EOH      H 3089   1.624   5.139   4.107  3.3097  0.6518 -0.9778
  772EOH      O 3090   2.123   4.601   0.398 -0.2364 -0.2808 -0.0809
  772EOH      C 3091   2.199   4.641   0.513 -0.0626 -0.0603 -0.2736
  772EOH      C 3092   2.302   4.534   0.552  0.3896  0.7099  0.6652
  772EOH      H 3093   2.063   4.672   0.382 -0.8645 -1.2001 -1.9777
  773EOH      O 3094   5.363   6.237   4.339 -0.5893  0.2615 -0.4582
  773EOH      C 3095   5.358   6.110   4.273 -0.7492  0.2285 -0.3841
  773EOH      C 3096   5.451   6.104   4.151  0.3036 -0.3909  0.4302
  773EOH      H 3097   5.279   6.240   4.382 -0.1532  0.1241  0.4035
  774EOH      O 3098   2.403   3.919   5.594  0.1262 -0.3507 -0.1993
  774EOH      C 3099   2.369   4.052   5.632  0.5385 -0.2170 -0.2955
  774EOH      C 3100   2.462   4.156   5.566  0.8158 -0.4668 -0.2940
  774EOH      H 3101   2.428   3.874   5.673  0.6767  0.2004 -0.0570
  775EOH      O 3102   2.071   5.592   5.339  0.2313  0.0098  0.1176
  775EOH      C 3103   1.992   5.629   5.226 -0.0548 -0.3295  0.2077
  775EOH      C 3104   1.989   5.783   5.222  0.0859 -0.3405 -0.5292
  775EOH      H 3105   2.087   5.499   5.335  2.0676  0.3115  0.3932
  776EOH      O 3106   1.520   0.749   5.982  0.5383  0.1647 -0.2018
  776EOH      C 3107   1.537   0.609   6.009  0.0972  0.0676 -0.4116
  776EOH      C 3108   1.414   0.518   5.993 -0.2233  0.3616  0.3590
  776EOH      H 3109   1.597   0.781   6.026  0.4231 -0.2511  0.3155
  777EOH      O 3110   3.256   2.509   4.348  0.5138  0.1736 -0.7746
  777EOH      C 3111   3.243   2.637   4.286  0.1804  0.4424 -0.1595
  777EOH      C 3112   3.340   2.666   4.169 -0.0377  0.2123 -0.3982
  777EOH      H 3113   3.211   2.514   4.431  1.6888 -0.2909 -0.0964
  778EOH      O 3114   0.154   5.750   3.351 -0.2407  0.3541 -0.2147
  778EOH      C 3115   0.252   5.698   3.442 -0.4301  0.1463 -0.1277
  778EOH      C 3116   0.275   5.546   3.432  0.2283  0.2588 -0.3020
  778EOH      H 3117   0.149   5.840   3.377  0.2816  0.5900 -0.9319
  779EOH      O 3118   1.104   0.892   0.920 -0.2670  0.1766 -0.0402
  779EOH      C 3119   1.009   0.798   0.972  0.1744  0.0353  0.5270
  779EOH      C 3120   1.080   0.689   1.054 -0.1189 -0.2955  0.3422
  779EOH      H 3121   1.058   0.969   0.892 -1.2691 -1.0793 -1.9582
  780EOH      O 3122   1.815   1.765   2.809 -0.3212  0.0332 -0.1808
  780EOH      C 3123   1.899   1.798   2.920 -0.1493 -0.2285 -0.2307
  780EOH      C 3124   2.032   1.823   2.848  0.1665 -0.0977  0.3949
  780EOH      H 3125   1.729   1.738   2.837  0.3304  1.5459  3.5666
  781EOH      O 3126   5.988   0.244   5.394  0.1799  0.8905 -0.0084
  781EOH      C 3127   5.939   0.134   5.470  0.3825  0.4120 -0.5629
  781EOH      C 3128   5.790   0.152   5.507  0.5888 -0.1035  0.5441
  781EOH      H 3129   6.073   0.266   5.428  0.2155  0.8662 -0.0800
  782EOH      O 3130   6.314   4.017   3.527 -0.0082  0.1565  0.3064
  782EOH      C 3131   6.425   4.001   3.615 -0.3517 -0.5763  0.6063
  782EOH      C 3132   6.418   4.117   3.715 -0.1809  0.5399 -0.6607
  782EOH      H 3133   6.347   4.055   3.447  0.1070  1.3255  0.8951
  783EOH      O 3134   5.400   1.821   4.251  0.1376  0.0255 -0.2174
  783EOH      C 3135   5.302   1.847   4.352  0.2539  0.1074 -0.1253
  783EOH      C 3136   5.338   1.789   4.490 -0.1979  0.1815  0.0227
  783EOH      H 3137   5.421   1.729   4.245 -1.9496 -0.5811  0.9305
  784EOH      O 3138   0.922   2.103   4.772  0.6654 -0.1158 -0.1877
  784EOH      C 3139   0.885   2.161   4.898  0.2273  0.4440 -0.5719
  784EOH      C 3140   1.001   2.226   4.975 -0.2383  0.6730 -0.0645
  784EOH      H 3141   0.889   2.015   4.775 -1.3274  0.5479 -1.5963
  785EOH      O 3142   2.598   0.307   6.187  0.0492 -0.2178 -0.2315
  785EOH      C 3143   2.705   0.398   6.158  0.1121 -0.1399  0.2371
  785EOH      C 3144   2.780   0.418   6.291  0.4230  0.0391  0.0349
  785EOH      H 3145   2.527   0.325   6.128 -1.9238  1.6603  2.5934
  786EOH      O 3146   4.832   1.542   0.590 -0.2454  0.4389  0.5206
  786EOH      C 3147   4.855   1.636   0.484 -0.0023  0.0899  0.2659
  786EOH      C 3148   4.765   1.635   0.359 -0.3164 -0.0756  0.4938
  786EOH      H 3149   4.894   1.561   0.658  0.2685  0.0350  0.1686
  787EOH      O 3150   5.851   0.415   2.510 -0.4450 -0.3324  0.3808
  787EOH      C 3151   5.838   0.345   2.386  0.0753 -0.7032  0.5320
  787EOH      C 3152   5.985   0.334   2.341 -0.0861 -0.0551 -0.1693
  787EOH      H 3153   5.896   0.495   2.489 -0.2121 -0.6765 -0.4605
  788EOH      O 3154   1.553   4.690   4.757 -0.4992  0.1369 -0.4590
  788EOH      C 3155   1.430   4.640   4.705 -0.5617 -0.0230 -0.1570
  788EOH      C 3156   1.415   4.491   4.741  0.0267  0.1040  0.6206
  788EOH      H 3157   1.592   4.734   4.683 -1.1007 -0.2788 -1.0261
  789EOH      O 3158   6.216   0.815   4.614 -0.0272 -0.0678 -0.3916
  789EOH      C 3159   6.316   0.852   4.519  0.0329  0.3035 -0.1875
  789EOH      C 3160   6.281   0.828   4.371 -0.0983  0.3148 -0.1571
  789EOH      H 3161   6.252   0.829   4.701 -0.9042  0.2318 -0.0675
  790EOH      O 3162   4.599   5.226   1.749 -0.3218  0.2375 -0.4354
  790EOH      C 3163   4.502   5.154   1.825  0.2397  0.3433  0.3773
  790EOH      C 3164   4.561   5.012   1.829 -0.6646 -0.0543 -0.4318
  790EOH      H 3165   4.617   5.181   1.667  0.0659  3.6459 -2.2903
  791EOH      O 3166   4.564   6.121   5.481  0.0600 -0.4451 -0.2655
  791EOH      C 3167   4.569   6.263   5.501  0.3240 -0.5389  0.3439
  791EOH      C 3168   4.430   6.313   5.542  0.4663 -0.0906  0.2912
  791EOH      H 3169   4.636   6.102   5.423 -0.1745  1.7384 -1.3543
  792EOH      O 3170   3.758   3.048   4.772  0.2757 -0.8614  0.5464
  792EOH      C 3171   3.654   3.080   4.865  0.3186 -0.3009  0.4045
  792EOH      C 3172   3.731   3.129   4.989  0.1153 -0.0762  0.4426
  792EOH      H 3173   3.729   2.973   4.723  0.8473 -1.0458  0.4833
  793EOH      O 3174   1.816   0.485   3.720 -0.0334 -0.4387 -0.3214
  793EOH      C 3175   1.689   0.546   3.694  0.0431 -0.5596 -0.9783
  793EOH      C 3176   1.680   0.697   3.665  0.1162 -0.3290  0.1748
  793EOH      H 3177   1.804   0.430   3.796 -0.8118  0.1974  0.0280
  794EOH      O 3178   4.636   4.562   3.232 -0.6484  0.1016 -0.1741
  794EOH      C 3179   4.754   4.539   3.155 -0.6064 -0.3423  0.0229
  794EOH      C 3180   4.725   4.516   3.005 -0.2328  0.1922 -0.1352
  794EOH      H 3181   4.643   4.502   3.305 -0.6245  0.5000  0.1576
  795EOH      O 3182   3.114   2.582   2.911 -0.1971 -0.0116  0.2955
  795EOH      C 3183   3.203   2.694   2.904 -0.5279  0.2349  0.0457
  795EOH      C 3184   3.245   2.730   3.048  0.0397  0.0484 -0.0731
  795EOH      H 3185   3.051   2.590   2.841  2.2481 -0.4863 -2.0653
  796EOH      O 3186   2.602   4.959   0.502 -0.6750  0.3154  0.2671
  796EOH      C 3187   2.542   4.987   0.629 -0.5461 -0.1269  0.4273
  796EOH      C 3188   2.430   5.090   0.608 -0.2646  0.1655  0.3629
  796EOH      H 3189   2.693   4.937   0.514 -0.6580  0.9260  1.3947
  797EOH      O 3190   0.442   5.267   3.656 -0.5707  0.3572 -0.3758
  797EOH      C 3191   0.434   5.177   3.544 -0.4509  0.2864 -0.3268
  797EOH      C 3192   0.504   5.042   3.565 -0.1290  0.5263  0.1675
  797EOH      H 3193   0.512   5.326   3.633  1.4749 -1.5561  0.8000
  798EOH      O 3194   3.542   4.818   2.710 -0.0457  0.2533 -0.6270
  798EOH      C 3195   3.531   4.783   2.848 -0.3837 -0.0026 -0.7168
  798EOH      C 3196   3.390   4.820   2.896 -0.0117 -0.2199  0.5533
  798EOH      H 3197   3.605   4.760   2.670 -0.8937 -1.3802  0.3718
  799EOH      O 3198   3.383   1.690   0.775 -0.7632  0.3407 -0.3559
  799EOH      C 3199   3.326   1.744   0.656  0.4861  0.4649 -0.9100
  799EOH      C 3200   3.198   1.664   0.625  0.3228  0.3034  0.1413
  799EOH      H 3201   3.348   1.751   0.839  1.2117  0.5998  0.5361
  800EOH      O 3202   1.510   3.660   0.333 -0.5069  0.7238  0.1572
  800EOH      C 3203   1.587   3.648   0.452  0.6950  0.2359 -0.6650
  800EOH      C 3204   1.639   3.782   0.508  0.1975  0.0066  0.3564
  800EOH      H 3205   1.423   3.687   0.359 -0.3599  0.9336  0.4315
  801EOH      O 3206   2.478   6.172   5.381  0.3214  0.4823 -0.1115
  801EOH      C 3207   2.554   6.052   5.364  0.1525  0.2720  0.6134
  801EOH      C 3208   2.529   5.958   5.484 -0.4457 -0.2382  0.0934
  801EOH      H 3209   2.493   6.200   5.469 -3.1395  2.4323 -0.0436
  802EOH      O 3210   4.476   1.485   5.885 -0.1833 -0.2938 -0.6895
  802EOH      C 3211   4.524   1.616   5.851  0.0986 -0.1316  0.3254
  802EOH      C 3212   4.412   1.721   5.840  0.0802 -0.2211 -0.3804
  802EOH      H 3213   4.435   1.447   5.809 -0.7291  1.4279 -1.2798
  803EOH      O 3214   5.010   5.967   3.333 -0.3926  0.0626 -0.0495
  803EOH      C 3215   5.138   6.024   3.360 -0.2993 -0.0860 -0.1783
  803EOH      C 3216   5.132   6.176   3.335  0.1534 -0.0427 -0.0280
  803EOH      H 3217   4.996   5.956   3.240 -2.6205 -0.0569  0.2667
  804EOH      O 3218   2.646   1.404   1.144  0.1833 -0.2521  0.1007
  804EOH      C 3219   2.775   1.453   1.105  0.0650  0.0818  0.1270
  804EOH      C 3220   2.885   1.375   1.178  0.0091  0.0441  0.1715
  804EOH      H 3221   2.628   1.324   1.096  1.4464 -1.0259  0.9142
  805EOH      O 3222   0.942   4.870   1.013  0.1521 -0.1244 -0.0617
  805EOH      C 3223   0.905   4.755   0.937 -0.2237  0.1505 -0.2946
  805EOH      C 3224   0.813   4.673   1.029  0.1766  0.2165  0.1696
  805EOH      H 3225   1.021   4.863   1.065 -1.1887  2.5563  2.4910
  806EOH      O 3226   5.306   4.512   4.205 -0.1088 -0.6948 -0.2029
  806EOH      C 3227   5.206   4.439   4.277 -0.3063 -0.1237  0.1045
  806EOH      C 3228   5.083   4.464   4.188 -0.3653  0.3851  0.3298
  806EOH      H 3229   5.280   4.601   4.224  1.1373 -0.1957 -0.8045
  807EOH      O 3230   0.942   4.250   4.137  0.1699  0.1575 -0.1989
  807EOH      C 3231   1.039   4.341   4.085  0.4689 -0.2086 -0.2847
  807EOH      C 3232   1.166   4.313   4.168  0.0039 -0.5211  0.3237
  807EOH      H 3233   0.857   4.266   4.099  0.7345 -1.1571 -2.0436
  808EOH      O 3234   5.446   4.305   2.714 -0.3900  0.4052  0.1768
  808EOH      C 3235   5.322   4.279   2.648 -0.0380 -0.1090 -0.2880
  808EOH      C 3236   5.336   4.173   2.537  0.6506  0.0446 -0.3474
  808EOH      H 3237   5.463   4.246   2.786  0.3006  0.4723  0.0746
  809EOH      O 3238   4.307   0.664   6.317 -0.0999  0.0990 -0.2796
  809EOH      C 3239   4.355   0.614   6.192  0.3790 -0.0839 -0.0220
  809EOH      C 3240   4.509   0.619   6.192  0.3792 -0.0479  0.4531
  809EOH      H 3241   4.270   0.602   6.378 -0.0240  0.3651  0.0444
  810EOH      O 3242   2.820   4.569   3.748 -0.2198  0.4557 -0.3373
  810EOH      C 3243   2.770   4.496   3.860  0.1431  0.1101 -0.3987
  810EOH      C 3244   2.644   4.566   3.916  0.5451  0.4653  0.0658
  810EOH      H 3245   2.873   4.645   3.766  2.5701 -1.3440 -0.5810
  811EOH      O 3246   0.074   2.399   2.185  0.7689  0.0138 -0.0917
  811EOH      C 3247   0.095   2.307   2.077 -0.2689 -0.1663 -0.1421
  811EOH      C 3248   0.219   2.218   2.097  0.0369  0.2507 -0.1845
  811EOH      H 3249   0.022   2.345   2.243  3.3241 -2.7468 -0.2544
  812EOH      O 3250   2.935   3.734   3.098  0.3999  0.1361  0.5591
  812EOH      C 3251   3.011   3.615   3.081  0.5949  0.2983  0.2961
  812EOH      C 3252   3.032   3.562   3.224 -0.2154 -0.1720  0.2463
  812EOH      H 3253   2.922   3.770   3.011 -1.4792  0.1607  0.8307
  813EOH      O 3254   3.728   3.604   0.700 -0.3713  0.1909 -0.3056
  813EOH      C 3255   3.657   3.724   0.729 -0.4231  0.0349  0.2171
  813EOH      C 3256   3.701   3.782   0.865 -0.1873  0.1508  0.0917
  813EOH      H 3257   3.701   3.574   0.615  1.0946  0.2958 -0.8223
  814EOH      O 3258   1.809   2.675   0.247  0.0828  0.0318  0.1557
  814EOH      C 3259   1.828   2.551   0.316 -0.1245 -0.0577  0.0541
  814EOH      C 3260   1.851   2.588   0.464  0.1800 -0.0914  0.0161
  814EOH      H 3261   1.893   2.717   0.233 -0.9100  1.9525 -0.3030
  815EOH      O 3262   5.860   2.635   5.379 -0.1049 -0.2701 -0.5289
  815EOH      C 3263   5.840   2.502   5.427  0.2095 -0.0748  0.1401
  815EOH      C 3264   5.741   2.515   5.544 -0.4649  0.7492 -0.5198
  815EOH      H 3265   5.941   2.634   5.330 -0.4090  0.1998 -1.0537
  816EOH      O 3266   0.027   1.181   3.099 -0.5096 -0.2991 -0.0634
  816EOH      C 3267   0.051   1.274   2.993  0.2168  0.0266  0.3775
  816EOH      C 3268   0.190   1.263   2.928  0.0988 -0.1927  0.1581
  816EOH      H 3269   0.048   1.225   3.180  2.9831 -1.4906 -0.2158
  817EOH      O 3270   5.350   2.016   2.025 -0.3833 -0.2741  0.5363
  817EOH      C 3271   5.485   2.064   2.036 -0.5108  0.1541  0.2481
  817EOH      C 3272   5.493   2.215   2.007 -0.6082  0.0882 -0.1181
  817EOH      H 3273   5.300   2.051   2.097 -0.1988  1.6213 -0.2428
  818EOH      O 3274   4.119   0.712   4.222  0.1440 -0.1288 -0.5607
  818EOH      C 3275   4.110   0.583   4.283 -0.1740 -0.2692 -0.9042
  818EOH      C 3276   4.233   0.498   4.247  0.0165 -0.2991 -0.1944
  818EOH      H 3277   4.138   0.698   4.130  0.0120 -1.0525 -0.4513
  819EOH      O 3278   4.939   3.230   4.309 -0.1758  0.1476  0.0847
  819EOH      C 3279   4.999   3.101   4.320  0.1037  0.2111 -0.6501
  819EOH      C 3280   5.150   3.125   4.339 -0.0222  0.5006 -0.0274
  819EOH      H 3281   4.910   3.228   4.219  0.4333 -1.8525 -0.1049
  820EOH      O 3282   3.114   1.545   4.586  0.2343  0.5387  0.2490
  820EOH      C 3283   3.086   1.499   4.719  0.4939 -0.0604  0.0990
  820EOH      C 3284   3.170   1.374   4.750 -0.3179 -0.5107  0.4804
  820EOH      H 3285   3.039   1.596   4.561 -0.3653 -0.1036  0.6993
  821EOH      O 3286   2.758   4.873   5.577 -0.2065 -0.2620  0.2247
  821EOH      C 3287   2.853   4.768   5.601  0.2202 -0.0839 -0.6777
  821EOH      C 3288   2.809   4.641   5.526  0.5101 -0.3462 -0.4060
  821EOH      H 3289   2.687   4.874   5.639 -0.6613 -0.3510 -0.2977
  822EOH      O 3290   5.014   2.047   1.069  0.5001 -0.2496  0.2646
  822EOH      C 3291   5.108   2.143   1.022  0.3133 -0.2288 -0.0692
  822EOH      C 3292   5.222   2.144   1.126  0.3814 -0.6008 -0.1396
  822EOH      H 3293   4.972   2.009   0.993 -1.5201  2.3245  0.0622
  823EOH      O 3294   0.895   2.747   5.057 -0.0628  0.1266  0.3384
  823EOH      C 3295   1.010   2.797   4.987 -0.1437 -0.2475 -0.0701
  823EOH      C 3296   0.990   2.748   4.843  0.3707  0.7716 -0.4890
  823EOH      H 3297   0.890   2.786   5.142  2.0578 -0.8833  0.9642
  824EOH      O 3298   1.670   6.079   0.399 -0.3896  0.2515  0.5817
  824EOH      C 3299   1.604   6.154   0.297  0.3863  0.1154 -0.0239
  824EOH      C 3300   1.700   6.198   0.185  0.5784  0.5491  0.3066
  824EOH      H 3301   1.610   6.035   0.457 -0.8342  2.1436  1.5776
  825EOH      O 3302   0.300   3.168   6.293 -0.0423 -0.0049  0.1332
  825EOH      C 3303   0.349   3.060   6.213  0.2036  0.4207 -0.2895
  825EOH      C 3304   0.381   3.109   6.070 -0.1481  0.0006 -0.5160
  825EOH      H 3305   0.357   3.242   6.277  0.2567  0.1153  1.7244
  826EOH      O 3306   3.421   1.510   3.950  0.7408 -0.2539  0.1565
  826EOH      C 3307   3.358   1.389   3.908  0.4281 -0.1706  0.3798
  826EOH      C 3308   3.410   1.362   3.765 -0.0907 -0.2097  0.1993
  826EOH      H 3309   3.366   1.534   4.023  0.8898 -2.6060  1.0763
  827EOH      O 3310   2.711   6.064   1.688 -0.3406  0.5669  0.1318
  827EOH      C 3311   2.722   6.032   1.827 -0.0951 -0.7834 -0.1985
  827EOH      C 3312   2.868   6.045   1.877 -0.2324 -0.4539  0.1150
  827EOH      H 3313   2.671   5.990   1.647  0.4847 -0.5040  1.2332
  828EOH      O 3314   5.469   5.211   3.460  0.7639  0.2902 -0.5747
  828EOH      C 3315   5.470   5.142   3.586  0.0110  0.6227 -0.3822
  828EOH      C 3316   5.499   5.233   3.707 -0.2609 -0.3746  0.4372
  828EOH      H 3317   5.422   5.155   3.400  0.6287 -1.0102  0.7195
  829EOH      O 3318   2.175   0.624   1.550  0.0951 -0.5094  0.5126
  829EOH      C 3319   2.128   0.515   1.471  0.1450  0.3686 -0.7535
  829EOH      C 3320   1.980   0.548   1.445 -0.1096 -0.3988 -0.3030
  829EOH      H 3321   2.155   0.707   1.509  0.8342  1.1859  3.4431
  830EOH      O 3322   1.482   3.648   4.136  0.4021 -0.0314 -0.3010
  830EOH      C 3323   1.527   3.544   4.223 -0.0502 -0.5184 -0.6436
  830EOH      C 3324   1.410   3.457   4.273 -0.1092 -0.4122 -0.5969
  830EOH      H 3325   1.563   3.689   4.111  0.0762  0.9214  0.1732
  831EOH      O 3326   2.769   2.662   0.164  0.0836  0.5627 -0.5374
  831EOH      C 3327   2.729   2.572   0.060 -0.0570 -0.2476  0.2158
  831EOH      C 3328   2.591   2.524   0.107  0.0035 -0.6440 -0.0117
  831EOH      H 3329   2.849   2.626   0.198 -0.0706 -1.9603 -2.6684
  832EOH      O 3330   5.205   0.512   3.039  0.0497 -0.2211  0.0021
  832EOH      C 3331   5.307   0.567   3.123  0.0952 -0.3224  0.0145
  832EOH      C 3332   5.382   0.671   3.037  0.0490  0.0929  0.4735
  832EOH      H 3333   5.237   0.540   2.954 -0.9399  2.6386  0.5414
  833EOH      O 3334   0.868   1.803   2.058 -0.4442  0.2433 -0.4489
  833EOH      C 3335   0.919   1.703   1.969  0.3546  0.0375  0.2334
  833EOH      C 3336   1.027   1.764   1.879  0.2095 -0.0641 -0.0096
  833EOH      H 3337   0.789   1.772   2.100  1.0643 -1.9030  0.9591
  834EOH      O 3338   1.797   0.840   0.597 -0.1262 -0.2415 -0.7268
  834EOH      C 3339   1.817   0.980   0.616 -0.1569 -0.3504  0.1002
  834EOH      C 3340   1.771   1.009   0.761 -0.2973  0.1413 -0.0430
  834EOH      H 3341   1.703   0.827   0.586 -0.2072  0.7853 -1.3028
  835EOH      O 3342   4.449   5.355   4.749 -0.3402 -0.2994  0.5680
  835EOH      C 3343   4.508   5.436   4.851 -0.1839  0.6762 -0.2879
  835EOH      C 3344   4.623   5.375   4.933 -0.3715 -0.2835 -0.7364
  835EOH      H 3345   4.378   5.408   4.715 -0.0259 -1.5771 -2.2180
  836EOH      O 3346   1.744   4.507   4.753  0.4009 -0.3257 -0.0144
  836EOH      C 3347   1.788   4.513   4.889  0.0110  0.3254  0.0856
  836EOH      C 3348   1.698   4.438   4.989  0.1569  0.3682  0.2484
  836EOH      H 3349   1.668   4.564   4.750  0.5128 -0.2361 -2.4906
  837EOH      O 3350   1.155   5.731   4.218 -0.1175 -0.4244  0.2329
  837EOH      C 3351   1.269   5.706   4.302  0.4145  0.1791 -0.3032
  837EOH      C 3352   1.224   5.629   4.428  0.3332  0.4709 -0.1556
  837EOH      H 3353   1.077   5.738   4.271  0.7713 -1.1224  1.6806
  838EOH      O 3354   4.772   3.249   3.053  0.3510  0.0768 -0.2781
  838EOH      C 3355   4.742   3.368   2.981  0.2530  0.4639  0.4043
  838EOH      C 3356   4.865   3.438   2.919  0.2347 -0.2209 -0.4064
  838EOH      H 3357   4.757   3.183   2.986 -1.1543 -0.2945  0.3995
  839EOH      O 3358   5.229   0.425   1.074 -0.0239  0.5628 -0.0013
  839EOH      C 3359   5.110   0.470   1.008 -0.0929  0.4726  0.0601
  839EOH      C 3360   4.993   0.370   1.020 -0.2125  0.6321  0.2158
  839EOH      H 3361   5.210   0.415   1.166 -1.2676 -0.5694 -0.3591
  840EOH      O 3362   0.393   4.699   5.870 -0.1886 -0.0916 -0.0974
  840EOH      C 3363   0.298   4.603   5.823  0.0353 -0.0002 -0.7449
  840EOH      C 3364   0.284   4.488   5.924 -0.6136  0.1265 -0.6825
  840EOH      H 3365   0.340   4.776   5.884 -0.8747 -0.4975 -0.4276
  841EOH      O 3366   3.858   1.576   3.851 -0.1736  0.0931  0.2460
  841EOH      C 3367   3.851   1.433   3.851  0.5240  0.0547  0.8005
  841EOH      C 3368   3.763   1.383   3.735  0.2174 -0.2933  1.1826
  841EOH      H 3369   3.769   1.596   3.876 -0.4095  0.9693 -1.1893
  842EOH      O 3370   0.645   1.702   2.136  0.1093  0.0277 -0.7072
  842EOH      C 3371   0.533   1.762   2.070  0.0103  0.2831 -0.3087
  842EOH      C 3372   0.459   1.856   2.167  0.7664  0.1085  0.4478
  842EOH      H 3373   0.607   1.651   2.206  0.6752  0.4266 -0.1039
  843EOH      O 3374   5.912   4.175   0.222  0.5639  0.4110  0.3649
  843EOH      C 3375   5.891   4.284   0.131  0.3047  0.0669  0.0098
  843EOH      C 3376   5.806   4.392   0.200 -0.2203 -0.1676 -0.2718
  843EOH      H 3377   5.839   4.117   0.205 -0.9654  2.2750  0.3514
  844EOH      O 3378   3.807   3.150   4.053  0.4327  0.2427  0.0658
  844EOH      C 3379   3.734   3.076   4.151  0.0853 -0.3425 -0.6277
  844EOH      C 3380   3.627   2.986   4.085 -0.5469  0.2408 -0.4082
  844EOH      H 3381   3.747   3.196   3.996 -0.9242 -0.9653  0.4704
  845EOH      O 3382   4.057   3.365   3.379 -0.0243 -0.0579  0.0373
  845EOH      C 3383   3.953   3.353   3.476 -0.1485  0.2239 -0.0609
  845EOH      C 3384   3.832   3.339   3.382  0.1271  0.4250 -0.4469
  845EOH      H 3385   4.141   3.351   3.421 -0.5504  0.1729  1.1685
  846EOH      O 3386   4.398   5.751   0.963 -0.2628 -0.3337  0.5201
  846EOH      C 3387   4.257   5.770   0.968 -0.3260 -0.6426 -0.1044
  846EOH      C 3388   4.223   5.895   1.051  0.6453 -0.2406 -0.3025
  846EOH      H 3389   4.417   5.658   0.962 -0.3820 -0.3467 -0.4627
  847EOH      O 3390   3.506   1.029   3.208  0.2326 -0.1164 -0.4010
  847EOH      C 3391   3.546   1.058   3.342  0.0065 -0.0684 -0.3436
  847EOH      C 3392   3.426   1.103   3.428 -0.1063 -0.4591 -0.2991
  847EOH      H 3393   3.562   0.971   3.158  0.0081  0.4610 -1.3401
  848EOH      O 3394   1.092   5.923   2.224 -0.0767 -0.1292 -0.0264
  848EOH      C 3395   1.166   5.964   2.109  0.3044  0.7594  0.5307
  848EOH      C 3396   1.131   6.110   2.076 -0.2990  0.4517 -0.1992
  848EOH      H 3397   1.001   5.917   2.199  0.4747 -1.2908 -1.8852
  849EOH      O 3398   1.559   5.966   0.585  0.3126 -0.1870 -0.1550
  849EOH      C 3399   1.521   5.955   0.722 -0.3482  0.6362 -0.2636
  849EOH      C 3400   1.405   6.051   0.752 -0.9657 -0.2364  0.1883
  849EOH      H 3401   1.568   5.880   0.545  1.4236  0.1796 -0.7090
  850EOH      O 3402   2.067   2.926   5.697  0.1347 -0.4374 -0.0059
  850EOH      C 3403   2.146   2.914   5.815  0.3109 -0.3728 -0.1174
  850EOH      C 3404   2.289   2.920   5.757  0.3898  0.4056  0.1575
  850EOH      H 3405   1.982   2.952   5.729  0.5171  1.6122 -0.5958
  851EOH      O 3406   3.221   0.278   1.589  0.3037  0.2263 -0.2205
  851EOH      C 3407   3.241   0.162   1.670  0.2429 -0.0937 -0.6649
  851EOH      C 3408   3.165   0.047   1.600  0.3214 -0.5709  0.0258
  851EOH      H 3409   3.218   0.251   1.498 -1.0977  0.4594 -0.2485
  852EOH      O 3410   5.771   5.742   0.188 -0.0757 -0.6561 -0.3978
  852EOH      C 3411   5.638   5.734   0.241  0.0171 -0.4662 -0.1353
  852EOH      C 3412   5.653   5.616   0.339 -0.0855  0.0489  0.5044
  852EOH      H 3413   5.798   5.831   0.170 -3.0725  0.2944 -0.3841
  853EOH      O 3414   4.294   2.205   1.940 -0.7502  0.5655 -0.1533
  853EOH      C 3415   4.339   2.110   2.037 -0.0287  0.3181 -0.7331
  853EOH      C 3416   4.470   2.161   2.099 -0.0337 -0.8917  0.2957
  853EOH      H 3417   4.206   2.176   1.921 -0.2093 -0.4953 -1.0469
  854EOH      O 3418   4.566   5.586   3.540  0.2602  0.2211  0.0744
  854EOH      C 3419   4.464   5.686   3.548 -0.0000 -0.0210 -0.2263
  854EOH      C 3420   4.538   5.820   3.531 -0.7062  0.4396  0.3158
  854EOH      H 3421   4.545   5.520   3.604  1.2689  0.7229  0.9358
  855EOH      O 3422   2.437   0.659   4.478  0.0183  0.5284 -0.4251
  855EOH      C 3423   2.301   0.697   4.455 -0.1744 -0.1787 -0.4558
  855EOH      C 3424   2.225   0.601   4.361 -0.0380 -0.7970  0.0573
  855EOH      H 3425   2.483   0.734   4.443 -0.8320  1.0379 -0.4581
  856EOH      O 3426   2.418   3.297   3.687 -0.1707  0.2547  0.7597
  856EOH      C 3427   2.400   3.174   3.757  0.2342 -0.1815  0.1106
  856EOH      C 3428   2.374   3.062   3.655  0.0232 -0.3400  0.3359
  856EOH      H 3429   2.331   3.328   3.668 -0.5659 -1.5919 -0.6997
  857EOH      O 3430   3.725   2.972   5.375  0.0546  0.4458 -0.5546
  857EOH      C 3431   3.840   3.055   5.361  0.1393  0.2968 -0.7459
  857EOH      C 3432   3.947   2.993   5.452 -0.7298 -0.0145  0.0720
  857EOH      H 3433   3.647   3.016   5.406 -1.3847 -1.0346 -1.9564
  858EOH      O 3434   4.187   5.841   4.351  0.5414 -0.2589  0.3792
  858EOH      C 3435   4.109   5.946   4.409 -0.2290 -0.3502 -0.4721
  858EOH      C 3436   4.034   5.871   4.521  0.2750  0.2138  0.2482
  858EOH      H 3437   4.150   5.831   4.265  0.9162 -0.1421  0.2054
  859EOH      O 3438   1.848   4.118   6.188 -0.1742  0.3832 -0.1570
  859EOH      C 3439   1.740   4.208   6.213  0.1256  0.5544  0.5333
  859EOH      C 3440   1.798   4.346   6.249 -0.2522  0.9203 -0.2580
  859EOH      H 3441   1.818   4.040   6.144  0.7030 -1.5657  2.5545
  860EOH      O 3442   5.246   5.766   1.972 -0.5317 -0.1808 -0.1048
  860EOH      C 3443   5.259   5.626   1.946  0.7721 -0.0486 -0.1966
  860EOH      C 3444   5.209   5.619   1.800  0.2278 -0.1421 -0.0072
  860EOH      H 3445   5.295   5.791   2.049 -0.5464  1.5147 -0.6407
  861EOH      O 3446   1.381   0.963   5.918 -0.2218 -0.4477 -0.0854
  861EOH      C 3447   1.447   1.031   5.811 -0.0177 -0.7230 -0.1339
  861EOH      C 3448   1.367   1.157   5.775  0.5732 -0.2862  0.0843
  861EOH      H 3449   1.422   0.878   5.926  1.3509  0.4601  1.9627
  862EOH      O 3450   3.018   1.049   5.825  0.2995 -0.2751  0.2789
  862EOH      C 3451   2.890   1.022   5.880 -0.0106  0.4635 -0.0718
  862EOH      C 3452   2.912   0.946   6.013 -0.5026  0.1801 -0.1518
  862EOH      H 3453   3.055   0.970   5.787  0.0133  0.7004 -2.1205
  863EOH      O 3454   5.649   3.867   0.895  0.2574 -0.0244  0.2576
  863EOH      C 3455   5.701   3.970   0.980  0.4722  0.2713 -0.2301
  863EOH      C 3456   5.854   3.971   0.988  0.4821  0.3173 -0.4458
  863EOH      H 3457   5.556   3.864   0.912  0.0381  2.4768 -0.3827
  864EOH      O 3458   5.802   0.269   1.522 -0.2722  0.2722 -0.3406
  864EOH      C 3459   5.872   0.178   1.438 -0.0528 -0.1914  0.3399
  864EOH      C 3460   5.953   0.252   1.329 -0.6732 -0.5175 -0.3474
  864EOH      H 3461   5.755   0.219   1.588  0.9541 -1.3024 -0.6428
  865EOH      O 3462   0.910   5.502   6.005 -0.1155 -0.2096  0.1682
  865EOH      C 3463   0.884   5.393   5.915  0.6249 -0.0664 -0.2252
  865EOH      C 3464   0.842   5.265   5.990 -0.1381  0.2656 -0.0817
  865EOH      H 3465   1.003   5.498   6.022  0.1468  0.9717 -0.9304
  866EOH      O 3466   1.227   1.174   1.938 -0.2324 -0.0532 -0.1777
  866EOH      C 3467   1.326   1.267   1.982 -0.1367 -0.1986 -0.0867
  866EOH      C 3468   1.274   1.412   1.993  0.1264 -0.1515  0.5810
  866EOH      H 3469   1.263   1.090   1.961 -1.5584 -0.4892  0.3721
  867EOH      O 3470   1.749   2.473   5.942  0.1797  0.0769 -0.0301
  867EOH      C 3471   1.813   2.588   5.887  0.4123 -0.1325 -0.1966
  867EOH      C 3472   1.964   2.562   5.883  0.4355 -0.0415  0.0756
  867EOH      H 3473   1.657   2.479   5.920 -0.2300  0.5148  1.6809
  868EOH      O 3474   0.752   5.606   6.169  0.2081 -0.3829  0.1738
  868EOH      C 3475   0.739   5.517   6.281  0.4032 -0.2981  0.2643
  868EOH      C 3476   0.629   5.410   6.272 -0.0821  0.1764  0.5564
  868EOH      H 3477   0.805   5.568   6.101  1.3157 -1.3026  1.5298
  869EOH      O 3478   0.153   3.928   4.288 -0.2848  0.1379  0.0284
  869EOH      C 3479   0.233   4.021   4.363  0.2646 -0.5854  0.3462
  869EOH      C 3480   0.291   4.128   4.268  0.8217 -0.8652  0.3683
  869EOH      H 3481   0.193   3.843   4.275  1.6559  1.4164 -2.9873
  870EOH      O 3482   6.179   5.599   3.030  0.0443 -0.3335 -0.3978
  870EOH      C 3483   6.122   5.602   3.160  0.3794  0.1703 -0.2615
  870EOH      C 3484   6.005   5.702   3.153  0.2233 -0.0092 -0.1856
  870EOH      H 3485   6.265   5.638   3.037 -0.2605  0.0041  1.7251
  871EOH      O 3486   5.210   4.593   6.024  0.4556 -0.0580  0.0335
  871EOH      C 3487   5.129   4.478   6.000  0.1253  0.3448 -0.8362
  871EOH      C 3488   5.028   4.501   5.886 -0.3521 -0.2760 -0.5443
  871EOH      H 3489   5.250   4.625   5.944 -0.3524 -0.5398 -0.5729
  872EOH      O 3490   6.302   3.190   2.509  0.1237 -0.2484 -0.1523
  872EOH      C 3491   6.242   3.164   2.637  0.1115 -0.3502 -0.1794
  872EOH      C 3492   6.322   3.054   2.709 -0.2447 -0.0900  0.6215
  872EOH      H 3493   6.244   3.152   2.445 -0.3167 -2.7870  1.6759
  873EOH      O 3494   2.195   3.908   0.989  0.0808  0.1998  0.2008
  873EOH      C 3495   2.162   3.812   1.090  0.0039  0.4451  0.4096
  873EOH      C 3496   2.288   3.763   1.164  0.3567 -0.2548 -0.6299
  873EOH      H 3497   2.126   3.905   0.924  0.8062 -1.3189 -0.5375
  874EOH      O 3498   2.302   4.882   5.338 -0.4084  0.2384 -0.2838
  874EOH      C 3499   2.240   4.824   5.452  0.0081 -0.0655 -0.2112
  874EOH      C 3500   2.250   4.670   5.455  0.7383 -0.0134  0.0263
  874EOH      H 3501   2.392   4.890   5.367 -0.7108 -0.9206  1.0164
  875EOH      O 3502   0.151   2.198   1.171 -0.2876 -0.3069 -0.1232
  875EOH      C 3503   0.261   2.198   1.262  0.0486 -0.1854 -0.5296
  875EOH      C 3504   0.265   2.051   1.307 -0.1145 -0.1748 -0.4791
  875EOH      H 3505   0.148   2.284   1.132  0.3353 -1.0688 -1.9042
  876EOH      O 3506   0.734   1.669   2.710  0.1132 -0.4501  0.2274
  876EOH      C 3507   0.809   1.652   2.589 -0.2674  0.4120 -0.1392
  876EOH      C 3508   0.733   1.713   2.470  0.0697 -0.0179 -0.5791
  876EOH      H 3509   0.702   1.758   2.704  1.5286  0.0586 -0.0760
  877EOH      O 3510   0.039   0.011   2.327  0.9096 -0.0059  0.1483
  877EOH      C 3511  -0.003   0.130   2.395  0.1816 -0.2753  0.1725
  877EOH      C 3512  -0.066   0.102   2.532 -0.1687 -1.0954 -0.1503
  877EOH      H 3513  -0.039  -0.036   2.304  0.9302 -0.7755  1.5765
  878EOH      O 3514   5.482   5.086   0.694 -0.0301  0.0384 -0.0369
  878EOH      C 3515   5.526   5.162   0.807  0.3082  0.1028 -0.2078
  878EOH      C 3516   5.633   5.259   0.755  0.0840  0.4923  0.0603
  878EOH      H 3517   5.551   5.026   0.669 -0.1442 -0.0684 -0.0965
  879EOH      O 3518   6.015   3.346   2.268  0.1749  0.1054 -0.5827
  879EOH      C 3519   5.955   3.453   2.194 -0.4495 -0.1044 -0.3855
  879EOH      C 3520   5.833   3.501   2.276 -0.0589 -0.0100  0.1469
  879EOH      H 3521   6.059   3.378   2.345 -1.0059 -2.0982  1.0868
  880EOH      O 3522   5.747   3.466   5.744  0.5693  0.4505 -0.1208
  880EOH      C 3523   5.680   3.342   5.720  0.3383  0.4297  0.6340
  880EOH      C 3524   5.560   3.329   5.816  0.2210  0.7382  0.5300
  880EOH      H 3525   5.788   3.462   5.829  2.5817  2.2720 -0.9722
  881EOH      O 3526   1.656   1.213   1.736 -0.3092 -0.3037  0.2995
  881EOH      C 3527   1.781   1.161   1.783 -0.0741  0.1260  0.1531
  881EOH      C 3528   1.886   1.271   1.805  0.2573 -0.0312 -0.6423
  881EOH      H 3529   1.588   1.148   1.735  0.0307 -0.6815  1.6137
  882EOH      O 3530   6.135   3.440   3.172 -0.3914 -0.5521 -0.1509
  882EOH      C 3531   6.260   3.508   3.188 -0.5113 -0.2491 -0.5105
  882EOH      C 3532   6.292   3.577   3.054 -0.3876 -0.1485 -0.4293
  882EOH      H 3533   6.148   3.373   3.107 -1.1114  1.2225 -2.1756
  883EOH      O 3534   6.019   5.134   3.287 -0.0469  0.1328 -0.0195
  883EOH      C 3535   5.899   5.066   3.252 -0.0883  0.0547  0.2713
  883EOH      C 3536   5.903   5.017   3.106 -0.4929  0.1568  0.2239
  883EOH      H 3537   6.016   5.147   3.380  0.9519 -1.3396  0.2369
  884EOH      O 3538   1.937   3.119   0.479  0.1680  0.7408 -0.5621
  884EOH      C 3539   1.834   3.105   0.382 -0.1614  0.6394 -0.1985
  884EOH      C 3540   1.776   2.963   0.400  0.9424  0.2207  0.0498
  884EOH      H 3541   1.907   3.160   0.559  0.4845 -1.0390  0.5037
  885EOH      O 3542   6.036   5.645   6.022 -0.2995 -0.4823 -0.5003
  885EOH      C 3543   6.147   5.731   5.994 -0.1722 -0.3691  0.3285
  885EOH      C 3544   6.106   5.880   5.991  0.2090 -0.2625  0.4113
  885EOH      H 3545   6.072   5.559   6.003  0.9906 -0.0593 -0.0582
  886EOH      O 3546   3.778   2.617   1.734 -0.0146  0.0642  0.2228
  886EOH      C 3547   3.811   2.664   1.603 -0.6472 -0.0149  0.0346
  886EOH      C 3548   3.881   2.548   1.531  0.2767  0.6963 -0.2248
  886EOH      H 3549   3.733   2.688   1.778  0.3860 -0.1150  0.9425
  887EOH      O 3550   4.715   5.491   2.687  0.5260  0.8432 -0.1112
  887EOH      C 3551   4.621   5.564   2.768  0.0155 -0.1861  0.2335
  887EOH      C 3552   4.599   5.485   2.898  0.0135  0.0754  0.3903
  887EOH      H 3553   4.710   5.516   2.596 -0.1316  1.5635  0.1069
  888EOH      O 3554   2.242   5.965   2.106  0.0982 -0.1354  0.1848
  888EOH      C 3555   2.223   5.888   1.987  0.8097 -0.6920  0.4209
  888EOH      C 3556   2.354   5.914   1.912  0.1149  0.1156 -0.5352
  888EOH      H 3557   2.284   5.914   2.174 -0.1848 -0.5641  0.0410
  889EOH      O 3558   4.253   4.460   2.950  0.0834 -0.1896 -0.2225
  889EOH      C 3559   4.166   4.350   2.979  0.1985 -0.2235 -0.0043
  889EOH      C 3560   4.045   4.342   2.885  0.0813  0.6027  0.0670
  889EOH      H 3561   4.320   4.474   3.015  0.7356  0.5608 -1.0343
  890EOH      O 3562   4.450   4.467   5.324  0.3350 -0.0210 -0.2941
  890EOH      C 3563   4.383   4.592   5.341 -0.3428 -0.3790 -0.2854
  890EOH      C 3564   4.308   4.635   5.214 -0.1671 -0.3617 -0.3834
  890EOH      H 3565   4.534   4.481   5.284  0.4051  0.1539 -0.0841
  891EOH      O 3566   0.026   0.285   4.720 -0.1524 -0.4801  0.0376
  891EOH      C 3567   0.028   0.427   4.710  0.2067 -0.5052 -0.2855
  891EOH      C 3568   0.143   0.451   4.611  0.4588 -0.2127  0.0764
  891EOH      H 3569  -0.013   0.249   4.642 -0.3330 -2.3702  0.9580
  892EOH      O 3570   6.157   0.456   3.118 -0.1017 -0.3635 -0.1953
  892EOH      C 3571   6.081   0.477   3.237  0.1064 -0.0527 -0.1146
  892EOH      C 3572   5.932   0.467   3.200 -0.1074  0.5142  0.5717
  892EOH      H 3573   6.229   0.517   3.129  0.5769 -1.0177 -0.9918
  893EOH      O 3574   4.955   2.866   3.510  0.3528  0.4522  0.4151
  893EOH      C 3575   5.028   2.791   3.412 -0.1368  0.2347  0.2149
  893EOH      C 3576   5.057   2.891   3.299 -0.1338  0.4687  0.4197
  893EOH      H 3577   4.871   2.873   3.467  0.2114 -0.6497  0.4978
  894EOH      O 3578   2.608   1.025   3.041 -0.4065 -0.3651  0.4493
  894EOH      C 3579   2.746   1.053   3.014 -0.4776  0.3743  0.8380
  894EOH      C 3580   2.829   0.960   3.105 -0.2580  0.0081  0.2662
  894EOH      H 3581   2.559   1.044   2.963  1.6091 -2.1235 -1.3397
  895EOH      O 3582   5.670   5.131   0.311 -0.1361  0.1402 -0.3161
  895EOH      C 3583   5.570   5.227   0.274  0.1231  0.6457  0.2707
  895EOH      C 3584   5.491   5.281   0.395  0.0165  0.3015  0.3557
  895EOH      H 3585   5.737   5.136   0.245  1.8882 -1.0113  1.6022
  896EOH      O 3586   1.047   5.062   3.493  0.0111  0.0738  0.1788
  896EOH      C 3587   0.986   5.009   3.611 -0.3906 -0.0083 -0.0669
  896EOH      C 3588   0.868   5.091   3.666  0.0212  0.1103  0.6444
  896EOH      H 3589   1.076   4.983   3.451  2.7308  1.2081 -0.1582
  897EOH      O 3590   2.707   3.663   4.306 -0.2845 -0.1401 -0.5339
  897EOH      C 3591   2.834   3.605   4.275 -0.0520 -0.0020  0.1643
  897EOH      C 3592   2.812   3.457   4.240  0.0398  0.0061  0.0753
  897EOH      H 3593   2.668   3.702   4.229  0.7470  0.8058 -0.5848
  898EOH      O 3594   5.971   5.587   0.191  0.1308 -0.4445 -0.3403
  898EOH      C 3595   6.075   5.655   0.121 -0.2788  0.5946  0.0469
  898EOH      C 3596   6.185   5.562   0.066 -0.3235  0.5588  0.0171
  898EOH      H 3597   5.896   5.644   0.179 -0.0174 -0.7891 -1.1062
  899EOH      O 3598   4.437   3.783   4.542 -0.3867 -0.4742 -0.3189
  899EOH      C 3599   4.347   3.673   4.549 -0.5253 -0.3329  0.1199
  899EOH      C 3600   4.314   3.612   4.411 -0.0445  0.2008 -0.2281
  899EOH      H 3601   4.464   3.802   4.630 -0.8882  0.8982 -0.4551
  900EOH      O 3602   3.317   2.308   5.802  0.3951 -0.4557 -0.1572
  900EOH      C 3603   3.361   2.395   5.698 -0.3311  0.2396  0.1071
  900EOH      C 3604   3.429   2.313   5.586 -0.8965  0.1160 -0.1481
  900EOH      H 3605   3.260   2.243   5.763  1.9147 -1.1073 -1.3588
  901EOH      O 3606   3.168   1.942   3.582 -0.2104 -0.0777  0.0182
  901EOH      C 3607   3.241   1.824   3.546 -0.0974 -0.0030  0.0020
  901EOH      C 3608   3.175   1.745   3.433  0.1257 -0.1590 -0.0205
  901EOH      H 3609   3.219   1.989   3.647  0.3645 -0.2938 -0.2661
  902EOH      O 3610   6.006   4.773   4.821  0.0066 -0.1814  0.0116
  902EOH      C 3611   6.081   4.659   4.779  0.0139 -0.3288  0.4279
  902EOH      C 3612   6.063   4.631   4.628  0.8535  0.2038  0.2263
  902EOH      H 3613   6.067   4.843   4.801  0.7804 -0.2217  2.1049
  903EOH      O 3614   3.264   2.407   0.741 -0.2178 -0.0939 -0.2255
  903EOH      C 3615   3.307   2.477   0.624  0.6767 -0.1066  0.0864
  903EOH      C 3616   3.361   2.379   0.518  0.4020  0.2272 -0.3680
  903EOH      H 3617   3.330   2.423   0.807 -2.6994 -1.7731  2.8070
  904EOH      O 3618   5.233   4.784   5.627 -0.1545  0.6948 -0.2929
  904EOH      C 3619   5.093   4.756   5.637 -0.0231  0.2244  0.3055
  904EOH      C 3620   5.016   4.838   5.531  0.6866  0.0221 -0.3699
  904EOH      H 3621   5.269   4.756   5.544  2.6207  0.0789  1.0616
  905EOH      O 3622   0.589   3.773   4.210 -0.0249  0.0001 -0.0832
  905EOH      C 3623   0.696   3.690   4.164  0.4393  0.4198  0.2458
  905EOH      C 3624   0.728   3.591   4.277  0.4930 -0.1304 -0.2511
  905EOH      H 3625   0.627   3.847   4.254  0.3795 -0.6765  0.7174
  906EOH      O 3626   0.218   1.436   2.184  0.2018 -0.5979  0.1304
  906EOH      C 3627   0.086   1.454   2.133  0.1635 -0.1560  0.3911
  906EOH      C 3628  -0.028   1.403   2.222 -0.1381 -0.6004 -0.2477
  906EOH      H 3629   0.268   1.449   2.104 -0.2787 -2.5405 -0.5145
  907EOH      O 3630   3.206   0.624   3.392 -0.1046 -0.2321 -0.0701
  907EOH      C 3631   3.218   0.757   3.341  0.1872 -0.1072  0.3185
  907EOH      C 3632   3.112   0.854   3.396  0.0094 -0.0876 -0.0524
  907EOH      H 3633   3.243   0.639   3.478  0.6358 -0.9008 -0.2717
  908EOH      O 3634   1.902   4.689   1.667 -0.3250  0.1236  0.1326
  908EOH      C 3635   2.015   4.604   1.689 -0.0494  0.4113 -0.1684
  908EOH      C 3636   2.071   4.537   1.562  0.2938  0.0053  0.1944
  908EOH      H 3637   1.925   4.777   1.693  1.8172  0.2514 -2.0088
  909EOH      O 3638   4.763   2.379   5.427  0.0856 -0.1895 -0.3475
  909EOH      C 3639   4.664   2.427   5.518  0.3264 -0.0778 -0.1431
  909EOH      C 3640   4.545   2.329   5.518  0.4996 -0.2882 -0.0344
  909EOH      H 3641   4.745   2.428   5.348  0.2453  1.1392  0.4209
  910EOH      O 3642   5.492   0.161   4.015 -0.1817 -0.1591  0.4934
  910EOH      C 3643   5.360   0.215   4.022  0.0053  0.3888 -0.2332
  910EOH      C 3644   5.296   0.224   3.882  0.4197 -0.6932 -0.4984
  910EOH      H 3645   5.521   0.134   4.101  1.0072  0.9174  0.4356
  911EOH      O 3646   5.773   3.255   0.212  0.3776  0.0087 -0.6780
  911EOH      C 3647   5.877   3.177   0.152  0.1925 -0.6646 -0.1256
  911EOH      C 3648   5.828   3.098   0.029  0.3985 -0.2945 -0.4452
  911EOH      H 3649   5.816   3.308   0.278 -1.5311 -1.1382  1.5700
  912EOH      O 3650   5.536   3.333   0.222 -0.0745  0.1470  0.1144
  912EOH      C 3651   5.507   3.330   0.362 -0.1068 -0.2234  0.0982
  912EOH      C 3652   5.387   3.425   0.381  0.3541  0.3602  0.1039
  912EOH      H 3653   5.620   3.291   0.219  0.9755  2.1565  0.5280
  913EOH      O 3654   5.886   4.081   2.497  0.5458 -0.7517 -0.4421
  913EOH      C 3655   5.934   4.023   2.618  0.2209  0.2481  0.1702
  913EOH      C 3656   5.814   3.950   2.681  0.4530 -0.0587  0.2588
  913EOH      H 3657   5.912   4.171   2.500 -1.3396 -0.1233 -1.6671
  914EOH      O 3658   4.874   2.154   5.472  0.1353 -0.0212  0.0835
  914EOH      C 3659   4.998   2.181   5.406  0.0312 -0.0833 -0.1397
  914EOH      C 3660   5.049   2.045   5.356  0.0813 -0.0396 -0.2068
  914EOH      H 3661   4.818   2.230   5.469  0.9592  0.6394  1.4341
  915EOH      O 3662   5.142   2.614   0.311  0.1993  0.6510 -0.2968
  915EOH      C 3663   5.130   2.583   0.450  0.5303 -0.1246 -0.4365
  915EOH      C 3664   5.030   2.470   0.478  0.0632  0.3372 -0.2161
  915EOH      H 3665   5.171   2.703   0.296 -0.4892  0.8102 -0.7206
  916EOH      O 3666   3.428   4.047   5.354 -0.0432  0.0577 -0.5441
  916EOH      C 3667   3.475   3.920   5.401 -0.3633  0.0949 -0.1215
  916EOH      C 3668   3.343   3.844   5.422 -0.2751 -0.0104  0.0503
  916EOH      H 3669   3.487   4.076   5.286 -0.5183  1.8658 -0.2198
  917EOH      O 3670   1.967   5.932   3.590 -0.0680 -0.6402 -0.1571
  917EOH      C 3671   1.904   5.938   3.462  0.0526 -0.6110 -0.2148
  917EOH      C 3672   1.764   5.992   3.496  0.3770  0.4926 -0.6174
  917EOH      H 3673   2.053   5.895   3.577  0.4560  0.4814 -0.0025
  918EOH      O 3674   0.821   1.747   4.982 -0.0287 -0.3529  0.3732
  918EOH      C 3675   0.850   1.647   5.080  0.1617 -0.3567  0.3127
  918EOH      C 3676   0.904   1.726   5.200  0.1450  0.3807 -0.1612
  918EOH      H 3677   0.743   1.716   4.937  0.7936  0.6132 -1.7791
  919EOH      O 3678   5.980   6.111   4.485 -0.3107  0.8839  0.0367
  919EOH      C 3679   5.857   6.106   4.411 -0.3245 -0.4882  0.1554
  919EOH      C 3680   5.879   6.049   4.270  0.4798  0.0565  0.0565
  919EOH      H 3681   5.994   6.026   4.522  5.1914  1.8615  0.6019
  920EOH      O 3682   5.698   6.233   0.464 -0.0110  0.0540 -0.8584
  920EOH      C 3683   5.605   6.147   0.398 -0.2037 -0.2194 -0.2355
  920EOH      C 3684   5.496   6.079   0.482 -0.6480  0.3542 -0.3475
  920EOH      H 3685   5.739   6.188   0.536 -0.6423  3.0422  1.4845
  921EOH      O 3686   1.284   0.048   3.510 -0.4144  0.0239 -0.1726
  921EOH      C 3687   1.386   0.137   3.465  0.1576 -0.4550  0.1741
  921EOH      C 3688   1.335   0.280   3.487  0.2392 -0.4143  0.0989
  921EOH      H 3689   1.322   0.001   3.583 -2.6690 -0.9769  0.4059
  922EOH      O 3690   3.579   3.911   1.358 -0.0746 -0.0355  0.1652
  922EOH      C 3691   3.701   3.845   1.393 -0.0455 -0.1670 -0.1834
  922EOH      C 3692   3.715   3.813   1.543 -0.4326 -0.4289 -0.2033
  922EOH      H 3693   3.512   3.849   1.383 -0.2558 -0.2212 -0.7658
  923EOH      O 3694   2.336   5.210   5.984 -0.2894  0.7205  0.8524
  923EOH      C 3695   2.355   5.146   6.110  0.1781 -0.2452  0.2944
  923EOH      C 3696   2.407   5.255   6.207  0.1087  0.1217 -0.0804
  923EOH      H 3697   2.245   5.237   5.981 -0.4578  0.0677  0.0022
  924EOH      O 3698   6.314   3.778   5.051  0.2049  0.6786  0.5031
  924EOH      C 3699   6.181   3.800   5.098 -0.1113  0.0155 -0.0720
  924EOH      C 3700   6.074   3.726   5.015 -0.3951  0.0528  0.2559
  924EOH      H 3701   6.313   3.823   4.967 -1.1113  2.7320  1.5742
  925EOH      O 3702   2.178   1.471   6.151  0.6323 -0.5888  0.0295
  925EOH      C 3703   2.248   1.515   6.268  0.3921 -0.2940  0.0624
  925EOH      C 3704   2.342   1.634   6.241 -0.1838  0.0728 -0.3189
  925EOH      H 3705   2.131   1.542   6.111 -0.1406  1.0106  3.5805
  926EOH      O 3706   5.201   3.651   5.173 -0.0504 -0.2149  0.0685
  926EOH      C 3707   5.264   3.612   5.295  0.0569  0.2927  0.1744
  926EOH      C 3708   5.367   3.502   5.262 -0.0299  0.1605  0.3424
  926EOH      H 3709   5.114   3.682   5.195 -0.0361  0.8858 -1.3488
  927EOH      O 3710   4.157   2.037   4.024  0.1836 -0.1553 -0.2116
  927EOH      C 3711   4.033   2.004   3.961  0.3999  0.0807 -0.7598
  927EOH      C 3712   3.964   1.867   3.972  0.2581  0.1800 -0.4101
  927EOH      H 3713   4.215   2.039   3.950 -1.3361  1.5456 -1.3891
  928EOH      O 3714   4.308   6.168   2.394 -0.0719  0.3581  0.0820
  928EOH      C 3715   4.194   6.250   2.421 -0.4585 -0.0168 -0.4077
  928EOH      C 3716   4.224   6.396   2.381 -0.0544  0.1011  0.3218
  928EOH      H 3717   4.301   6.144   2.303 -3.2259  0.2987  0.2742
  929EOH      O 3718   0.458   4.522   4.709  0.0667 -0.0316 -0.0353
  929EOH      C 3719   0.378   4.634   4.747 -0.0242 -0.1705  0.1819
  929EOH      C 3720   0.439   4.756   4.676 -1.1509  0.1942 -0.1671
  929EOH      H 3721   0.491   4.542   4.623 -1.5931 -0.8975 -0.9086
  930EOH      O 3722   6.162   0.817   0.119  0.1860  0.2359  0.4844
  930EOH      C 3723   6.280   0.773   0.052 -0.1637  0.2933 -0.1781
  930EOH      C 3724   6.338   0.900  -0.015  0.3329  0.0799 -0.1560
  930EOH      H 3725   6.169   0.807   0.212  0.1864  0.3347  0.4954
  931EOH      O 3726   3.499   4.156   2.363 -0.2529 -0.2844 -0.1265
  931EOH      C 3727   3.587   4.210   2.264  0.0117 -0.0335  0.2452
  931EOH      C 3728   3.726   4.158   2.306  0.0836  0.1232  0.2030
  931EOH      H 3729   3.471   4.232   2.411  0.9291 -0.8161  1.4481
  932EOH      O 3730   4.692   2.590   0.649  0.1217 -0.4328 -0.4123
  932EOH      C 3731   4.684   2.612   0.508  0.3201  0.4274 -0.2918
  932EOH      C 3732   4.561   2.525   0.475  0.0884  0.5802  0.1667
  932EOH      H 3733   4.736   2.664   0.688 -0.0887 -0.4342 -0.1674
  933EOH      O 3734   3.700   4.698   2.566 -0.0647 -0.1430  0.3277
  933EOH      C 3735   3.743   4.571   2.517  0.3055  0.0691  0.0968
  933EOH      C 3736   3.834   4.502   2.620  0.0285 -0.1667  0.1836
  933EOH      H 3737   3.752   4.762   2.520 -0.0471 -0.3027  0.1231
  934EOH      O 3738   1.452   3.245   5.382 -0.5594  0.5593 -0.1773
  934EOH      C 3739   1.476   3.326   5.497  0.1668 -0.6284  0.5076
  934EOH      C 3740   1.338   3.375   5.545  0.0450  0.1114 -0.6030
  934EOH      H 3741   1.396   3.176   5.413  1.3177 -0.6961  0.5053
  935EOH      O 3742   0.617   0.399   1.972 -0.1372 -0.5298  0.7607
  935EOH      C 3743   0.488   0.349   1.936 -0.1448  0.2140 -0.2587
  935EOH      C 3744   0.504   0.199   1.903 -0.2693  0.1182  0.1108
  935EOH      H 3745   0.683   0.388   1.905  2.1613  0.8256  2.6966
  936EOH      O 3746   4.448   5.720   0.164 -0.5252 -0.3731 -0.4651
  936EOH      C 3747   4.440   5.712   0.306 -0.0877  0.4032 -0.3949
  936EOH      C 3748   4.529   5.812   0.383  0.4212  0.1164 -0.6100
  936EOH      H 3749   4.413   5.639   0.129  0.1311 -0.0368 -1.9433
  937EOH      O 3750   2.087   5.254   5.927 -0.2506  0.0846 -0.4661
  937EOH      C 3751   2.033   5.340   6.027  0.4835 -0.0932  0.0907
  937EOH      C 3752   1.991   5.471   5.956 -0.0487 -0.6660 -0.6530
  937EOH      H 3753   2.040   5.172   5.916  0.9933 -0.9775  1.9010
  938EOH      O 3754   5.212   1.066   0.306 -0.3564 -0.2902 -0.4665
  938EOH      C 3755   5.337   1.082   0.238 -0.1704  0.1577 -0.0201
  938EOH      C 3756   5.390   0.946   0.188  0.0865  0.1152  0.3602
  938EOH      H 3757   5.204   1.143   0.359 -0.4961 -0.5216 -0.1455
  939EOH      O 3758   2.549   0.932   1.648 -0.0514  0.2425 -0.4191
  939EOH      C 3759   2.624   0.891   1.534  0.2985 -0.0521 -0.0845
  939EOH      C 3760   2.707   1.009   1.482 -0.3706  0.6786  0.4929
  939EOH      H 3761   2.499   0.858   1.679 -0.6732 -0.2707 -2.5619
  940EOH      O 3762   4.521   1.984   5.626  0.5545  0.5450  0.4943
  940EOH      C 3763   4.446   1.985   5.504 -0.3192 -0.7292  1.0070
  940EOH      C 3764   4.294   1.973   5.521 -0.4862 -0.2127 -0.1057
  940EOH      H 3765   4.613   1.976   5.606  0.9870  1.1950  2.1855
  941EOH      O 3766   1.185   4.841   1.099  0.0630  0.0143 -0.4014
  941EOH      C 3767   1.227   4.809   1.232 -0.2954  0.2517 -0.2325
  941EOH      C 3768   1.099   4.795   1.317  0.1770  0.0415  0.4518
  941EOH      H 3769   1.253   4.811   1.041  0.5592 -0.4673  0.4085
  942EOH      O 3770   4.809   5.291   5.910 -0.4855 -0.3145 -0.6974
  942EOH      C 3771   4.766   5.424   5.879  0.1780  0.0139 -0.2251
  942EOH      C 3772   4.745   5.501   6.010  0.0711 -0.4398  0.0249
  942EOH      H 3773   4.770   5.228   5.851 -1.1484  0.2343 -0.8558
  943EOH      O 3774   0.633   4.702   5.933 -0.1674  0.3705 -0.5418
  943EOH      C 3775   0.687   4.581   5.985 -0.5905  0.5245  0.2527
  943EOH      C 3776   0.824   4.612   6.049 -0.4499  0.4897 -0.0334
  943EOH      H 3777   0.558   4.671   5.885  0.3854 -1.0324 -0.5234
  944EOH      O 3778   5.691   2.524   2.954  0.3696  0.1197  0.2341
  944EOH      C 3779   5.654   2.593   2.834  0.3065 -0.1576  0.0944
  944EOH      C 3780   5.778   2.607   2.743  0.5368 -0.4664  0.3600
  944EOH      H 3781   5.660   2.574   3.028  1.3546 -1.3518  1.6794
  945EOH      O 3782   5.656   5.086   4.705  0.1792  0.4901  0.0543
  945EOH      C 3783   5.551   5.127   4.618  0.1315  0.1782 -0.0336
  945EOH      C 3784   5.460   5.236   4.677 -0.1016 -0.0304 -0.0076
  945EOH      H 3785   5.629   5.016   4.763 -0.8106  0.7293 -0.1218
  946EOH      O 3786   5.210   1.145   1.025 -0.0243 -0.2730 -0.5055
  946EOH      C 3787   5.178   1.033   1.109 -0.1396  0.2708  0.1835
  946EOH      C 3788   5.031   0.987   1.102 -0.1354  0.3167 -0.2307
  946EOH      H 3789   5.304   1.153   1.029 -0.1366 -0.0364  2.4991
  947EOH      O 3790   6.309   2.630   2.122  0.3022  0.4677 -0.1384
  947EOH      C 3791   6.428   2.690   2.071  0.2450 -0.1043 -0.9462
  947EOH      C 3792   6.397   2.783   1.952  0.0799  0.5393 -0.4043
  947EOH      H 3793   6.335   2.549   2.163  0.1655  0.0032 -0.9737
  948EOH      O 3794   2.589   0.058   0.870  0.3472 -0.4093 -0.3918
  948EOH      C 3795   2.710   0.127   0.900  0.2647 -0.7547  0.7539
  948EOH      C 3796   2.678   0.201   1.031 -0.7488  0.1346  0.0111
  948EOH      H 3797   2.606  -0.025   0.911 -1.4279 -1.4891 -1.7427
  949EOH      O 3798   3.112   4.763   3.698 -0.0062 -0.0770 -0.4525
  949EOH      C 3799   3.179   4.881   3.654  0.3711 -0.1681 -0.1273
  949EOH      C 3800   3.253   4.854   3.522  0.0719 -0.9047 -0.1480
  949EOH      H 3801   3.067   4.786   3.778  1.3733  0.4251  0.1830
  950EOH      O 3802   2.754   5.588   3.158 -0.0868 -0.0383  0.1239
  950EOH      C 3803   2.853   5.656   3.082 -0.0261  0.0076  0.2432
  950EOH      C 3804   2.948   5.740   3.169  0.4359  0.0858 -0.3313
  950EOH      H 3805   2.681   5.581   3.099  0.5446 -1.9415 -0.4684
  951EOH      O 3806   0.388   4.091   3.363  0.0375 -0.0113 -0.3357
  951EOH      C 3807   0.466   4.190   3.430 -0.1694 -0.0736  0.0033
  951EOH      C 3808   0.492   4.157   3.578 -0.7134 -0.5379 -0.0024
  951EOH      H 3809   0.446   4.019   3.346  0.5256  0.3990 -0.3877
  952EOH      O 3810   4.043   3.406   6.282 -0.1656 -0.4602 -0.1320
  952EOH      C 3811   3.952   3.350   6.187 -0.2320 -0.2576 -0.1881
  952EOH      C 3812   3.811   3.413   6.195  0.1947  0.6749  0.0108
  952EOH      H 3813   4.120   3.424   6.231  0.7525 -2.3500  0.5429
  953EOH      O 3814   3.564   5.142   1.871  0.3670 -0.1972  0.1279
  953EOH      C 3815   3.595   5.141   1.731 -0.1680 -0.1989  0.0093
  953EOH      C 3816   3.738   5.184   1.695 -0.2830  0.2007  0.0289
  953EOH      H 3817   3.559   5.234   1.893 -0.8675 -0.0887 -0.5469
  954EOH      O 3818   1.471   4.011   4.944 -0.2561 -0.0361  0.3095
  954EOH      C 3819   1.580   4.016   5.036  0.3005  0.4627 -0.3686
  954EOH      C 3820   1.710   3.961   4.975  0.4326 -0.2790  0.5760
  954EOH      H 3821   1.395   4.036   4.995 -0.5030 -0.1827  0.0170
  955EOH      O 3822   6.174   4.747   3.008  0.0092 -0.2872 -0.1551
  955EOH      C 3823   6.203   4.738   3.147 -0.4677 -0.0635 -0.0425
  955EOH      C 3824   6.354   4.724   3.173 -0.3839 -0.3806 -0.7105
  955EOH      H 3825   6.189   4.836   2.978 -3.0241 -0.8117 -3.6080
  956EOH      O 3826   3.246   4.354   5.801 -0.0626  0.1764 -0.1672
  956EOH      C 3827   3.270   4.322   5.664  0.0495  0.0392 -0.1147
  956EOH      C 3828   3.127   4.284   5.621 -0.0132  0.5445 -0.3549
  956EOH      H 3829   3.327   4.335   5.846  0.2078  0.6609 -0.4540
  957EOH      O 3830   0.677   5.219   2.481 -0.2497  0.5204  0.2736
  957EOH      C 3831   0.721   5.327   2.398  0.0375  0.1966  0.0096
  957EOH      C 3832   0.864   5.296   2.348  0.0147 -0.0651  0.1066
  957EOH      H 3833   0.699   5.257   2.564  2.5071  4.1528 -1.9285
  958EOH      O 3834   4.640   3.067   5.460 -0.1492  0.1865  0.5320
  958EOH      C 3835   4.646   3.047   5.602  0.0739  0.0512  0.5051
  958EOH      C 3836   4.604   2.908   5.653  0.1739 -0.1468  0.0460
  958EOH      H 3837   4.716   3.117   5.434  0.1082 -0.9162 -0.8319
  959EOH      O 3838   3.305   5.168   2.567 -0.1192  0.4634  0.0471
  959EOH      C 3839   3.354   5.221   2.444 -0.1226  0.5956  0.1023
  959EOH      C 3840   3.261   5.169   2.333  0.3055  0.1658 -0.0586
  959EOH      H 3841   3.317   5.074   2.569 -2.0439  0.1997  0.3445
  960EOH      O 3842   3.386   0.856   0.245 -0.2736 -0.5152  0.4109
  960EOH      C 3843   3.244   0.841   0.249 -0.3919  0.4455  0.1000
  960EOH      C 3844   3.205   0.692   0.258 -0.0762  0.3497 -0.0875
  960EOH      H 3845   3.409   0.907   0.321 -0.5450  0.8538 -0.3857
  961EOH      O 3846   2.515   5.143   5.800  0.3443 -0.0262 -0.1278
  961EOH      C 3847   2.450   5.184   5.680 -0.2884  0.1736  0.2770
  961EOH      C 3848   2.503   5.323   5.640 -0.0068  0.0817  0.3290
  961EOH      H 3849   2.456   5.177   5.867 -0.8881 -2.0419 -0.1336
  962EOH      O 3850   1.945   6.029   1.024 -0.1699  0.4830 -0.1303
  962EOH      C 3851   1.907   6.167   1.033 -0.3562  0.4209  0.0279
  962EOH      C 3852   2.019   6.252   1.095 -0.1106 -0.1738  0.4114
  962EOH      H 3853   1.865   5.978   1.019  0.3299 -0.4447  0.9927
  963EOH      O 3854   0.442   3.110   0.816 -0.3860  0.2860  0.3208
  963EOH      C 3855   0.321   3.037   0.842 -0.4106  0.0625 -0.4359
  963EOH      C 3856   0.340   2.946   0.965  0.3600  1.1550  0.2561
  963EOH      H 3857   0.502   3.052   0.773 -0.3039  1.3335 -0.9967
  964EOH      O 3858   2.530   4.584   6.253  0.3449  0.6890  0.1248
  964EOH      C 3859   2.519   4.502   6.369 -0.1197  0.4896 -0.0612
  964EOH      C 3860   2.376   4.497   6.427 -0.4824  0.7033 -0.9398
  964EOH      H 3861   2.612   4.631   6.256  1.8667 -1.7218 -1.3886
  965EOH      O 3862   0.221   5.866   3.924 -0.0980 -0.2129  0.3103
  965EOH      C 3863   0.182   5.736   3.878 -0.0520 -0.1825  0.1860
  965EOH      C 3864   0.313   5.665   3.836 -0.0940 -0.1214 -0.0495
  965EOH      H 3865   0.189   5.883   4.011 -0.8702  2.3059 -0.4221
  966EOH      O 3866   4.731   6.125   1.123  0.2875  0.3518 -0.2330
  966EOH      C 3867   4.602   6.072   1.154  0.4099 -0.0878 -0.4506
  966EOH      C 3868   4.621   6.009   1.293 -0.0418  0.1902 -0.2609
  966EOH      H 3869   4.718   6.189   1.055  2.9402  1.3158  0.1027
  967EOH      O 3870   2.560   2.370   2.245  0.0668  0.3969 -0.7757
  967EOH      C 3871   2.440   2.299   2.211 -0.0021  0.0142  0.2476
  967EOH      C 3872   2.464   2.150   2.176  0.1393  0.1221 -0.1157
  967EOH      H 3873   2.540   2.462   2.254 -1.0801  0.3614 -2.7255
  968EOH      O 3874   4.855   4.120   2.556 -0.1250  0.1177  0.0511
  968EOH      C 3875   4.787   4.078   2.438  0.2021  0.1337 -0.1444
  968EOH      C 3876   4.723   4.202   2.374 -0.8206 -0.7503 -0.8540
  968EOH      H 3877   4.808   4.093   2.634  0.2851 -1.4394 -0.2312
  969EOH      O 3878   3.204   1.501   2.920 -0.4673 -0.1754 -0.1862
  969EOH      C 3879   3.277   1.382   2.886  0.2226  0.0097  0.6482
  969EOH      C 3880   3.214   1.313   2.765  0.1420 -0.0673  0.7340
  969EOH      H 3881   3.114   1.474   2.925  0.3612 -3.0864  0.2221
  970EOH      O 3882   4.178   2.644   5.888  0.3738  0.3110 -0.1656
  970EOH      C 3883   4.307   2.697   5.855  0.4669  0.2324  0.0672
  970EOH      C 3884   4.386   2.586   5.784 -0.7896 -0.7429  0.1812
  970EOH      H 3885   4.190   2.570   5.945 -1.7601 -0.4977 -0.7546
  971EOH      O 3886   2.042   1.649   3.429  0.0261 -0.2192  0.9350
  971EOH      C 3887   2.069   1.709   3.302 -0.2704 -0.3868  0.7931
  971EOH      C 3888   2.207   1.657   3.257 -0.1046  0.2329  0.5809
  971EOH      H 3889   1.982   1.707   3.472  0.2527 -0.1925  1.2168
  972EOH      O 3890   6.107   4.723   4.126 -0.1099  0.1239  0.0643
  972EOH      C 3891   6.054   4.809   4.025  0.6049  0.1393 -0.3095
  972EOH      C 3892   6.158   4.907   3.969  0.1381  0.8822  0.1073
  972EOH      H 3893   6.175   4.667   4.090 -1.8726 -2.0449  0.0606
  973EOH      O 3894   4.654   2.728   1.696  0.0327  0.7399  0.2487
  973EOH      C 3895   4.662   2.636   1.587  0.7100 -0.2314  1.1096
  973EOH      C 3896   4.797   2.634   1.513  0.1136 -0.6040  0.0200
  973EOH      H 3897   4.695   2.690   1.773  1.5031 -1.3606 -1.5204
  974EOH      O 3898   1.467   3.909   3.909  0.1911  0.0121 -0.5275
  974EOH      C 3899   1.406   4.036   3.933  0.0552 -0.2203  0.3660
  974EOH      C 3900   1.449   4.073   4.076  0.4260 -0.1513  0.2373
  974EOH      H 3901   1.394   3.850   3.922 -1.1421  1.2234 -2.2068
  975EOH      O 3902   4.456   6.254   4.951 -0.0733  0.6117 -0.0444
  975EOH      C 3903   4.566   6.261   5.042 -0.1960 -0.0701  0.1545
  975EOH      C 3904   4.611   6.408   5.036 -0.2713 -0.0612 -0.2092
  975EOH      H 3905   4.406   6.176   4.968  1.7335 -0.8756 -1.4025
  976EOH      O 3906   0.814   2.838   5.334  0.0677 -0.1899 -0.3778
  976EOH      C 3907   0.736   2.957   5.341  0.3597  0.0045 -0.4253
  976EOH      C 3908   0.731   3.026   5.203 -0.2124  0.1616 -0.3276
  976EOH      H 3909   0.816   2.790   5.416  0.9992  0.7209  0.1534
  977EOH      O 3910   6.203   6.106   3.795  0.2863  0.2588 -0.0775
  977EOH      C 3911   6.126   5.987   3.779  0.1552  0.3496 -0.1308
  977EOH      C 3912   6.117   5.908   3.911 -0.2765  0.0676 -0.3274
  977EOH      H 3913   6.193   6.151   3.712  0.1343 -0.9468 -0.7107
  978EOH      O 3914   1.240   0.176   2.294  0.1340 -0.3628  0.5668
  978EOH      C 3915   1.221   0.042   2.340 -0.2876 -0.4682  0.0965
  978EOH      C 3916   1.145   0.067   2.472 -0.9373 -0.5072 -0.2685
  978EOH      H 3917   1.314   0.175   2.235 -0.2808  3.0316 -0.1398
  979EOH      O 3918   2.881   0.171   4.954 -0.4621  0.0900 -0.4735
  979EOH      C 3919   2.847   0.227   5.081 -0.4974 -0.5034 -0.2235
  979EOH      C 3920   2.906   0.138   5.192 -0.3676  0.1940  0.2724
  979EOH      H 3921   2.805   0.140   4.908  0.5410 -1.6177 -1.0166
  980EOH      O 3922   5.290   5.500   3.334 -0.4641  0.0932 -0.4188
  980EOH      C 3923   5.257   5.624   3.271 -0.3578  0.2832 -0.1080
  980EOH      C 3924   5.331   5.650   3.138 -0.3044  0.1219 -0.1098
  980EOH      H 3925   5.384   5.496   3.346 -0.3022  1.5918 -1.1012
  981EOH      O 3926   1.455   5.424   3.766 -0.0405 -0.5680  0.7039
  981EOH      C 3927   1.562   5.518   3.750 -0.1925 -0.5854 -0.4197
  981EOH      C 3928   1.641   5.530   3.881 -0.7649 -0.2199 -0.1086
  981EOH      H 3929   1.387   5.461   3.820  0.3143  0.0460  0.7415
  982EOH      O 3930   4.365   4.811   6.126 -0.1941  0.2722 -0.0696
  982EOH      C 3931   4.225   4.834   6.110 -0.2379  0.0600  0.0122
  982EOH      C 3932   4.181   4.981   6.104  0.6034  0.3072 -0.1509
  982EOH      H 3933   4.392   4.729   6.088 -1.8820 -0.8130  1.0343
  983EOH      O 3934   5.468   2.359   4.195 -0.5944 -0.2773  0.4844
  983EOH      C 3935   5.442   2.340   4.335  0.2615  0.4473  0.7459
  983EOH      C 3936   5.329   2.437   4.372 -0.1259  0.2488  0.0890
  983EOH      H 3937   5.391   2.346   4.143  0.9443  0.5007 -2.0490
  984EOH      O 3938   1.894   5.998   0.408 -0.3838 -0.0308 -0.0974
  984EOH      C 3939   1.953   6.028   0.535 -0.2338  0.3921 -0.2652
  984EOH      C 3940   2.103   6.021   0.501 -0.3576 -0.8583 -0.5738
  984EOH      H 3941   1.802   6.012   0.425 -0.5774 -0.9493 -0.3897
  985EOH      O 3942   2.498   1.959   1.327 -0.2578 -0.4532 -0.0985
  985EOH      C 3943   2.373   1.891   1.342 -0.2284 -0.6048 -0.5192
  985EOH      C 3944   2.258   1.990   1.365 -0.1183 -0.4817 -0.4925
  985EOH      H 3945   2.569   1.899   1.344  0.1367  0.2756  0.8048
  986EOH      O 3946   2.216   2.594   1.600  0.1341  0.0104 -0.2264
  986EOH      C 3947   2.114   2.507   1.650  0.2264  0.3231  0.5117
  986EOH      C 3948   2.169   2.376   1.710  0.2815  0.2520  0.3064
  986EOH      H 3949   2.267   2.552   1.532 -0.7841  0.5814 -1.2879
  987EOH      O 3950   2.602   4.546   2.932 -0.1933  0.6189 -0.3247
  987EOH      C 3951   2.544   4.594   3.053 -0.0214 -0.0649  0.0335
  987EOH      C 3952   2.414   4.518   3.086  0.1006 -0.3348 -0.1046
  987EOH      H 3953   2.682   4.593   2.911  0.2008  0.2548  0.3544
  988EOH      O 3954   1.298   5.306   2.107  0.0687 -0.0249 -0.1228
  988EOH      C 3955   1.381   5.278   2.220  0.1953  0.4319 -0.1001
  988EOH      C 3956   1.387   5.415   2.289  0.2746  0.0654  0.6195
  988EOH      H 3957   1.307   5.227   2.056 -0.9501 -1.4866  1.8995
  989EOH      O 3958   5.886   3.346   0.873 -0.7179  0.4548 -0.3250
  989EOH      C 3959   5.826   3.474   0.897 -0.0935  0.7269 -0.2110
  989EOH      C 3960   5.747   3.487   1.028 -0.1594  0.3331 -0.2106
  989EOH      H 3961   5.967   3.334   0.920 -1.4937 -0.1726  0.8585
  990EOH      O 3962   6.255   0.758   0.377  0.0666  0.0065  0.4953
  990EOH      C 3963   6.302   0.629   0.416  0.5895  0.0081 -0.1110
  990EOH      C 3964   6.422   0.660   0.508  0.2897  0.4700  0.1271
  990EOH      H 3965   6.223   0.801   0.454  0.0049  1.1270 -0.1419
  991EOH      O 3966   4.329   1.707   4.265 -0.2794  0.2265  0.3262
  991EOH      C 3967   4.267   1.835   4.252 -0.2334  0.1572 -0.6288
  991EOH      C 3968   4.287   1.906   4.387 -0.3776  0.1248 -0.5916
  991EOH      H 3969   4.405   1.726   4.318 -0.0686 -2.1711  0.9471
  992EOH      O 3970   1.773   5.426   0.825 -0.0377  0.3927 -0.1033
  992EOH      C 3971   1.876   5.330   0.850 -0.1530  0.2656 -0.1171
  992EOH      C 3972   1.962   5.312   0.724 -0.8383 -0.3304 -0.5066
  992EOH      H 3973   1.705   5.387   0.772 -1.7145 -1.0018  2.9472
  993EOH      O 3974   3.158   3.282   4.966  0.1617 -0.8210  0.2447
  993EOH      C 3975   3.245   3.296   5.079 -0.1915  0.2914  0.3861
  993EOH      C 3976   3.353   3.403   5.054  0.2142 -0.0964  0.4736
  993EOH      H 3977   3.079   3.233   4.985 -1.1420  1.4008  0.7494
  994EOH      O 3978   3.991   3.042   0.522  0.1390 -0.4444  0.0216
  994EOH      C 3979   3.922   3.091   0.638  0.0749 -0.3266 -0.0666
  994EOH      C 3980   3.989   3.030   0.762  0.1594  0.6991  0.4043
  994EOH      H 3981   3.960   3.082   0.442  0.5749 -1.7585 -0.8166
  995EOH      O 3982   1.694   0.156   3.228  0.2644 -0.4322 -0.4255
  995EOH      C 3983   1.810   0.137   3.309  0.2465  0.2371 -0.2417
  995EOH      C 3984   1.802   0.015   3.402 -0.1897  0.4009 -0.0600
  995EOH      H 3985   1.676   0.248   3.244 -1.2108 -0.6660 -0.6505
  996EOH      O 3986   4.639   4.413   3.452 -0.1668 -0.1171 -0.6216
  996EOH      C 3987   4.526   4.341   3.501  0.2502 -0.6999 -0.5164
  996EOH      C 3988   4.563   4.262   3.628 -0.5742  0.4131  0.4346
  996EOH      H 3989   4.709   4.398   3.513  0.5406  2.3213 -0.7679
  997EOH      O 3990   4.911   3.020   0.052 -0.2250 -0.1334 -0.2502
  997EOH      C 3991   4.890   2.938   0.167 -0.2700  0.1291 -0.0695
  997EOH      C 3992   4.845   2.791   0.149 -0.0987  0.1828 -0.9650
  997EOH      H 3993   4.988   3.072   0.069  2.2414 -3.5203 -0.5023
  998EOH      O 3994   2.529   3.713   0.351  0.2662  0.0195 -0.9470
  998EOH      C 3995   2.592   3.733   0.478 -0.3240 -0.5959 -0.5521
  998EOH      C 3996   2.638   3.876   0.513 -0.2372 -0.8098  0.2302
  998EOH      H 3997   2.602   3.677   0.302  0.7084  0.1758 -0.4180
  999EOH      O 3998   0.469   1.318   6.050 -0.2682 -0.3879 -0.1692
  999EOH      C 3999   0.376   1.264   6.144  0.3080 -0.2106  0.5066
  999EOH      C 4000   0.436   1.132   6.196 -0.1486 -0.7457 -0.3106
  999EOH      H 4001   0.420   1.391   6.015 -1.5904 -0.2495  1.8802
 1000EOH      O 4002   1.255   6.217   1.093 -0.1136 -0.1916  0.0699
 1000EOH      C 4003   1.388   6.170   1.117 -0.1831 -0.0482  0.7551
 1000EOH      C 4004   1.450   6.286   1.197  0.0780  0.3102  0.0368
 1000EOH      H 4005   1.208   6.228   1.174  1.8403  0.0332  1.2013
 1001EOH      O 4006   1.189   0.701   2.606 -0.2751  0.3778  0.0250
 1001EOH      C 4007   1.230   0.797   2.508  0.2394  0.0666 -0.0647
 1001EOH      C 4008   1.267   0.927   2.582 -0.4599  0.0511  0.3064
 1001EOH      H 4009   1.272   0.676   2.643  0.7021  2.1748 -0.8817
 1002EOH      O 4010   2.252   3.767   5.476 -0.0133 -0.0732  0.2446
 1002EOH      C 4011   2.218   3.779   5.338  0.0857 -0.0143  0.2244
 1002EOH      C 4012   2.072   3.730   5.321  0.1416 -0.1012 -0.0094
 1002EOH      H 4013   2.323   3.827   5.495 -0.9812  0.9720  0.5734
 1003EOH      O 4014   1.238   1.578   4.348  0.0566  0.7639 -0.2604
 1003EOH      C 4015   1.292   1.595   4.479 -0.0132 -0.1963 -0.1031
 1003EOH      C 4016   1.302   1.454   4.541  0.3429 -0.0804  0.1053
 1003EOH      H 4017   1.242   1.656   4.295 -0.2095  1.1289  0.2542
 1004EOH      O 4018   4.064   1.818   2.548 -0.3313 -0.1600 -0.6337
 1004EOH      C 4019   4.105   1.832   2.684 -0.0889  0.0308 -0.7254
 1004EOH      C 4020   4.232   1.916   2.708  0.1359 -0.3187 -0.6924
 1004EOH      H 4021   4.120   1.745   2.523 -1.8159 -0.8958 -1.9013
 1005EOH      O 4022   4.486   3.832   4.777  0.2716  0.3838  0.3632
 1005EOH      C 4023   4.424   3.905   4.883 -0.0808  0.1117  0.3483
 1005EOH      C 4024   4.296   3.976   4.835 -0.2193 -0.5542 -0.2780
 1005EOH      H 4025   4.580   3.835   4.787  0.2530  2.4980  0.0062
 1006EOH      O 4026   0.292   0.972   1.518 -0.0522  0.1095 -0.0700
 1006EOH      C 4027   0.370   1.085   1.560  0.3293 -0.2522  0.1977
 1006EOH      C 4028   0.442   1.167   1.451 -0.2564 -0.0466 -0.0389
 1006EOH      H 4029   0.352   0.900   1.531 -0.5202  0.0524  1.8056
 1007EOH      O 4030   0.095   4.531   1.281  0.0122 -0.1209  0.4069
 1007EOH      C 4031   0.016   4.464   1.380  0.2659 -0.5024  0.3530
 1007EOH      C 4032  -0.130   4.505   1.353  0.4106 -0.1226  0.1365
 1007EOH      H 4033   0.116   4.620   1.306  0.9427 -0.1930 -0.1015
 1008EOH      O 4034   5.575   2.006   0.120  0.2385  0.0109 -0.0571
 1008EOH      C 4035   5.605   2.145   0.125 -0.0556  0.0619  0.3529
 1008EOH      C 4036   5.721   2.173   0.026  0.0810  0.2263  0.5590
 1008EOH      H 4037   5.512   1.987   0.188 -2.1940 -1.8512 -2.7336
 1009EOH      O 4038   2.195   6.187   5.457 -0.0244  0.3042  0.3694
 1009EOH      C 4039   2.160   6.095   5.561 -0.0104  0.1095  0.2024
 1009EOH      C 4040   2.006   6.094   5.552 -0.0006 -0.3540  0.0335
 1009EOH      H 4041   2.285   6.171   5.433 -0.7196 -0.7479 -1.5656
 1010EOH      O 4042   2.054   6.044   2.245 -0.4485 -0.3046  0.3932
 1010EOH      C 4043   1.938   6.098   2.182 -0.1463 -0.3363 -0.1946
 1010EOH      C 4044   1.834   6.120   2.293  0.5229  0.5945  0.2504
 1010EOH      H 4045   2.120   6.035   2.177 -0.7192  1.7308 -0.1829
 1011EOH      O 4046   4.957   0.713   0.832  0.1251 -0.0147 -0.0653
 1011EOH      C 4047   4.817   0.694   0.809  0.2576 -0.2391 -0.6827
 1011EOH      C 4048   4.770   0.838   0.779  0.1141  0.0378  0.8442
 1011EOH      H 4049   5.002   0.736   0.752  3.1485 -0.3593  1.4890
 1012EOH      O 4050   5.550   2.974   5.487  0.3085  0.2431 -0.2008
 1012EOH      C 4051   5.415   3.020   5.468  0.0515 -0.4067  0.0463
 1012EOH      C 4052   5.393   3.070   5.324  0.3781 -0.5436 -0.0536
 1012EOH      H 4053   5.554   2.886   5.453  1.3683  0.3532 -0.3829
 1013EOH      O 4054   3.456   2.778   2.013 -0.2731  0.0556  0.4406
 1013EOH      C 4055   3.321   2.823   2.004 -0.3129 -0.0804  0.3649
 1013EOH      C 4056   3.312   2.972   2.039  0.0593  0.1489 -0.5001
 1013EOH      H 4057   3.487   2.797   2.101  1.5670 -1.9328  0.2760
 1014EOH      O 4058   1.836   2.947   5.746  0.2385  0.3624  0.0430
 1014EOH      C 4059   1.734   2.967   5.845  0.0282  0.3973 -0.1793
 1014EOH      C 4060   1.807   2.996   5.977 -0.0013  0.1464 -0.1060
 1014EOH      H 4061   1.795   2.935   5.661  0.1399 -0.4167  0.1976
 1015EOH      O 4062   4.161   5.657   5.279  0.2723  0.0551 -0.6905
 1015EOH      C 4063   4.275   5.724   5.332 -0.4465  0.4513  0.3734
 1015EOH      C 4064   4.369   5.641   5.421  0.1859  0.7925  0.0264
 1015EOH      H 4065   4.182   5.573   5.243 -1.0601 -1.3362  1.6728
 1016EOH      O 4066   0.848   5.159   1.348 -0.1470  0.1242  0.1777
 1016EOH      C 4067   0.960   5.242   1.376  0.0929  0.0515 -0.5455
 1016EOH      C 4068   1.082   5.173   1.313  0.3274 -0.1828  0.1652
 1016EOH      H 4069   0.837   5.150   1.254 -1.0542 -0.4365  0.3253
 1017EOH      O 4070   0.525   3.486   4.747  0.5155 -0.2211  0.4413
 1017EOH      C 4071   0.539   3.628   4.755 -0.1441 -0.1186 -0.1420
 1017EOH      C 4072   0.684   3.670   4.725  0.0509 -0.4539  0.3200
 1017EOH      H 4073   0.438   3.461   4.776 -0.1055  1.5090  0.1322
 1018EOH      O 4074   0.866   6.307   6.069 -0.0104 -0.3264  0.2796
 1018EOH      C 4075   0.813   6.434   6.028  0.2370 -0.3117  0.0034
 1018EOH      C 4076   0.804   6.533   6.146  0.5796 -0.1166 -0.1371
 1018EOH      H 4077   0.957   6.314   6.047  0.5313  0.2430  2.6257
 1019EOH      O 4078   2.263   4.732   3.981 -0.4164 -0.2261  0.2579
 1019EOH      C 4079   2.142   4.804   3.954 -0.1011  0.1129 -0.2651
 1019EOH      C 4080   2.079   4.730   3.834 -0.2135  0.0289 -0.1544
 1019EOH      H 4081   2.321   4.770   3.917  0.3676  0.0976  1.1402
 1020EOH      O 4082   3.405   2.180   3.465 -0.1169 -0.1690  0.2179
 1020EOH      C 4083   3.442   2.176   3.327 -0.0953 -0.1197  0.2220
 1020EOH      C 4084   3.590   2.217   3.313 -0.2269  0.0542 -0.6519
 1020EOH      H 4085   3.418   2.270   3.493  2.2025 -0.4039 -0.0071
 1021EOH      O 4086   2.149   3.170   0.780  0.4725 -0.4968 -0.1452
 1021EOH      C 4087   2.197   3.041   0.740  0.1543 -0.4429 -0.7059
 1021EOH      C 4088   2.106   2.921   0.771 -0.1314 -0.0693 -0.0868
 1021EOH      H 4089   2.216   3.234   0.762 -0.0310  0.5118  1.5122
 1022EOH      O 4090   5.694   3.429   3.256  0.1999  0.2413  0.3689
 1022EOH      C 4091   5.626   3.334   3.338  0.5274 -0.2307  0.0944
 1022EOH      C 4092   5.581   3.418   3.459 -0.1901 -0.0468 -0.2977
 1022EOH      H 4093   5.782   3.434   3.291  0.8024  2.1947 -1.2836
 1023EOH      O 4094   4.466   1.279   6.024 -0.1006 -0.0705 -0.4408
 1023EOH      C 4095   4.572   1.269   6.120 -0.3531  0.4880 -0.1025
 1023EOH      C 4096   4.534   1.384   6.215  0.1004 -0.1404  0.8406
 1023EOH      H 4097   4.478   1.364   5.985 -0.7536  0.9011  1.4210
 1024EOH      O 4098   6.302   1.171   3.812  0.0376 -0.1338  0.6746
 1024EOH      C 4099   6.249   1.282   3.886  0.2974 -0.0438  0.7244
 1024EOH      C 4100   6.255   1.406   3.795  0.0356 -0.2877  0.3746
 1024EOH      H 4101   6.391   1.186   3.784  0.7418 -2.0433  1.8038
 1025EOH      O 4102   5.881   5.261   4.601  0.1561 -0.4902  0.2826
 1025EOH      C 4103   5.878   5.401   4.632  0.3054 -0.4985  0.3306
 1025EOH      C 4104   5.762   5.463   4.552  1.3381  0.2751 -0.5768
 1025EOH      H 4105   5.808   5.214   4.638 -0.9775 -0.6887 -2.1123
 1026EOH      O 4106   0.348   4.419   1.258 -0.7098 -0.6289 -0.0639
 1026EOH      C 4107   0.403   4.335   1.156  0.1599 -0.1413 -0.0052
 1026EOH      C 4108   0.554   4.353   1.137  0.0423  0.6325 -0.1991
 1026EOH      H 4109   0.254   4.408   1.260 -0.6868 -0.6520  0.8389
 1027EOH      O 4110   6.006   5.906   4.616 -0.2398 -0.0798 -0.0974
 1027EOH      C 4111   6.117   5.855   4.690 -0.2249  0.3432  0.1767
 1027EOH      C 4112   6.089   5.711   4.737  1.1027 -0.0652 -0.2568
 1027EOH      H 4113   5.928   5.911   4.669  0.8761 -0.4526  1.6148
 1028EOH      O 4114   3.195   1.697   5.159 -0.3070  0.0786  0.0188
 1028EOH      C 4115   3.114   1.588   5.205  0.3900 -0.5244 -0.1717
 1028EOH      C 4116   3.149   1.564   5.353 -0.1545  0.8475  0.1821
 1028EOH      H 4117   3.144   1.753   5.103  1.0543 -0.1732 -1.5206
 1029EOH      O 4118   5.060   5.382   5.492  0.6932  0.2031  0.0472
 1029EOH      C 4119   5.079   5.272   5.580 -0.1780  0.2379  0.2766
 1029EOH      C 4120   5.226   5.228   5.567 -0.5454 -0.9248 -0.0676
 1029EOH      H 4121   5.140   5.433   5.498  2.2885 -2.4023  1.7143
 1030EOH      O 4122   5.249   3.679   1.498  0.4422  0.0557  0.5462
 1030EOH      C 4123   5.238   3.546   1.552 -0.2494 -0.1784 -0.1640
 1030EOH      C 4124   5.106   3.525   1.628 -0.3165  0.0664 -0.2105
 1030EOH      H 4125   5.176   3.687   1.439  1.1332 -1.7428 -0.5880
 1031EOH      O 4126   3.976   6.045   0.333  0.3599  0.0233  0.1923
 1031EOH      C 4127   4.095   6.124   0.337  0.1193  0.3767  0.3715
 1031EOH      C 4128   4.104   6.252   0.251  0.2253  0.3223  0.3010
 1031EOH      H 4129   3.995   5.977   0.271 -0.7798 -0.3679  0.2593
 1032EOH      O 4130   5.885   5.212   0.182 -0.3324 -0.1448 -0.3460
 1032EOH      C 4131   5.912   5.278   0.058  0.3310  0.2359  0.0026
 1032EOH      C 4132   5.807   5.215  -0.034  0.1487 -0.0996  0.4405
 1032EOH      H 4133   5.887   5.280   0.247 -2.1615  1.3160 -1.7601
 1033EOH      O 4134   1.290   5.134   0.377  0.3303 -0.1554  0.1401
 1033EOH      C 4135   1.204   5.242   0.340 -0.3393 -0.4505  0.8076
 1033EOH      C 4136   1.212   5.349   0.451  0.3179  0.5823 -0.2190
 1033EOH      H 4137   1.248   5.061   0.333 -1.6062  0.2720  1.2333
 1034EOH      O 4138   5.100   0.867   4.372  0.1880 -0.1936 -0.2134
 1034EOH      C 4139   4.992   0.903   4.286 -0.1910 -0.6628  0.0616
 1034EOH      C 4140   4.950   1.051   4.290  0.0449 -0.5690 -0.7221
 1034EOH      H 4141   5.073   0.780   4.397 -3.6099  0.8231 -0.5020
 1035EOH      O 4142   5.631   1.192   1.923  0.0480 -0.0179  0.2724
 1035EOH      C 4143   5.665   1.204   2.061  0.2636  0.4720  0.1769
 1035EOH      C 4144   5.539   1.175   2.145 -0.1119  0.3666 -0.4247
 1035EOH      H 4145   5.665   1.108   1.897  1.8178  0.5270  0.7712
 1036EOH      O 4146   6.141   2.535   1.267 -0.1308 -0.1293  0.0641
 1036EOH      C 4147   6.028   2.620   1.291  0.1747  0.3344 -0.1131
 1036EOH      C 4148   6.082   2.754   1.343 -0.5923  0.5788  0.0628
 1036EOH      H 4149   6.193   2.528   1.345  1.2895 -2.1317 -1.0358
 1037EOH      O 4150   2.779   6.106   1.014 -0.9475  0.0459 -0.0422
 1037EOH      C 4151   2.788   6.068   0.877  0.2654  0.1462  0.0023
 1037EOH      C 4152   2.923   6.120   0.823 -0.0020  0.0458 -0.7757
 1037EOH      H 4153   2.690   6.084   1.038 -0.3290 -2.9243 -0.2246
 1038EOH      O 4154   1.876   4.192   2.986  0.1378 -0.2793  0.2010
 1038EOH      C 4155   2.010   4.199   2.936  0.0719  0.4359  0.1207
 1038EOH      C 4156   2.024   4.340   2.875 -0.2594  0.1834 -0.5418
 1038EOH      H 4157   1.826   4.197   2.906 -1.4630  0.1663  1.2025
 1039EOH      O 4158   1.095   3.106   0.769 -0.1486 -0.1644  0.5327
 1039EOH      C 4159   1.102   3.247   0.793 -0.0598 -0.2023  0.7354
 1039EOH      C 4160   0.961   3.308   0.778  0.2636  0.4248  0.2138
 1039EOH      H 4161   1.176   3.066   0.797  0.0484 -0.7223 -0.8229
 1040EOH      O 4162   0.499   0.407   4.908  0.5488 -0.3214 -0.0039
 1040EOH      C 4163   0.484   0.290   4.827 -0.1375 -0.3225  0.1223
 1040EOH      C 4164   0.470   0.170   4.923 -0.2414 -0.4560 -0.0606
 1040EOH      H 4165   0.420   0.406   4.960  0.0489  1.5635 -0.7046
 1041EOH      O 4166   4.804   4.165   5.358 -0.3007 -0.0506  0.3729
 1041EOH      C 4167   4.928   4.155   5.428 -0.0182  0.2659 -0.0841
 1041EOH      C 4168   5.037   4.127   5.323 -0.0988 -0.4095  0.0105
 1041EOH      H 4169   4.743   4.193   5.425 -0.5832 -0.9224  0.4927
 1042EOH      O 4170   5.023   1.794   2.777 -0.0063 -0.5031  0.3826
 1042EOH      C 4171   4.998   1.706   2.667 -0.4974 -0.2499  0.2903
 1042EOH      C 4172   4.893   1.754   2.564 -0.3629 -0.0951  0.2243
 1042EOH      H 4173   4.995   1.749   2.855  1.6653 -0.8958  0.7692
 1043EOH      O 4174   3.526   3.237   5.764  0.0876  0.4213 -0.1145
 1043EOH      C 4175   3.646   3.246   5.842 -0.0721 -0.3817  0.2293
 1043EOH      C 4176   3.765   3.270   5.748 -0.2779  0.9422  0.2950
 1043EOH      H 4177   3.502   3.326   5.742  1.0307  1.3657  2.4823
 1044EOH      O 4178   5.304   3.997   3.963 -0.3141  0.4606  0.5540
 1044EOH      C 4179   5.215   4.107   3.942 -0.5719  0.0419 -0.5981
 1044EOH      C 4180   5.285   4.235   3.896 -0.0155 -0.0708 -0.0704
 1044EOH      H 4181   5.339   4.010   4.050 -0.8545  2.0721  0.5548
 1045EOH      O 4182   3.723   4.763   3.520 -0.3336  0.4680  0.4989
 1045EOH      C 4183   3.842   4.836   3.551 -0.0987  0.3822 -0.1817
 1045EOH      C 4184   3.915   4.737   3.643 -0.4448  0.1775 -0.1237
 1045EOH      H 4185   3.699   4.767   3.429  0.6162 -3.7899 -0.0548
 1046EOH      O 4186   1.141   0.786   1.862  0.0445  0.0929 -0.4140
 1046EOH      C 4187   1.035   0.775   1.958  0.2435  0.0250 -0.2031
 1046EOH      C 4188   1.077   0.819   2.100 -0.1804  0.1463 -0.1159
 1046EOH      H 4189   1.101   0.814   1.782  1.3722 -0.6665 -1.3559
 1047EOH      O 4190   1.581   6.238   4.447  0.0041 -0.6983 -0.3898
 1047EOH      C 4191   1.586   6.213   4.587 -0.0085  0.1868 -0.2322
 1047EOH      C 4192   1.731   6.234   4.633 -0.0757 -0.5672  0.3431
 1047EOH      H 4193   1.508   6.192   4.407 -0.5208  0.1578 -0.4431
 1048EOH      O 4194   6.081   5.619   2.803  0.2349 -0.0366  0.1070
 1048EOH      C 4195   5.949   5.569   2.785  0.1907  0.0653  0.1534
 1048EOH      C 4196   5.987   5.424   2.747  0.0634  0.0820 -0.0389
 1048EOH      H 4197   6.108   5.589   2.889 -1.1764  0.6270  0.8029
 1049EOH      O 4198   3.834   0.592   1.091 -0.6090 -0.1061  0.0260
 1049EOH      C 4199   3.700   0.622   1.049 -0.5033 -0.1348 -0.3332
 1049EOH      C 4200   3.697   0.634   0.895  0.5344  0.7053 -0.2998
 1049EOH      H 4201   3.862   0.676   1.124 -2.0699  0.3721  0.0872
 1050EOH      O 4202   1.835   0.372   0.947  0.4343 -0.0103 -0.2891
 1050EOH      C 4203   1.734   0.373   0.845  0.0198 -0.1783  0.1127
 1050EOH      C 4204   1.793   0.299   0.723  0.2642  0.7697 -0.3481
 1050EOH      H 4205   1.914   0.414   0.919 -0.2189 -0.2366 -2.5827
 1051EOH      O 4206   2.982   1.767   5.874 -0.4003 -0.8816 -0.0917
 1051EOH      C 4207   2.995   1.771   5.732 -0.2684 -0.4541 -0.0664
 1051EOH      C 4208   2.852   1.787   5.678 -0.0112  0.1428 -0.5784
 1051EOH      H 4209   2.910   1.823   5.897  0.2009 -0.3916  0.6360
 1052EOH      O 4210   1.542   5.548   1.820  0.1305  0.0969 -0.0300
 1052EOH      C 4211   1.545   5.630   1.703  0.0335 -0.2068 -0.2438
 1052EOH      C 4212   1.604   5.763   1.753 -0.3997 -0.3742  0.7070
 1052EOH      H 4213   1.456   5.550   1.860  0.5555  0.7507  0.8717
 1053EOH      O 4214   0.903   0.160   2.008  0.0947  0.2047 -0.2843
 1053EOH      C 4215   0.837   0.075   2.103  0.1740  0.3399 -0.1080
 1053EOH      C 4216   0.786  -0.054   2.037  0.2564  0.0727  0.3492
 1053EOH      H 4217   0.977   0.201   2.050 -0.0354  0.5601 -0.4045
 1054EOH      O 4218   4.190   1.748   0.567 -0.1580 -0.0853 -0.1041
 1054EOH      C 4219   4.277   1.860   0.552 -0.4248  0.0937 -0.3245
 1054EOH      C 4220   4.411   1.802   0.503 -0.5592 -0.4715 -0.0299
 1054EOH      H 4221   4.102   1.776   0.591 -0.8612 -2.4334  0.1949
 1055EOH      O 4222   0.283   2.589   3.868  0.4263  0.0682 -0.3683
 1055EOH      C 4223   0.370   2.476   3.854  0.2080 -0.0522 -0.7437
 1055EOH      C 4224   0.510   2.515   3.803  0.3433  0.4612  0.0179
 1055EOH      H 4225   0.201   2.558   3.904 -1.4216 -0.4373 -4.6610
 1056EOH      O 4226   6.024   6.158   0.239  0.1255 -0.4070  0.1867
 1056EOH      C 4227   6.125   6.149   0.340  0.4042  0.4677 -0.0036
 1056EOH      C 4228   6.138   6.004   0.392  0.4300  0.1672 -0.8344
 1056EOH      H 4229   5.971   6.236   0.250  0.7645  0.2119 -0.9842
 1057EOH      O 4230   5.204   3.580   4.935  0.0743 -0.2337 -0.2427
 1057EOH      C 4231   5.332   3.618   4.885  0.0551 -0.1491 -0.2290
 1057EOH      C 4232   5.331   3.584   4.735 -0.1250 -0.1215 -0.2338
 1057EOH      H 4233   5.207   3.596   5.028 -0.2631  1.0807 -0.4476
 1058EOH      O 4234   6.268   1.679   2.725  0.5572 -0.0268  0.3437
 1058EOH      C 4235   6.253   1.810   2.670  0.5799 -0.0111  0.3743
 1058EOH      C 4236   6.174   1.882   2.781 -0.1198 -0.2257  0.0172
 1058EOH      H 4237   6.186   1.632   2.728  0.2736  0.5180  1.0857
 1059EOH      O 4238   6.192   0.468   6.031 -0.1513 -0.0930  0.7065
 1059EOH      C 4239   6.274   0.583   6.053 -0.2811  0.0551  0.4212
 1059EOH      C 4240   6.424   0.552   6.031 -0.0906  1.0235  0.3340
 1059EOH      H 4241   6.231   0.386   6.057  3.4604  0.5865 -2.0583
 1060EOH      O 4242   1.564   0.957   3.107 -0.2633  0.4868  0.3832
 1060EOH      C 4243   1.690   0.898   3.143 -0.3955 -0.4499 -0.6388
 1060EOH      C 4244   1.778   0.918   3.019 -0.4400  0.3914 -0.5425
 1060EOH      H 4245   1.497   0.931   3.168  0.3728  0.1329  0.9405
 1061EOH      O 4246   2.758   4.403   1.862 -0.3968  0.4832 -0.2219
 1061EOH      C 4247   2.824   4.284   1.907 -0.3801  0.4192 -0.4154
 1061EOH      C 4248   2.835   4.302   2.059  0.1015  0.3660 -0.4449
 1061EOH      H 4249   2.808   4.475   1.898  0.6378 -0.2976 -0.0652
 1062EOH      O 4250   5.573   2.687   2.425 -0.6314  0.2718 -0.2676
 1062EOH      C 4251   5.695   2.762   2.421 -0.3944 -0.0898  0.1238
 1062EOH      C 4252   5.802   2.680   2.346 -0.5904  0.3138 -0.5982
 1062EOH      H 4253   5.508   2.748   2.455  0.0538  1.2686 -0.7925
 1063EOH      O 4254   1.377   2.647   6.007  0.3139 -0.1985 -0.1845
 1063EOH      C 4255   1.375   2.789   5.988  0.4534 -0.1471  0.1779
 1063EOH      C 4256   1.328   2.813   5.844 -0.1078  0.3729  0.4467
 1063EOH      H 4257   1.311   2.624   6.071  2.0688  0.0140  1.7877
 1064EOH      O 4258   1.783   4.639   0.333 -0.2604  0.7416 -0.2360
 1064EOH      C 4259   1.640   4.624   0.340 -0.1265 -0.2965  0.3394
 1064EOH      C 4260   1.571   4.572   0.213 -0.8005 -0.0518  0.6040
 1064EOH      H 4261   1.822   4.554   0.344 -0.7465  0.8058  2.1189
 1065EOH      O 4262   2.626   1.537   3.410  0.4044 -0.5534  0.9978
 1065EOH      C 4263   2.512   1.465   3.363  0.3506  0.1161  0.0891
 1065EOH      C 4264   2.556   1.391   3.235  0.3534 -0.2830  0.3202
 1065EOH      H 4265   2.683   1.480   3.460  0.6316  1.7530  3.4991
 1066EOH      O 4266   2.904   5.758   0.972 -0.1459  0.3500  0.1179
 1066EOH      C 4267   2.985   5.642   0.990  0.0085  0.5191  0.4996
 1066EOH      C 4268   3.136   5.670   1.003  0.1430 -0.0727  0.2557
 1066EOH      H 4269   2.902   5.797   1.058  1.3554  1.1883 -0.2196
 1067EOH      O 4270   1.778   0.579   4.718 -0.2668 -0.3742  0.1103
 1067EOH      C 4271   1.641   0.616   4.725 -0.2283 -0.3557  0.7715
 1067EOH      C 4272   1.567   0.489   4.679 -0.1862  0.0773 -0.5161
 1067EOH      H 4273   1.832   0.656   4.729  0.4187 -0.8375  0.0692
 1068EOH      O 4274   4.905   1.625   2.979 -0.2690  0.7079  0.0870
 1068EOH      C 4275   4.859   1.662   3.110 -0.3151 -0.4299  0.3996
 1068EOH      C 4276   4.989   1.700   3.183 -0.1256  0.1996 -0.2522
 1068EOH      H 4277   4.936   1.536   2.984  1.8444  1.4307  0.0838
 1069EOH      O 4278   0.638   2.910   0.431 -0.0951 -0.1951  0.0890
 1069EOH      C 4279   0.546   3.000   0.368 -0.2243 -0.2036  0.2649
 1069EOH      C 4280   0.506   2.933   0.235  0.3466 -0.4545  0.2178
 1069EOH      H 4281   0.608   2.820   0.421 -0.2495 -0.0408 -0.8612
 1070EOH      O 4282   2.441   2.204   5.144 -0.0607 -0.2888 -0.3897
 1070EOH      C 4283   2.401   2.091   5.222  0.0497  0.0076  0.0944
 1070EOH      C 4284   2.295   2.021   5.135 -0.3287  0.0356  0.5317
 1070EOH      H 4285   2.364   2.259   5.139  0.7500  0.9331  0.3288
 1071EOH      O 4286   3.934   2.741   3.653 -0.1013 -0.2931 -0.7063
 1071EOH      C 4287   3.969   2.878   3.673 -0.0596 -0.4236  0.1488
 1071EOH      C 4288   4.119   2.901   3.648 -0.2426  0.4410 -0.1634
 1071EOH      H 4289   3.975   2.684   3.717 -0.8015  0.1156  0.1284
 1072EOH      O 4290   0.333   1.457   1.935 -0.6458 -0.1258  0.2251
 1072EOH      C 4291   0.318   1.331   1.869 -0.1207 -0.2331  0.3089
 1072EOH      C 4292   0.424   1.241   1.935  0.3161  0.2066  0.2126
 1072EOH      H 4293   0.385   1.510   1.877 -1.2481 -0.7119 -0.8669
 1073EOH      O 4294   1.248   0.220   0.468 -0.1372 -0.7257 -0.2614
 1073EOH      C 4295   1.353   0.185   0.378  0.3997 -0.3570  0.2159
 1073EOH      C 4296   1.484   0.258   0.416  0.5015 -0.2283 -0.3763
 1073EOH      H 4297   1.236   0.150   0.531  2.4887 -0.6265  0.4328
 1074EOH      O 4298   0.542   0.864   2.276  0.3729 -0.4501  0.1515
 1074EOH      C 4299   0.577   0.962   2.374 -0.0104 -0.1149 -0.0444
 1074EOH      C 4300   0.727   0.974   2.404 -0.2198  0.8318  0.6455
 1074EOH      H 4301   0.549   0.782   2.324 -1.2083 -0.3406  0.6195
 1075EOH      O 4302   4.511   4.876   0.012  1.0070 -0.4220  0.2936
 1075EOH      C 4303   4.596   4.990  -0.007  0.3737 -0.0869 -0.5818
 1075EOH      C 4304   4.519   5.117  -0.046 -0.1731 -0.3229 -0.2743
 1075EOH      H 4305   4.455   4.860  -0.062  1.4020 -0.3373 -0.0249
 1076EOH      O 4306   1.862   2.352   6.157  0.0387  0.1195  0.1975
 1076EOH      C 4307   1.819   2.223   6.204  0.5370 -0.3306 -0.5763
 1076EOH      C 4308   1.934   2.148   6.274  0.2802 -0.8861 -0.7441
 1076EOH      H 4309   1.802   2.392   6.096 -0.9124 -0.1792  0.9303
 1077EOH      O 4310   5.078   1.442   1.853 -0.3081 -0.0585  0.3858
 1077EOH      C 4311   4.961   1.461   1.774 -0.3030  0.0931  0.4148
 1077EOH      C 4312   5.005   1.527   1.642 -0.9746  0.0671  0.1737
 1077EOH      H 4313   5.092   1.349   1.860 -0.6781 -0.0106  2.0390
 1078EOH      O 4314   2.022   4.457   5.111  0.3962  0.2348 -0.3723
 1078EOH      C 4315   2.144   4.507   5.057  0.5440  0.2265 -0.0440
 1078EOH      C 4316   2.147   4.458   4.911 -0.3554  0.0985 -0.0221
 1078EOH      H 4317   2.018   4.363   5.107 -0.0452  0.2319  0.1450
 1079EOH      O 4318   3.169   5.866   4.496 -0.1865  0.0437 -0.1000
 1079EOH      C 4319   3.182   5.735   4.439 -0.3177 -0.0825  0.1622
 1079EOH      C 4320   3.237   5.768   4.300 -0.1022  0.2183  0.3190
 1079EOH      H 4321   3.249   5.916   4.499 -0.5825  0.6007  2.2768
 1080EOH      O 4322   2.444   4.853   3.850  0.5890 -0.0610  0.1718
 1080EOH      C 4323   2.531   4.944   3.918  0.3609 -0.1001  0.5186
 1080EOH      C 4324   2.602   5.048   3.829 -0.0280 -0.2081  0.0798
 1080EOH      H 4325   2.480   4.831   3.765  1.6852 -1.4461  0.9759
 1081EOH      O 4326   0.643   6.058   3.934 -0.3952  0.0743 -0.4508
 1081EOH      C 4327   0.696   5.956   3.850  0.5712  0.1151  0.0923
 1081EOH      C 4328   0.691   5.990   3.700  0.2304 -0.3084  0.0060
 1081EOH      H 4329   0.551   6.062   3.915 -0.3920  3.0769 -0.1331
 1082EOH      O 4330   5.143   5.015   2.871  0.7482 -0.4194 -0.2541
 1082EOH      C 4331   5.095   4.911   2.957 -0.3150  0.1278 -0.1783
 1082EOH      C 4332   4.957   4.860   2.910 -0.1993  0.0451 -0.4268
 1082EOH      H 4333   5.090   5.092   2.878  0.9677 -0.2121 -0.8955
 1083EOH      O 4334   3.258   0.627   5.052  0.2366  0.2235 -0.3504
 1083EOH      C 4335   3.213   0.565   5.172 -0.0455  0.4431 -0.3403
 1083EOH      C 4336   3.299   0.591   5.298  0.0754  0.3742 -0.4095
 1083EOH      H 4337   3.223   0.570   4.984  0.1361  1.8447 -1.6875
 1084EOH      O 4338   5.572   3.740   3.808 -0.7206  0.0363 -0.0762
 1084EOH      C 4339   5.591   3.739   3.666 -0.3331 -0.2660 -0.0214
 1084EOH      C 4340   5.529   3.867   3.608  0.1877  0.1212  0.2657
 1084EOH      H 4341   5.478   3.745   3.816 -1.0157  4.2766 -3.7662
 1085EOH      O 4342   3.090   5.793   0.372  0.0229 -0.5021 -0.0379
 1085EOH      C 4343   3.065   5.657   0.409  0.0068 -0.5023 -0.0477
 1085EOH      C 4344   3.104   5.663   0.558  0.9455 -0.0805 -0.3090
 1085EOH      H 4345   3.006   5.834   0.388 -0.1329 -1.4044  1.6666
 1086EOH      O 4346   0.294   1.468   0.684  0.8697  0.2672  0.0633
 1086EOH      C 4347   0.315   1.341   0.621  0.1197  0.0679  0.2062
 1086EOH      C 4348   0.287   1.220   0.712 -0.1107 -0.0415 -0.0117
 1086EOH      H 4349   0.311   1.529   0.614  0.7136 -0.0667 -0.2680
 1087EOH      O 4350   4.102   1.489   1.237 -0.1682 -0.1710 -0.5864
 1087EOH      C 4351   4.014   1.391   1.182 -0.4107 -0.2381 -0.0842
 1087EOH      C 4352   4.087   1.258   1.156  0.2295  0.0466  0.2343
 1087EOH      H 4353   4.082   1.506   1.328 -1.2459  0.4131 -0.9237
 1088EOH      O 4354   3.290   1.028   2.327  0.0111  0.0744  0.3676
 1088EOH      C 4355   3.317   0.890   2.304  0.3865  0.2008  0.0283
 1088EOH      C 4356   3.424   0.835   2.401  0.0263 -0.1482  0.2313
 1088EOH      H 4357   3.197   1.034   2.343  0.2121  0.8032  1.2732
 1089EOH      O 4358   2.479   1.624   0.530 -0.0648  0.1263  0.5044
 1089EOH      C 4359   2.414   1.737   0.472 -0.1317 -0.1572  0.0304
 1089EOH      C 4360   2.466   1.734   0.326  0.7207  0.0463  0.3262
 1089EOH      H 4361   2.430   1.545   0.514  3.4418 -2.2929  1.0096
 1090EOH      O 4362   2.055   1.127   2.133 -0.4762  0.2478  0.1268
 1090EOH      C 4363   2.146   1.042   2.063 -0.4253  0.9343 -0.6439
 1090EOH      C 4364   2.062   0.940   1.984  0.2184  0.0673 -0.2116
 1090EOH      H 4365   1.987   1.080   2.178 -0.5235  0.8755  0.7235
 1091EOH      O 4366   2.829   5.734   4.373 -0.1171  0.2540  0.1501
 1091EOH      C 4367   2.806   5.818   4.259 -0.3016  0.3888  0.2853
 1091EOH      C 4368   2.662   5.806   4.208 -0.3364  0.2697  0.4117
 1091EOH      H 4369   2.866   5.792   4.438 -0.5105  0.8521 -0.1548
 1092EOH      O 4370   0.393   3.497   5.666  0.3560 -0.1900  0.1923
 1092EOH      C 4371   0.374   3.394   5.762  0.0046 -0.2943  0.0140
 1092EOH      C 4372   0.301   3.452   5.884  0.5101  0.3148  0.0289
 1092EOH      H 4373   0.453   3.470   5.598  1.7105  2.8752  0.0582
 1093EOH      O 4374   0.101   1.681   2.948  0.1668  0.0114  0.3724
 1093EOH      C 4375   0.234   1.734   2.944  0.1031  0.1304 -0.1481
 1093EOH      C 4376   0.226   1.887   2.957  0.1349  0.1361 -0.1949
 1093EOH      H 4377   0.059   1.686   2.864 -0.1979 -1.0975  0.4773
 1094EOH      O 4378   3.926   1.662   5.141  0.5507  0.1602 -0.5246
 1094EOH      C 4379   3.948   1.712   5.273  0.3137 -0.3224 -0.3017
 1094EOH      C 4380   4.055   1.636   5.353 -0.3481 -0.4432  0.4813
 1094EOH      H 4381   3.968   1.723   5.082 -1.2616 -0.5316 -2.5929
 1095EOH      O 4382   5.489   5.347   1.155 -0.5109 -0.3295 -0.0269
 1095EOH      C 4383   5.391   5.418   1.079 -0.4711 -0.3029 -0.0514
 1095EOH      C 4384   5.250   5.361   1.099 -0.3302 -0.4989  0.4023
 1095EOH      H 4385   5.570   5.394   1.148 -0.3399 -0.7613 -0.9463
 1096EOH      O 4386   2.868   1.792   2.876  0.2212 -0.4213 -0.0996
 1096EOH      C 4387   2.806   1.810   3.004  0.4278 -0.3949 -0.0036
 1096EOH      C 4388   2.837   1.720   3.125  0.3687 -0.0059  0.3024
 1096EOH      H 4389   2.958   1.772   2.898  0.4532  0.6664 -0.0002
 1097EOH      O 4390   0.792   4.813   5.677 -0.1753  0.0900  0.0681
 1097EOH      C 4391   0.916   4.883   5.694 -0.0448 -0.0444 -0.3224
 1097EOH      C 4392   0.967   4.924   5.555  0.7542 -0.2881 -0.1044
 1097EOH      H 4393   0.723   4.855   5.727  0.9224 -0.2360  1.8908
 1098EOH      O 4394   5.617   0.080   3.795  0.0530  0.1722  0.4019
 1098EOH      C 4395   5.754   0.106   3.825  0.1640 -0.3385  0.3293
 1098EOH      C 4396   5.834  -0.016   3.876  0.0546 -0.7700 -0.5254
 1098EOH      H 4397   5.570   0.113   3.870  2.6338 -0.5153  2.4021
 1099EOH      O 4398   0.358   3.741   4.314  0.0097  0.0931 -0.0291
 1099EOH      C 4399   0.359   3.684   4.445 -0.1440  0.2565  0.0439
 1099EOH      C 4400   0.236   3.595   4.473  0.2562 -0.4524 -0.4201
 1099EOH      H 4401   0.442   3.731   4.270 -1.4588  0.6514 -3.0967
 1100EOH      O 4402   2.018   0.532   2.741  0.3041 -0.2239 -0.3785
 1100EOH      C 4403   1.890   0.494   2.792  0.2563 -0.0298 -0.3523
 1100EOH      C 4404   1.903   0.411   2.921  0.5425 -0.3424 -0.5812
 1100EOH      H 4405   2.055   0.454   2.702 -2.5437 -0.5285 -2.6572
 1101EOH      O 4406   5.423   1.572   4.235 -0.8206  0.1090 -0.2091
 1101EOH      C 4407   5.469   1.507   4.115  0.6529 -0.2627  0.5370
 1101EOH      C 4408   5.589   1.590   4.067 -0.1168 -0.0531 -1.0499
 1101EOH      H 4409   5.378   1.500   4.276 -2.0234  1.8749  1.5988
 1102EOH      O 4410   3.305   1.796   0.978 -0.4767 -0.3541 -0.0438
 1102EOH      C 4411   3.202   1.799   1.077 -0.2559  0.2849  0.1754
 1102EOH      C 4412   3.065   1.761   1.017  0.2297  0.0840 -0.8127
 1102EOH      H 4413   3.384   1.813   1.028 -0.1870 -0.7018 -0.3822
 1103EOH      O 4414   0.740   3.449   5.169  0.4045  0.1371  0.1275
 1103EOH      C 4415   0.858   3.432   5.091  0.4097  0.0021  0.1642
 1103EOH      C 4416   0.862   3.324   4.981  0.4279 -0.1457  0.3116
 1103EOH      H 4417   0.696   3.525   5.133  0.0671 -0.5166 -0.8783
 1104EOH      O 4418   6.206   0.185   1.902  0.1334 -0.3817 -0.3261
 1104EOH      C 4419   6.299   0.246   1.991  0.2060 -0.2584 -0.4863
 1104EOH      C 4420   6.427   0.163   2.012  0.1264 -0.1492  0.4690
 1104EOH      H 4421   6.123   0.230   1.910  0.8152  0.3534  3.6827
 1105EOH      O 4422   0.770   4.448   4.700  0.0552 -0.3768  0.6642
 1105EOH      C 4423   0.913   4.452   4.701  0.0518 -0.1388  0.0673
 1105EOH      C 4424   0.968   4.438   4.558 -0.7060  0.1468 -0.2569
 1105EOH      H 4425   0.736   4.447   4.788 -1.6689 -1.5052  0.0111
 1106EOH      O 4426   2.381   3.900   2.215 -0.0332  0.3688 -0.3415
 1106EOH      C 4427   2.413   4.015   2.293  0.0146  0.1205  0.0065
 1106EOH      C 4428   2.471   4.124   2.201  0.2619 -0.4796 -0.5538
 1106EOH      H 4429   2.287   3.895   2.202 -0.2833  1.0013  1.1748
 1107EOH      O 4430   4.792   4.849   1.178  0.0429  0.2174 -0.2097
 1107EOH      C 4431   4.710   4.733   1.174  0.4718 -0.0834 -0.2989
 1107EOH      C 4432   4.607   4.745   1.060  0.4676 -0.6599 -0.3568
 1107EOH      H 4433   4.753   4.927   1.141  2.0736  1.6176  0.5018
 1108EOH      O 4434   2.653   2.285   3.570 -0.1938 -0.6446 -0.5951
 1108EOH      C 4435   2.561   2.358   3.489 -0.0575 -0.1562 -0.3114
 1108EOH      C 4436   2.422   2.315   3.540  0.1176 -0.6799 -0.2794
 1108EOH      H 4437   2.730   2.274   3.515 -1.1949  0.6506 -2.3176
 1109EOH      O 4438   2.741   5.412   6.290 -0.1316 -0.3494  0.2737
 1109EOH      C 4439   2.783   5.299   6.212 -0.1488  0.6145 -1.1434
 1109EOH      C 4440   2.931   5.334   6.186  0.2416  0.0591  0.3127
 1109EOH      H 4441   2.690   5.370   6.358  0.0509  0.5399  0.9625
 1110EOH      O 4442   2.540   3.389   1.841 -0.2029  0.2860  0.5301
 1110EOH      C 4443   2.519   3.320   1.964  0.0832 -0.2856  0.2656
 1110EOH      C 4444   2.375   3.344   2.014 -0.0467 -0.4481 -0.0327
 1110EOH      H 4445   2.631   3.377   1.818 -0.4009  0.9159 -0.6288
 1111EOH      O 4446   4.380   0.917   0.085 -0.2800  0.5054  0.0372
 1111EOH      C 4447   4.294   1.031   0.070 -0.0919  0.6633  0.1568
 1111EOH      C 4448   4.151   0.988   0.032  0.1698 -0.2679  0.2002
 1111EOH      H 4449   4.334   0.846   0.044  0.4780 -0.7632  1.3520
 1112EOH      O 4450   1.918   4.241   5.887 -0.4261  0.1061  0.0652
 1112EOH      C 4451   1.845   4.342   5.817  0.5183  0.7747  0.0404
 1112EOH      C 4452   1.861   4.477   5.889  0.3252  0.6119  0.3899
 1112EOH      H 4453   1.974   4.281   5.952 -2.4412  2.6494  0.3387
 1113EOH      O 4454   2.904   0.523   3.155  0.3301  0.2173  0.2782
 1113EOH      C 4455   2.762   0.531   3.170  0.2377 -0.5188 -0.1866
 1113EOH      C 4456   2.687   0.399   3.147 -0.1565 -0.3646  0.2124
 1113EOH      H 4457   2.936   0.492   3.238  2.3820  0.9825 -0.1928
 1114EOH      O 4458   0.085   0.588   3.151  0.3558 -0.4105  0.4385
 1114EOH      C 4459   0.156   0.604   3.028 -0.3796 -0.1470  0.0446
 1114EOH      C 4460   0.165   0.467   2.959 -0.3417 -0.1824  0.1187
 1114EOH      H 4461   0.127   0.651   3.208  0.0447  1.0114 -0.8615
 1115EOH      O 4462   4.170   0.620   4.780 -0.2424  0.3606  0.0367
 1115EOH      C 4463   4.040   0.562   4.797 -0.0591 -0.0077  0.1774
 1115EOH      C 4464   4.006   0.483   4.669  0.0013  0.0806  0.1070
 1115EOH      H 4465   4.156   0.705   4.742  0.4656  0.3693 -0.2051
 1116EOH      O 4466   4.453   4.411   2.570 -0.6616  0.4989  0.0464
 1116EOH      C 4467   4.434   4.270   2.575  0.0343  0.3923 -0.2837
 1116EOH      C 4468   4.489   4.215   2.707  0.1733  0.5561 -0.2746
 1116EOH      H 4469   4.383   4.450   2.621 -1.9583  0.1373 -1.4250
 1117EOH      O 4470   5.210   3.834   6.146 -0.0287  0.1602  0.5271
 1117EOH      C 4471   5.101   3.856   6.055  0.4233  0.0456 -0.0423
 1117EOH      C 4472   5.104   3.987   5.975 -1.2000  0.1263  0.0284
 1117EOH      H 4473   5.286   3.849   6.092 -0.9591 -2.3408 -1.5559
 1118EOH      O 4474   5.696   4.315   3.615 -0.0639  0.2654 -0.0996
 1118EOH      C 4475   5.620   4.342   3.733  0.2385  0.0240  0.1493
 1118EOH      C 4476   5.542   4.471   3.703 -0.0318 -0.1877 -0.0612
 1118EOH      H 4477   5.786   4.309   3.641 -0.9399  1.3295  3.4491
 1119EOH      O 4478   3.902   0.572   5.849  0.2232  0.3025 -0.1426
 1119EOH      C 4479   3.976   0.594   5.729  0.2670 -0.1595 -0.2012
 1119EOH      C 4480   3.959   0.744   5.697 -0.2517 -0.0706  0.4832
 1119EOH      H 4481   3.813   0.549   5.829  0.9581 -2.8368 -0.0500
 1120EOH      O 4482   2.697   1.108   0.804 -0.3109 -0.2032  0.0157
 1120EOH      C 4483   2.800   1.117   0.705 -0.4886  0.3720 -0.1190
 1120EOH      C 4484   2.897   1.225   0.759 -0.4111  0.4482 -0.4108
 1120EOH      H 4485   2.655   1.024   0.797  1.0899 -1.2999  3.7908
 1121EOH      O 4486   3.513   2.643   6.269  0.5860 -0.4277 -0.0728
 1121EOH      C 4487   3.465   2.539   6.182  0.2520  0.1329 -0.5584
 1121EOH      C 4488   3.462   2.577   6.033 -0.5725  0.0254 -0.5735
 1121EOH      H 4489   3.510   2.608   6.356  0.0481 -0.5413 -0.1340
 1122EOH      O 4490   3.407   3.316   3.268 -0.2151  0.2453  0.0344
 1122EOH      C 4491   3.425   3.453   3.232  0.7079  0.1075 -0.0378
 1122EOH      C 4492   3.534   3.505   3.328  0.0578  0.4744  0.5078
 1122EOH      H 4493   3.316   3.295   3.255 -0.2537  0.0602  0.5946
 1123EOH      O 4494   5.444   0.567   2.621 -0.4247  0.1434 -0.0589
 1123EOH      C 4495   5.541   0.462   2.607 -0.3988  0.1050  0.3935
 1123EOH      C 4496   5.535   0.377   2.734  0.3993 -0.0452  0.3356
 1123EOH      H 4497   5.493   0.647   2.612 -1.3941  0.5732 -1.8033
 1124EOH      O 4498   5.272   4.667   6.262  0.3973 -0.0712  0.9312
 1124EOH      C 4499   5.196   4.787   6.285  0.3007 -0.0301  0.4097
 1124EOH      C 4500   5.052   4.791   6.231  0.4651  0.6573  0.0234
 1124EOH      H 4501   5.244   4.638   6.176  2.6439  0.1805  0.0934
 1125EOH      O 4502   4.030   0.425   6.011 -0.1498 -0.4218 -0.4325
 1125EOH      C 4503   3.937   0.366   6.103  0.1582 -0.3431 -0.0725
 1125EOH      C 4504   3.993   0.322   6.239 -0.0849 -0.4335 -0.0033
 1125EOH      H 4505   3.987   0.495   5.965  1.7709  0.7812 -0.4245
 1126EOH      O 4506   1.568   3.221   2.130 -0.3191  0.2810  0.7785
 1126EOH      C 4507   1.429   3.192   2.140 -0.3141 -0.0838 -0.1677
 1126EOH      C 4508   1.343   3.306   2.080 -0.2262 -0.0871 -0.2992
 1126EOH      H 4509   1.598   3.167   2.059  0.0267  2.6589 -0.9231
 1127EOH      O 4510   5.947   1.793   1.915  0.8171  0.1227  0.0587
 1127EOH      C 4511   5.850   1.865   1.991  0.5460 -0.0035 -0.1728
 1127EOH      C 4512   5.882   2.016   1.996  0.1204  0.0491  1.0898
 1127EOH      H 4513   5.930   1.701   1.901 -1.8159  0.2400  2.0104
 1128EOH      O 4514   5.166   0.394   1.311 -0.3496  0.1812  0.2448
 1128EOH      C 4515   5.104   0.464   1.419  0.0165 -0.1375  0.6637
 1128EOH      C 4516   5.177   0.596   1.450  0.4126 -0.0802 -0.5033
 1128EOH      H 4517   5.152   0.302   1.331 -0.7196  0.6631  2.4017
 1129EOH      O 4518   3.256   5.025   4.734 -0.5472  0.3144  0.2779
 1129EOH      C 4519   3.389   4.992   4.773 -0.6138  0.0808  0.3068
 1129EOH      C 4520   3.405   4.984   4.926 -0.1918 -0.4021  0.2390
 1129EOH      H 4521   3.226   4.951   4.684 -2.2335  1.8060 -1.0240
 1130EOH      O 4522   2.445   2.431   4.242  0.6581 -0.1303  0.3962
 1130EOH      C 4523   2.314   2.376   4.230  0.3592  0.6284  0.1827
 1130EOH      C 4524   2.221   2.414   4.347  0.1001  0.2956  0.0882
 1130EOH      H 4525   2.482   2.391   4.319 -0.6120 -0.4581  0.8380
 1131EOH      O 4526   2.420   3.070   0.468  0.2399 -0.1492 -0.1272
 1131EOH      C 4527   2.451   2.944   0.408 -0.3620 -0.2694 -0.1917
 1131EOH      C 4528   2.484   2.858   0.531 -0.6560  0.3684  0.3335
 1131EOH      H 4529   2.339   3.108   0.437  1.3494  1.4915 -1.0798
 1132EOH      O 4530   0.688   5.098   1.520  0.3573 -0.5013  0.0982
 1132EOH      C 4531   0.549   5.118   1.492  0.4041 -0.0862  0.1505
 1132EOH      C 4532   0.517   5.230   1.592  0.5883  0.0493  0.0577
 1132EOH      H 4533   0.736   5.142   1.451  1.7871 -3.3411 -0.7712
 1133EOH      O 4534   6.312   2.779   6.163 -0.7161  0.0958 -0.4595
 1133EOH      C 4535   6.260   2.878   6.252  0.5172  0.5603 -0.2524
 1133EOH      C 4536   6.153   2.967   6.186 -0.3392  0.0039  0.3833
 1133EOH      H 4537   6.385   2.735   6.205  1.5525  1.8123 -2.4514
 1134EOH      O 4538   3.483   0.323   3.912 -0.3087 -0.0970 -0.6068
 1134EOH      C 4539   3.524   0.186   3.908 -0.1217 -0.0508 -0.3265
 1134EOH      C 4540   3.672   0.182   3.868 -0.1524  0.0630 -0.4536
 1134EOH      H 4541   3.486   0.354   4.002 -0.9505  1.5714 -1.1371
 1135EOH      O 4542   3.110   5.276   2.723  0.6112 -1.0406 -0.7037
 1135EOH      C 4543   3.078   5.191   2.834 -0.2764 -0.5035 -0.5483
 1135EOH      C 4544   3.191   5.098   2.880 -0.0435 -0.0002 -0.0987
 1135EOH      H 4545   3.191   5.259   2.677 -1.0059  0.2932 -4.2029
 1136EOH      O 4546   4.065   3.298   4.810 -0.0984  0.0897  0.1951
 1136EOH      C 4547   4.152   3.392   4.746  0.0124 -0.3735 -0.3456
 1136EOH      C 4548   4.283   3.407   4.825 -0.1217 -0.1971 -0.1540
 1136EOH      H 4549   3.993   3.272   4.754  1.8938  0.7859 -2.7915
 1137EOH      O 4550   4.365   2.647   0.877 -0.0913 -0.5879  0.4156
 1137EOH      C 4551   4.261   2.688   0.788  0.1625  0.1433  0.4479
 1137EOH      C 4552   4.235   2.577   0.684 -0.1392 -0.2093  0.8978
 1137EOH      H 4553   4.332   2.589   0.943 -0.6082 -2.0927 -1.1320
 1138EOH      O 4554   2.760   2.344   2.698  0.1054 -0.0471  0.3766
 1138EOH      C 4555   2.799   2.222   2.761 -0.6212 -0.2971  0.3474
 1138EOH      C 4556   2.836   2.258   2.906 -0.1773 -0.1457  0.1982
 1138EOH      H 4557   2.668   2.352   2.717 -0.0246  1.8259 -0.9066
 1139EOH      O 4558   4.059   5.803   0.699  0.1685 -0.5652  0.1441
 1139EOH      C 4559   4.159   5.797   0.598  0.4097 -0.1407  0.3556
 1139EOH      C 4560   4.120   5.699   0.486  0.6879 -0.8231  0.8467
 1139EOH      H 4561   3.972   5.802   0.662 -0.4454 -1.4971  1.5623
 1140EOH      O 4562   6.303   1.047   2.505 -0.0350  0.0366 -0.2560
 1140EOH      C 4563   6.283   1.181   2.551  0.2294  0.0911 -0.2983
 1140EOH      C 4564   6.131   1.205   2.550  0.1319 -0.4745  0.5060
 1140EOH      H 4565   6.330   0.996   2.580  0.3504  0.1469 -0.3185
 1141EOH      O 4566   1.274   3.423   3.046 -0.6182  0.0738  0.0331
 1141EOH      C 4567   1.364   3.483   2.952 -0.5726 -0.4328 -0.2519
 1141EOH      C 4568   1.509   3.490   3.005 -0.5740 -0.3841 -0.2535
 1141EOH      H 4569   1.229   3.358   2.994 -0.7228 -0.4251  0.7474
 1142EOH      O 4570   1.808   2.469   2.404 -0.1115  0.1894 -0.0657
 1142EOH      C 4571   1.769   2.355   2.481 -0.2334  0.1059 -0.2500
 1142EOH      C 4572   1.758   2.386   2.631  0.2778 -0.2375 -0.1406
 1142EOH      H 4573   1.825   2.440   2.315 -1.4574  1.1971 -0.6788
 1143EOH      O 4574   4.245   5.386   1.102  0.1947  0.2560  0.1716
 1143EOH      C 4575   4.236   5.288   1.206  0.3334 -0.1141 -0.1652
 1143EOH      C 4576   4.188   5.156   1.143 -0.4056  0.4209 -0.7334
 1143EOH      H 4577   4.156   5.395   1.071  0.6468  0.4756 -1.0725
 1144EOH      O 4578   4.143   5.214   5.769 -0.3821 -0.1697 -0.2207
 1144EOH      C 4579   4.283   5.222   5.740 -0.3388  0.7262  0.2250
 1144EOH      C 4580   4.322   5.359   5.681  0.4283  0.2548 -0.3527
 1144EOH      H 4581   4.093   5.241   5.693 -0.2508 -0.8028 -0.5357
 1145EOH      O 4582   3.542   0.718   1.694  0.4128  0.1062 -0.0177
 1145EOH      C 4583   3.558   0.752   1.832  0.5730 -0.8171  0.1984
 1145EOH      C 4584   3.427   0.738   1.912  0.1472  0.0764 -0.3234
 1145EOH      H 4585   3.602   0.780   1.656  1.7314 -1.3725 -0.3830
 1146EOH      O 4586   4.726   3.444   5.528  0.2087  0.4582 -0.4644
 1146EOH      C 4587   4.590   3.487   5.536  0.0091 -0.2746  0.0646
 1146EOH      C 4588   4.495   3.394   5.458  0.2199 -0.0043 -0.5156
 1146EOH      H 4589   4.772   3.476   5.604 -1.1538 -0.3483  0.7085
 1147EOH      O 4590   1.484   1.026   1.736 -0.5649  1.0529  0.2208
 1147EOH      C 4591   1.415   1.024   1.611  0.3803 -0.0739 -0.2893
 1147EOH      C 4592   1.289   1.112   1.604  0.0736 -0.5310 -0.5634
 1147EOH      H 4593   1.428   0.972   1.790  0.7005 -1.3349 -0.7781
 1148EOH      O 4594   2.546   2.365   4.464  0.4230 -0.1492 -0.0915
 1148EOH      C 4595   2.626   2.478   4.499 -0.2301  0.2354  0.1661
 1148EOH      C 4596   2.755   2.467   4.417 -0.4947 -0.0773 -0.2090
 1148EOH      H 4597   2.539   2.310   4.540  2.5969  0.0759  0.2803
 1149EOH      O 4598   2.885   5.087   5.589  0.5542 -0.7171  0.4498
 1149EOH      C 4599   2.833   5.173   5.690  0.4508 -0.3338  0.0706
 1149EOH      C 4600   2.839   5.111   5.831 -0.2194  0.0680  0.2827
 1149EOH      H 4601   2.823   5.018   5.574 -0.6097  0.4430 -0.1368
 1150EOH      O 4602   2.378   4.263   2.694 -0.7157 -0.2314  0.0094
 1150EOH      C 4603   2.330   4.282   2.561 -0.2033  0.4825 -0.0762
 1150EOH      C 4604   2.186   4.233   2.538 -0.1104  0.2339 -0.1231
 1150EOH      H 4605   2.464   4.300   2.706  0.7321 -2.2622 -3.4517
 1151EOH      O 4606   4.473   4.916   4.787  0.4381  0.0233 -0.3534
 1151EOH      C 4607   4.521   4.946   4.918 -0.1718  0.6673 -0.2761
 1151EOH      C 4608   4.409   4.962   5.023 -0.3144 -0.0292 -0.3167
 1151EOH      H 4609   4.428   4.996   4.764  0.4170  0.2465  0.4719
 1152EOH      O 4610   5.282   4.748   3.946 -0.0044  0.0651 -0.1903
 1152EOH      C 4611   5.237   4.706   3.817  0.4565 -0.4114 -0.1991
 1152EOH      C 4612   5.298   4.802   3.713  0.0882  0.2254  0.1692
 1152EOH      H 4613   5.359   4.699   3.970  0.8503  1.8608  0.7577
 1153EOH      O 4614   3.686   4.089   5.196  0.3096 -0.4100  0.6422
 1153EOH      C 4615   3.710   3.954   5.154  0.2598 -0.2359  0.0591
 1153EOH      C 4616   3.766   3.951   5.010 -0.0240  0.1056 -0.0604
 1153EOH      H 4617   3.739   4.160   5.165 -1.4428  0.9605  0.7089
 1154EOH      O 4618   4.008   5.043   2.632 -1.1798 -0.0364  0.0774
 1154EOH      C 4619   4.075   4.961   2.729 -0.4983  0.5519  0.1040
 1154EOH      C 4620   3.974   4.902   2.829  0.3937 -0.2166  0.5533
 1154EOH      H 4621   4.071   5.096   2.587 -0.4256  0.7651  1.9935
 1155EOH      O 4622   2.916   4.139   5.933 -0.1357  0.3133 -0.3010
 1155EOH      C 4623   2.779   4.144   5.975 -0.0251  0.5430  0.0258
 1155EOH      C 4624   2.741   4.005   6.028  0.8939  0.3204  0.1149
 1155EOH      H 4625   2.953   4.225   5.948  1.4237 -0.1620 -1.3126
 1156EOH      O 4626   3.818   5.842   0.631  0.2398  0.2107  0.1788
 1156EOH      C 4627   3.683   5.797   0.621  0.3911 -0.3166  0.4822
 1156EOH      C 4628   3.584   5.864   0.718 -0.1414  0.2697 -0.4547
 1156EOH      H 4629   3.824   5.929   0.596 -0.3984  0.4141  0.5712
 1157EOH      O 4630   6.238   0.217   4.478 -0.0618  0.4185  1.0016
 1157EOH      C 4631   6.129   0.281   4.411  0.2030 -0.2283 -0.0539
 1157EOH      C 4632   6.178   0.413   4.348 -0.4840  0.1402  0.1826
 1157EOH      H 4633   6.200   0.137   4.511 -1.0546 -0.7451 -2.6624
 1158EOH      O 4634   5.365   0.140   5.591  0.3204  0.0624  0.2358
 1158EOH      C 4635   5.430   0.073   5.483  0.0584 -0.3559  0.3352
 1158EOH      C 4636   5.389   0.140   5.350  0.1984 -0.5971  0.1685
 1158EOH      H 4637   5.382   0.087   5.667  1.1407  0.1806  0.1308
 1159EOH      O 4638   1.429   3.247   1.698 -0.2810  0.1938  0.0851
 1159EOH      C 4639   1.563   3.291   1.679 -0.0270 -0.3847  0.4965
 1159EOH      C 4640   1.596   3.417   1.761  0.0466  0.2075 -0.4376
 1159EOH      H 4641   1.416   3.176   1.638  0.1662  0.9868 -0.9529
 1160EOH      O 4642   0.780   3.111   4.666 -0.5179  0.0360 -0.1651
 1160EOH      C 4643   0.733   3.062   4.791  0.1579 -0.4842 -0.1101
 1160EOH      C 4644   0.624   2.956   4.768 -0.1086 -0.3035  0.2990
 1160EOH      H 4645   0.743   3.197   4.650 -1.5345 -0.4737 -0.6363
 1161EOH      O 4646   5.214   5.662   0.917 -0.0756 -0.3952  0.5215
 1161EOH      C 4647   5.106   5.584   0.864 -0.1194 -0.1699  0.2791
 1161EOH      C 4648   5.012   5.675   0.783 -0.0835 -0.6207 -0.2675
 1161EOH      H 4649   5.252   5.716   0.850 -0.0712  0.2212  1.0237
 1162EOH      O 4650   0.087   0.967   1.339 -0.4453  0.3957 -0.1659
 1162EOH      C 4651   0.046   0.830   1.327  0.4572  0.1127 -0.0784
 1162EOH      C 4652  -0.093   0.827   1.262  0.5170 -0.2250 -0.1905
 1162EOH      H 4653   0.166   0.963   1.392  1.0585 -1.9513 -2.4363
 1163EOH      O 4654   5.174   5.275   3.296 -0.0617  0.5226 -0.0950
 1163EOH      C 4655   5.035   5.284   3.328 -0.0461 -0.1763  0.1729
 1163EOH      C 4656   4.977   5.141   3.321 -0.0755 -0.1746  0.3821
 1163EOH      H 4657   5.210   5.362   3.305 -0.5790  0.5168  2.4246
 1164EOH      O 4658   4.631   1.662   1.703  0.4076 -0.7999 -0.1142
 1164EOH      C 4659   4.584   1.540   1.645 -0.5689 -0.3107 -0.3656
 1164EOH      C 4660   4.458   1.484   1.714 -0.1966 -0.3604  0.2803
 1164EOH      H 4661   4.697   1.695   1.645  1.3535 -1.9313  0.2905
 1165EOH      O 4662   6.056   4.038   3.573 -0.0143  0.2998  0.3657
 1165EOH      C 4663   5.971   3.927   3.599 -0.3301  0.4962  0.1825
 1165EOH      C 4664   6.012   3.865   3.735  0.7094  0.2925 -0.2161
 1165EOH      H 4665   6.145   4.012   3.551  0.3045  1.4435  0.2423
 1166EOH      O 4666   2.774   4.739   6.282  0.0885 -0.1349  0.0798
 1166EOH      C 4667   2.827   4.870   6.305 -0.0689 -0.0714  0.0808
 1166EOH      C 4668   2.789   4.935   6.171 -0.6385 -0.5332  0.0127
 1166EOH      H 4669   2.815   4.674   6.338  1.6305  0.1651 -0.6599
 1167EOH      O 4670   3.015   1.184   0.166 -0.3491  0.7158  0.5381
 1167EOH      C 4671   3.070   1.256   0.277  0.2594  0.3211  0.4997
 1167EOH      C 4672   3.065   1.171   0.405 -0.4460 -0.3115  0.0576
 1167EOH      H 4673   3.056   1.217   0.088 -0.8371  0.4281  0.1615
 1168EOH      O 4674   1.365   5.312   2.735  0.1234  0.7852 -0.1293
 1168EOH      C 4675   1.263   5.300   2.834  0.1738  0.1847 -0.1462
 1168EOH      C 4676   1.130   5.353   2.777  0.0119 -0.1667 -0.1009
 1168EOH      H 4677   1.402   5.227   2.714  1.1531  1.5036 -1.2508
 1169EOH      O 4678   3.457   4.899   1.033  0.0387  0.1523 -0.0617
 1169EOH      C 4679   3.352   4.803   1.051  0.0807  0.1615  0.2249
 1169EOH      C 4680   3.244   4.854   1.148 -0.4214 -0.5977  0.0639
 1169EOH      H 4681   3.514   4.898   1.107  1.7468  2.3072 -1.2740
 1170EOH      O 4682   1.942   4.207   5.178  0.2641 -0.3273 -0.4614
 1170EOH      C 4683   1.996   4.075   5.197 -0.0647 -0.3836  0.0832
 1170EOH      C 4684   2.120   4.068   5.107 -0.3013  0.4204 -0.3136
 1170EOH      H 4685   1.879   4.235   5.242  0.9815 -2.0053  1.0198
 1171EOH      O 4686   4.022   3.070   3.982 -0.3131 -0.3351  0.2227
 1171EOH      C 4687   4.101   3.177   3.931 -0.2927 -0.2898  0.3497
 1171EOH      C 4688   4.111   3.300   4.023 -1.3508 -0.1682  0.3036
 1171EOH      H 4689   3.934   3.104   3.984 -0.2746  0.0167 -2.5654
 1172EOH      O 4690   4.216   3.996   3.330  0.2560 -0.0941  0.3851
 1172EOH      C 4691   4.275   4.124   3.306  0.0407 -0.1492 -0.4390
 1172EOH      C 4692   4.392   4.094   3.210  0.3537  0.2428 -0.1799
 1172EOH      H 4693   4.138   4.019   3.379  1.2069  2.1534  0.9242
 1173EOH      O 4694   3.855   2.075   2.005  0.4201  0.2109 -0.1292
 1173EOH      C 4695   3.730   2.143   2.015  0.4839  0.2738  0.2552
 1173EOH      C 4696   3.643   2.124   1.889  0.0520  0.0842  0.5810
 1173EOH      H 4697   3.848   2.003   2.066 -2.1705 -0.2073 -0.8706
 1174EOH      O 4698   0.239   4.879   5.955  0.1226 -0.4164  0.1708
 1174EOH      C 4699   0.114   4.924   5.901  0.3120 -0.0355  0.0434
 1174EOH      C 4700   0.004   4.867   5.992  0.2895  0.0834  0.0901
 1174EOH      H 4701   0.220   4.819   6.025  0.9486 -0.3391  0.4643
 1175EOH      O 4702   6.052   5.182   1.174 -0.2399  0.4778  0.4803
 1175EOH      C 4703   5.922   5.126   1.193 -0.1484  0.1152  0.0554
 1175EOH      C 4704   5.830   5.118   1.069  0.2687 -0.2915 -0.2284
 1175EOH      H 4705   6.076   5.195   1.083 -2.9853  1.7658 -0.1155
 1176EOH      O 4706   0.471   3.291   1.115 -0.0198  0.0862  0.0416
 1176EOH      C 4707   0.542   3.401   1.170 -0.0039  0.3002 -0.4029
 1176EOH      C 4708   0.660   3.450   1.083  0.1626 -0.2129 -0.4646
 1176EOH      H 4709   0.437   3.319   1.031 -0.9328  0.8963  0.6719
 1177EOH      O 4710   0.164   2.350   4.206  0.6705  0.2030  0.0119
 1177EOH      C 4711   0.128   2.315   4.340  0.2556  0.2604 -0.0821
 1177EOH      C 4712  -0.024   2.294   4.351  0.3214  0.0146  0.3379
 1177EOH      H 4713   0.250   2.318   4.184 -0.4430 -1.6767 -1.8511
 1178EOH      O 4714   2.816   0.952   4.470  0.1217 -0.2569  0.0351
 1178EOH      C 4715   2.828   0.963   4.612  0.0205  0.4058 -0.0053
 1178EOH      C 4716   2.686   0.945   4.669  0.0122  0.2124 -0.0851
 1178EOH      H 4717   2.898   0.983   4.434 -0.5431  1.1353 -0.2877
 1179EOH      O 4718   3.838   3.896   4.540  0.0084 -0.1277 -0.2534
 1179EOH      C 4719   3.905   3.847   4.657 -0.1494  0.4708  0.0954
 1179EOH      C 4720   3.912   3.694   4.637  0.1414  0.5078 -0.0895
 1179EOH      H 4721   3.889   3.886   4.461 -2.0870  0.4709 -1.7278
 1180EOH      O 4722   1.841   1.567   0.799 -0.1483 -0.2250  0.3928
 1180EOH      C 4723   1.778   1.541   0.924 -0.1849  0.0474  0.4304
 1180EOH      C 4724   1.826   1.418   1.004  0.6696  0.1386  0.0581
 1180EOH      H 4725   1.905   1.634   0.815 -1.3892  1.0735 -0.0679
 1181EOH      O 4726   4.059   3.424   2.053 -0.3340  0.5118  0.4077
 1181EOH      C 4727   3.959   3.393   1.955 -0.1548  0.4584  0.2392
 1181EOH      C 4728   3.833   3.340   2.027 -0.0995 -0.2249 -0.1648
 1181EOH      H 4729   4.127   3.471   2.007 -1.6930  1.9539 -0.2134
 1182EOH      O 4730   3.830   1.499   4.968 -0.3125  0.1219 -0.4292
 1182EOH      C 4731   3.702   1.454   5.015  0.2299 -0.9287  0.0588
 1182EOH      C 4732   3.598   1.449   4.901 -0.1160  0.0926  0.3210
 1182EOH      H 4733   3.855   1.563   5.034 -0.8922 -0.0242 -0.0622
 1183EOH      O 4734   2.219   4.902   4.735  0.1239  0.3342  0.8013
 1183EOH      C 4735   2.078   4.880   4.743  0.1651 -0.4902 -0.6290
 1183EOH      C 4736   2.038   4.735   4.711  0.3207 -0.5898 -0.3706
 1183EOH      H 4737   2.258   4.859   4.810 -2.3114 -0.3310  1.7458
 1184EOH      O 4738   5.587   4.609   1.599  0.1411  0.4949  0.6129
 1184EOH      C 4739   5.623   4.511   1.697 -0.1885 -0.1019  0.1456
 1184EOH      C 4740   5.762   4.446   1.678 -0.1147 -0.0291  0.4298
 1184EOH      H 4741   5.600   4.696   1.631 -0.6921  0.4263  1.1420
 1185EOH      O 4742   1.748   2.279   4.743  0.1614 -0.0602 -0.0422
 1185EOH      C 4743   1.832   2.319   4.634 -1.1183 -0.2614 -1.1105
 1185EOH      C 4744   1.960   2.234   4.646 -0.7967  0.4404  0.6415
 1185EOH      H 4745   1.768   2.188   4.760 -0.4809 -0.3718 -0.9512
 1186EOH      O 4746   1.320   5.135   1.932  0.4262 -0.4859  0.7699
 1186EOH      C 4747   1.254   5.121   1.806  0.3479  0.0307  0.7507
 1186EOH      C 4748   1.187   5.255   1.772  0.4749 -0.1105 -0.0790
 1186EOH      H 4749   1.386   5.067   1.930 -0.7352 -1.6098 -1.1115
 1187EOH      O 4750   2.997   5.160   0.571  0.3790 -0.1370 -0.0433
 1187EOH      C 4751   3.029   5.218   0.698 -0.2520 -0.1008  0.1013
 1187EOH      C 4752   2.955   5.352   0.714  0.0942  0.0575  0.3578
 1187EOH      H 4753   3.053   5.207   0.511  0.4259  0.4465  0.4578
 1188EOH      O 4754   1.616   4.422   2.236  0.1326  0.0697 -0.2128
 1188EOH      C 4755   1.757   4.417   2.218  0.1941 -0.6304  0.4089
 1188EOH      C 4756   1.824   4.478   2.343  0.6983  0.4357 -0.3697
 1188EOH      H 4757   1.569   4.409   2.155  1.3114 -2.0990 -0.5982
 1189EOH      O 4758   4.366   0.306   3.687  0.4182  0.3446 -0.4495
 1189EOH      C 4759   4.343   0.224   3.803 -0.2743  1.4419  0.1974
 1189EOH      C 4760   4.198   0.173   3.804  0.1537  0.2216 -0.1795
 1189EOH      H 4761   4.457   0.329   3.677  0.4639 -0.0456 -0.9630
 1190EOH      O 4762   2.880   5.960   0.438 -0.2942 -0.2528  0.4452
 1190EOH      C 4763   2.946   6.083   0.470 -0.5184  0.2392 -0.9139
 1190EOH      C 4764   3.014   6.148   0.348  0.1574  0.7013 -0.2983
 1190EOH      H 4765   2.797   5.954   0.482 -1.0594  1.7612 -0.6265
 1191EOH      O 4766   3.049   3.274   3.480  0.6744 -0.2291  0.2569
 1191EOH      C 4767   3.073   3.377   3.576  0.1159  0.1092  0.0332
 1191EOH      C 4768   3.222   3.402   3.605  0.1198 -0.3987  0.4547
 1191EOH      H 4769   2.960   3.244   3.489 -0.0862  1.4063 -1.6355
 1192EOH      O 4770   5.551   4.736   0.855  0.3222 -0.2389  0.1790
 1192EOH      C 4771   5.525   4.723   0.995  0.0033  0.5440  0.1988
 1192EOH      C 4772   5.642   4.801   1.057 -0.1367  0.7818  0.1597
 1192EOH      H 4773   5.567   4.827   0.833 -0.9202  0.0637  0.4810
 1193EOH      O 4774   6.151   6.204   2.287  0.4412  0.2669  0.2984
 1193EOH      C 4775   6.138   6.065   2.256  0.3913  0.4514 -0.5098
 1193EOH      C 4776   6.279   6.002   2.259 -0.3046 -1.1366 -0.7478
 1193EOH      H 4777   6.071   6.235   2.327 -1.6945  0.7438 -4.0474
 1194EOH      O 4778   0.560   5.465   4.446  0.2866 -0.2457  0.0919
 1194EOH      C 4779   0.474   5.391   4.359  0.0907  0.3758 -0.2516
 1194EOH      C 4780   0.446   5.265   4.443  0.1411  0.4594 -0.1087
 1194EOH      H 4781   0.512   5.492   4.522  0.9408  1.5694 -0.1044
 1195EOH      O 4782   6.073   4.104   6.194 -0.2303  0.2412 -0.2937
 1195EOH      C 4783   5.978   4.001   6.162 -0.3514  0.2720 -0.0349
 1195EOH      C 4784   5.934   4.004   6.014 -0.1864 -0.3502 -0.0971
 1195EOH      H 4785   6.083   4.075   6.283 -2.6871 -2.9188 -0.9371
 1196EOH      O 4786   2.971   1.671   2.492 -0.3698  0.1170  0.3687
 1196EOH      C 4787   3.076   1.591   2.547 -0.3513  0.0541  0.2427
 1196EOH      C 4788   3.186   1.581   2.439  0.4307  0.6866  0.9774
 1196EOH      H 4789   2.911   1.693   2.561  0.0807 -0.7609  1.0416
 1197EOH      O 4790   2.436   5.385   2.543  0.2068 -0.1511  0.5268
 1197EOH      C 4791   2.327   5.465   2.591 -0.0782  0.0394 -0.4368
 1197EOH      C 4792   2.379   5.558   2.702 -0.5184  0.1282 -0.3046
 1197EOH      H 4793   2.411   5.296   2.558  1.4760 -0.1386  2.9764
 1198EOH      O 4794   0.629   2.992   0.700 -0.3891 -0.3560 -0.6010
 1198EOH      C 4795   0.762   3.005   0.751 -0.2102 -0.5897 -1.0071
 1198EOH      C 4796   0.834   2.871   0.730  0.5076 -0.4698  0.5920
 1198EOH      H 4797   0.644   2.978   0.608  1.9345  0.5884 -0.3853
 1199EOH      O 4798   5.651   4.287   3.350 -0.2194  0.1206  0.0865
 1199EOH      C 4799   5.555   4.391   3.324 -0.0260  0.2570 -0.0806
 1199EOH      C 4800   5.418   4.346   3.377  0.0533 -0.4250 -0.4402
 1199EOH      H 4801   5.681   4.293   3.440  1.2821 -0.1593 -0.3816
 1200EOH      O 4802   3.679   0.480   5.103 -0.4202 -0.4129 -0.2543
 1200EOH      C 4803   3.653   0.481   4.962  0.2291 -0.3220 -0.3708
 1200EOH      C 4804   3.680   0.613   4.888 -0.4475 -0.2338 -0.4624
 1200EOH      H 4805   3.698   0.392   5.131  0.5726  0.0932  0.6606
 1201EOH      O 4806   4.827   4.675   3.995 -0.0040  0.4092 -0.1111
 1201EOH      C 4807   4.823   4.714   4.132 -0.0754  0.1846 -0.0498
 1201EOH      C 4808   4.694   4.663   4.200 -0.0796 -0.6994 -0.7082
 1201EOH      H 4809   4.762   4.732   3.955 -0.7470  0.6928  1.4649
 1202EOH      O 4810   4.294   0.121   6.032 -0.5341 -0.1334  0.4622
 1202EOH      C 4811   4.181   0.034   6.013 -0.7584  0.4267 -0.8605
 1202EOH      C 4812   4.216  -0.074   5.909  0.5795 -0.0984  0.1125
 1202EOH      H 4813   4.280   0.205   5.991  4.3899  1.1815  1.1948
 1203EOH      O 4814   5.300   2.367   2.288 -0.2902  0.0973 -0.3387
 1203EOH      C 4815   5.258   2.362   2.425  0.1898  0.3593 -0.1805
 1203EOH      C 4816   5.389   2.377   2.503  0.0592  0.4334  0.0234
 1203EOH      H 4817   5.356   2.443   2.281 -2.0064  1.3375 -1.1329
 1204EOH      O 4818   1.841   4.301   4.089  0.4553 -0.2755  0.3626
 1204EOH      C 4819   1.906   4.423   4.053 -0.3685  0.1876  0.4267
 1204EOH      C 4820   1.795   4.507   3.988 -0.6882 -0.3275  0.3060
 1204EOH      H 4821   1.771   4.323   4.148  0.1325 -0.5970  0.1027
 1205EOH      O 4822   5.621   2.774   5.335 -0.1672 -0.2381 -0.3658
 1205EOH      C 4823   5.566   2.722   5.213  0.0172 -0.1488 -0.4868
 1205EOH      C 4824   5.412   2.736   5.222  0.0321 -0.2869  0.0104
 1205EOH      H 4825   5.709   2.743   5.346  0.2602  0.2906 -2.1072
 1206EOH      O 4826   0.922   1.545   1.399  0.5698 -0.2716 -0.0466
 1206EOH      C 4827   0.936   1.491   1.531 -0.3472  0.1878  0.2427
 1206EOH      C 4828   1.062   1.405   1.553 -0.4859 -0.0883 -0.0370
 1206EOH      H 4829   0.965   1.629   1.391 -0.0668  0.1727  1.1193
 1207EOH      O 4830   5.934   4.599   4.279 -0.1407  0.0565  0.3274
 1207EOH      C 4831   5.953   4.461   4.309 -0.4646 -0.1326 -0.3128
 1207EOH      C 4832   5.899   4.388   4.184 -0.1576 -0.2773 -0.3614
 1207EOH      H 4833   5.993   4.626   4.210 -1.7718  2.0247 -0.3419
 1208EOH      O 4834   4.815   2.956   6.148 -0.2204 -0.1982  0.3545
 1208EOH      C 4835   4.691   3.026   6.154 -0.2846 -0.2969  0.1927
 1208EOH      C 4836   4.608   2.970   6.037 -0.3839 -0.2925  0.2601
 1208EOH      H 4837   4.869   2.981   6.221 -1.6747 -1.6059  1.9575
 1209EOH      O 4838   1.780   0.270   1.889 -0.2894 -0.2453 -0.0793
 1209EOH      C 4839   1.870   0.177   1.828  0.3444  0.2027  0.1690
 1209EOH      C 4840   1.990   0.141   1.917  0.2794 -0.4032  0.0161
 1209EOH      H 4841   1.714   0.288   1.824 -1.3643  0.8991  1.3002
 1210EOH      O 4842   4.533   0.080   6.137  0.4341  0.2230  0.2371
 1210EOH      C 4843   4.581   0.215   6.135 -0.2635  0.4697 -0.2259
 1210EOH      C 4844   4.702   0.242   6.227 -0.0698  0.1876 -0.3970
 1210EOH      H 4845   4.448   0.071   6.096  0.2259 -1.3760  1.0044
 1211EOH      O 4846   5.702   1.752   0.393 -0.5001  0.7650 -0.1378
 1211EOH      C 4847   5.574   1.787   0.446 -0.6483  0.0514 -0.0127
 1211EOH      C 4848   5.546   1.706   0.573 -0.0709 -0.2919 -0.1014
 1211EOH      H 4849   5.740   1.825   0.346 -1.6285  1.2264 -0.3466
 1212EOH      O 4850   4.981   1.498   1.035  1.0299  0.0990 -0.4356
 1212EOH      C 4851   4.993   1.521   1.175 -0.1212 -0.1477 -0.2923
 1212EOH      C 4852   5.087   1.641   1.197 -0.2692  0.0426 -0.6957
 1212EOH      H 4853   4.958   1.410   1.008 -3.1641  1.1089 -0.4772
 1213EOH      O 4854   0.490   4.554   3.492  0.5554  0.0253 -0.1891
 1213EOH      C 4855   0.363   4.605   3.451  0.3071 -0.6916 -0.3208
 1213EOH      C 4856   0.248   4.559   3.542 -0.0249 -0.1705 -0.4728
 1213EOH      H 4857   0.555   4.573   3.427  1.4402  1.1677  1.0119
 1214EOH      O 4858   3.152   0.852   5.008 -0.1700 -0.0805  0.1849
 1214EOH      C 4859   3.205   0.923   4.895 -0.5863  0.3157  0.2371
 1214EOH      C 4860   3.143   0.871   4.764  0.5065  0.4657 -0.3442
 1214EOH      H 4861   3.212   0.787   5.040  0.9823  1.2659  0.8124
 1215EOH      O 4862   5.032   3.884   1.859  0.4051 -0.2790  0.0624
 1215EOH      C 4863   5.041   3.897   1.717  0.4470 -0.6517  0.0311
 1215EOH      C 4864   5.157   3.985   1.669 -0.0351 -0.1541 -0.2366
 1215EOH      H 4865   4.982   3.805   1.873  1.5350 -1.0149  0.0291
 1216EOH      O 4866   4.975   2.028   0.635  0.0971 -0.0856  0.0996
 1216EOH      C 4867   5.104   2.088   0.644 -0.0262  0.2318 -0.2072
 1216EOH      C 4868   5.212   2.019   0.558  0.2153  0.2899  0.0488
 1216EOH      H 4869   4.937   2.048   0.550  0.5042  0.0268 -0.0548
 1217EOH      O 4870   4.006   6.018   5.424 -0.0560  0.5197  0.1416
 1217EOH      C 4871   4.068   5.996   5.297  0.2424  0.2980  0.3271
 1217EOH      C 4872   4.140   6.126   5.257 -0.4079  0.5013 -0.1833
 1217EOH      H 4873   4.057   5.989   5.498 -1.2613 -2.9295 -0.2913
 1218EOH      O 4874   3.160   4.502   3.739 -0.7823  0.0867  0.6373
 1218EOH      C 4875   3.143   4.377   3.672  0.0291  0.1534  0.2995
 1218EOH      C 4876   3.081   4.278   3.772  0.1658 -0.3093 -0.0678
 1218EOH      H 4877   3.166   4.580   3.686  0.1571  0.9843  2.0143
 1219EOH      O 4878   5.697   0.550   1.017 -0.1559 -0.4282  0.4260
 1219EOH      C 4879   5.663   0.631   1.130 -0.3659 -0.0585  0.0999
 1219EOH      C 4880   5.567   0.743   1.084 -0.6937 -0.3147  0.1546
 1219EOH      H 4881   5.628   0.488   1.003 -0.7525  0.9512 -3.3655
 1220EOH      O 4882   6.152   3.753   0.691 -0.6267  0.0802  0.1869
 1220EOH      C 4883   6.245   3.833   0.619  0.4121 -0.4592  0.9150
 1220EOH      C 4884   6.382   3.763   0.631  0.3133 -0.7337  0.4535
 1220EOH      H 4885   6.076   3.806   0.676 -0.5299  0.9987  2.7598
 1221EOH      O 4886   2.942   6.127   1.208  0.3576 -0.0424 -0.1754
 1221EOH      C 4887   2.915   6.249   1.278 -0.1520 -0.1912 -0.1123
 1221EOH      C 4888   3.022   6.354   1.242 -0.3151  0.1842  0.5011
 1221EOH      H 4889   2.891   6.126   1.129 -1.6501  1.1052  1.0827
 1222EOH      O 4890   3.377   4.291   2.569  0.1109 -0.1311 -0.5307
 1222EOH      C 4891   3.385   4.363   2.692  0.3587  0.0611 -0.6611
 1222EOH      C 4892   3.349   4.508   2.654 -0.3809 -0.0001 -0.2063
 1222EOH      H 4893   3.400   4.200   2.581  0.4902  0.2277  1.6327
 1223EOH      O 4894   2.963   5.149   4.123  1.0532 -0.0123 -0.1682
 1223EOH      C 4895   2.930   5.267   4.196 -0.2117 -0.2418 -0.3668
 1223EOH      C 4896   2.831   5.348   4.109 -0.0720  0.1558 -0.1546
 1223EOH      H 4897   3.006   5.177   4.044  1.4352 -1.3703 -0.4627
 1224EOH      O 4898   3.412   3.605   1.192  0.4375  0.3351  0.4854
 1224EOH      C 4899   3.503   3.501   1.155  0.1264  0.1289  0.2982
 1224EOH      C 4900   3.647   3.552   1.176  0.3630 -0.2400 -0.3881
 1224EOH      H 4901   3.334   3.575   1.147  0.5413 -1.9127  1.6802
 1225EOH      O 4902   1.191   5.982   3.025  0.0726  0.1615 -0.1157
 1225EOH      C 4903   1.214   6.032   2.893 -0.4129  0.4470 -0.0914
 1225EOH      C 4904   1.089   6.098   2.831 -0.5921  0.0099 -0.1967
 1225EOH      H 4905   1.101   5.994   3.050 -0.3201  0.7618 -1.7385
 1226EOH      O 4906   4.725   3.795   4.814  0.1184  0.5052  0.8037
 1226EOH      C 4907   4.855   3.830   4.764  0.0328  0.2541  0.4015
 1226EOH      C 4908   4.860   3.758   4.628 -0.3305  0.2293  0.3983
 1226EOH      H 4909   4.728   3.713   4.860  0.0048 -0.1898 -0.4210
 1227EOH      O 4910   4.429   2.793   6.318  0.2208 -0.6596 -0.3596
 1227EOH      C 4911   4.464   2.755   6.451  0.1179  0.3415 -0.0490
 1227EOH      C 4912   4.473   2.868   6.556  0.4413 -0.0003  0.2885
 1227EOH      H 4913   4.455   2.716   6.269 -1.1140 -2.1030  1.0982
 1228EOH      O 4914   4.806   3.240   5.396  0.2713  0.0535 -0.6630
 1228EOH      C 4915   4.949   3.240   5.402  0.2408  0.1111  0.1147
 1228EOH      C 4916   4.995   3.101   5.452 -0.1247  0.2187  0.7532
 1228EOH      H 4917   4.786   3.321   5.440  1.3281 -0.6314  1.1701
 1229EOH      O 4918   5.050   5.943   3.089  0.1746  0.4041  0.0210
 1229EOH      C 4919   4.940   5.998   3.015  0.0196 -0.3448 -0.3026
 1229EOH      C 4920   4.907   5.895   2.905 -0.3817 -0.8480  0.2812
 1229EOH      H 4921   5.118   5.931   3.024 -1.0297 -1.0947 -0.9953
 1230EOH      O 4922   2.526   5.364   4.597  0.2196 -0.3756 -0.1280
 1230EOH      C 4923   2.647   5.425   4.551  0.1126 -0.0385  0.0355
 1230EOH      C 4924   2.626   5.468   4.405 -0.2917 -0.2008  0.0441
 1230EOH      H 4925   2.554   5.308   4.668  0.5304 -1.0409 -0.7710
 1231EOH      O 4926   1.001   3.790   6.236 -0.1970 -0.4350 -0.1870
 1231EOH      C 4927   0.931   3.679   6.294  0.1443 -0.3007  0.4835
 1231EOH      C 4928   0.873   3.715   6.432 -0.2391 -0.3337  0.3299
 1231EOH      H 4929   0.934   3.852   6.210 -1.5434 -0.6983  2.3936
 1232EOH      O 4930   4.960   6.292   1.453  0.0388 -0.2384 -0.2620
 1232EOH      C 4931   4.846   6.286   1.367 -0.7494  0.1257  0.7555
 1232EOH      C 4932   4.823   6.418   1.291 -0.0543 -0.1985 -0.0234
 1232EOH      H 4933   4.961   6.214   1.505 -0.7622  1.1405  1.8762
 1233EOH      O 4934   5.687   4.203   3.020  0.5537 -0.1685 -0.5943
 1233EOH      C 4935   5.800   4.291   3.017  0.0729  0.4654 -0.1826
 1233EOH      C 4936   5.832   4.329   2.871  0.2062 -0.0284 -0.2825
 1233EOH      H 4937   5.679   4.145   3.094 -1.7753 -0.0055 -0.6806
 1234EOH      O 4938   2.005   3.834   2.420 -0.8290 -0.0889  0.0364
 1234EOH      C 4939   1.882   3.864   2.488 -0.4108 -0.3274  0.9064
 1234EOH      C 4940   1.923   3.951   2.608 -0.1837  0.3751  0.3202
 1234EOH      H 4941   2.059   3.801   2.490 -2.4660 -1.2324  0.7917
 1235EOH      O 4942   4.858   4.187   2.837 -0.6638 -0.4777  0.0717
 1235EOH      C 4943   4.971   4.221   2.918 -0.6735  0.1239 -0.1687
 1235EOH      C 4944   4.967   4.168   3.062  0.0279 -0.0250 -0.2028
 1235EOH      H 4945   4.858   4.266   2.786 -0.5916  0.3035  1.2688
 1236EOH      O 4946   3.975   4.463   1.531 -0.2478 -0.2699  0.3377
 1236EOH      C 4947   4.032   4.530   1.643 -0.4199  0.3524  0.0533
 1236EOH      C 4948   4.035   4.678   1.601  0.1467  0.2858 -0.1488
 1236EOH      H 4949   3.890   4.432   1.560 -0.0794  0.6127  1.8396
 1237EOH      O 4950   2.796   3.383   1.781  0.3918 -0.2862  0.0267
 1237EOH      C 4951   2.877   3.280   1.723  0.1003 -0.0588 -0.7976
 1237EOH      C 4952   2.784   3.159   1.705 -0.1752 -0.1049  0.8169
 1237EOH      H 4953   2.842   3.464   1.765  0.2880 -0.4223 -1.0528
 1238EOH      O 4954   0.255   4.776   6.187  0.1365  0.4674  0.7020
 1238EOH      C 4955   0.375   4.708   6.225 -0.1248 -0.5431 -0.2588
 1238EOH      C 4956   0.345   4.587   6.315 -0.2100 -0.3163  0.0171
 1238EOH      H 4957   0.207   4.811   6.260 -0.6277  1.6728 -0.3485
 1239EOH      O 4958   6.086   1.241   1.259  0.3085  0.2486 -0.6013
 1239EOH      C 4959   6.060   1.274   1.395 -0.5012 -0.4145 -0.5977
 1239EOH      C 4960   6.099   1.423   1.403 -0.3300 -0.4813 -0.1666
 1239EOH      H 4961   6.178   1.223   1.249  0.1765 -1.4761  1.0823
 1240EOH      O 4962   5.806   1.939   2.747  0.1490 -0.2711 -0.1643
 1240EOH      C 4963   5.786   1.943   2.889 -0.4300 -0.0174 -0.2499
 1240EOH      C 4964   5.751   1.799   2.933 -1.1937  0.3022  0.1796
 1240EOH      H 4965   5.835   2.024   2.717  0.8797 -1.5910 -3.4243
 1241EOH      O 4966   1.357   5.957   4.974  0.0278  0.1275 -0.3824
 1241EOH      C 4967   1.458   6.017   4.892  0.3226  0.1619  0.0064
 1241EOH      C 4968   1.603   5.990   4.937  0.2720 -0.2947 -0.1003
 1241EOH      H 4969   1.372   5.864   4.976 -0.5168  0.0676  0.9165
 1242EOH      O 4970   4.923   6.273   5.432 -0.1430 -0.2708  0.1506
 1242EOH      C 4971   5.004   6.329   5.536  0.5263 -0.3615 -0.3202
 1242EOH      C 4972   4.945   6.288   5.672 -0.1285  0.0998 -0.4603
 1242EOH      H 4973   4.935   6.330   5.357 -0.0446  1.2022  1.2582
 1243EOH      O 4974   2.211   0.196   4.055  0.0354 -0.2087  0.0671
 1243EOH      C 4975   2.253   0.333   4.055  0.0575 -0.2127  0.7777
 1243EOH      C 4976   2.172   0.406   3.946  0.4383 -0.8296  0.0695
 1243EOH      H 4977   2.211   0.166   3.966 -0.8577 -3.4409  1.1036
 1244EOH      O 4978   3.898   0.877   4.234 -0.0915  0.1245 -0.1225
 1244EOH      C 4979   3.925   1.017   4.228 -0.0293  0.1251  0.1442
 1244EOH      C 4980   3.789   1.079   4.191 -0.0092  0.4298  0.5837
 1244EOH      H 4981   3.980   0.832   4.251  0.3630  0.9386 -0.1412
 1245EOH      O 4982   0.303   6.181   3.239 -0.1785 -1.1236 -0.0064
 1245EOH      C 4983   0.401   6.195   3.136 -0.2055  0.0145  0.1140
 1245EOH      C 4984   0.443   6.050   3.106  0.2650  0.0757  0.4715
 1245EOH      H 4985   0.270   6.269   3.253  2.5087  0.0289 -0.6874
 1246EOH      O 4986   6.176   1.854   1.819  0.2093  0.0031  0.4390
 1246EOH      C 4987   6.149   1.895   1.684 -0.1987  0.3560  0.6258
 1246EOH      C 4988   6.098   1.770   1.611  0.7656  0.1500  0.2934
 1246EOH      H 4989   6.091   1.846   1.859 -0.7805  1.8393 -1.2052
 1247EOH      O 4990   1.744   1.112   4.158  0.7011  0.1068 -0.1168
 1247EOH      C 4991   1.827   1.007   4.209  0.0951 -0.3718 -0.1123
 1247EOH      C 4992   1.948   0.984   4.116  0.6740 -0.4240  0.6515
 1247EOH      H 4993   1.707   1.076   4.079 -0.4448 -2.9041  1.7025
 1248EOH      O 4994   5.581   4.914   0.385 -0.2346  0.2252  0.5525
 1248EOH      C 4995   5.445   4.882   0.353 -0.0196  0.0754 -0.2266
 1248EOH      C 4996   5.452   4.816   0.214 -0.1322  0.0275 -0.2096
 1248EOH      H 4997   5.602   5.000   0.353 -0.6693 -0.5522 -1.9774
 1249EOH      O 4998   1.834   4.400   4.523 -0.3818 -0.2369 -0.4655
 1249EOH      C 4999   1.925   4.290   4.536  0.2815  0.2997 -0.5369
 1249EOH      C 5000   1.841   4.161   4.538  0.8350 -0.0550 -0.0878
 1249EOH      H 5001   1.802   4.430   4.607  1.8084 -1.3565  0.8121
 1250EOH      O 5002   3.740   2.638   3.517 -0.1864 -0.0535 -0.3296
 1250EOH      C 5003   3.805   2.603   3.395 -0.0431 -0.1360 -0.2288
 1250EOH      C 5004   3.883   2.477   3.439 -0.1576 -0.0274  0.2827
 1250EOH      H 5005   3.810   2.677   3.567 -0.1917 -0.8762  0.3181
 1251EOH      O 5006   3.058   3.303   2.578 -0.0970 -0.1893  0.3335
 1251EOH      C 5007   2.970   3.414   2.556  0.2181  0.0090  0.0665
 1251EOH      C 5008   3.000   3.522   2.661 -0.6221  0.1433  0.1683
 1251EOH      H 5009   3.144   3.342   2.583 -0.5484  1.0676 -1.2954
 1252EOH      O 5010   4.954   2.716   3.916  0.1000 -0.1894  0.6168
 1252EOH      C 5011   4.820   2.686   3.955  0.0489 -0.3090  0.3535
 1252EOH      C 5012   4.788   2.742   4.095  0.2071  0.3475  0.1284
 1252EOH      H 5013   4.955   2.784   3.850  1.2829 -0.9020 -0.1137
 1253EOH      O 5014   4.468   1.453   4.454 -0.2131 -0.2594  0.2307
 1253EOH      C 5015   4.568   1.359   4.416 -0.2311 -0.2469  0.1509
 1253EOH      C 5016   4.568   1.234   4.507  0.3781 -0.1396  0.3028
 1253EOH      H 5017   4.390   1.422   4.409 -0.5355  0.3978  0.3274
 1254EOH      O 5018   2.410   2.729   4.275  0.1388 -0.0989  0.1533
 1254EOH      C 5019   2.538   2.793   4.277  0.1004 -0.0265  0.4113
 1254EOH      C 5020   2.534   2.937   4.331  0.4450  0.2484 -0.2837
 1254EOH      H 5021   2.426   2.643   4.238 -0.4995 -0.9316  1.7538
 1255EOH      O 5022   0.304   1.554   2.405 -0.4415  0.1295 -0.0931
 1255EOH      C 5023   0.294   1.510   2.541 -0.3446  0.4595  0.0217
 1255EOH      C 5024   0.406   1.562   2.632 -0.6496  0.3848  0.4410
 1255EOH      H 5025   0.238   1.510   2.354  1.8680 -2.2352 -1.1448
 1256EOH      O 5026   2.232   1.078   2.731  0.2567 -0.2748  0.2162
 1256EOH      C 5027   2.132   1.025   2.644  0.0526  0.4223  0.0251
 1256EOH      C 5028   2.153   1.092   2.506 -0.4647 -0.9878 -0.7473
 1256EOH      H 5029   2.203   1.164   2.758  3.3474  0.9725 -0.2186
 1257EOH      O 5030   5.448   1.143   1.779 -0.8717 -0.2473 -0.3151
 1257EOH      C 5031   5.384   1.267   1.746  0.1854  0.3427 -0.1422
 1257EOH      C 5032   5.279   1.261   1.634 -0.7091 -0.1206  0.7147
 1257EOH      H 5033   5.522   1.161   1.834 -0.8414 -0.1943 -0.3749
 1258EOH      O 5034   4.063   0.980   2.511 -0.1940 -0.1338  0.4175
 1258EOH      C 5035   4.188   0.983   2.580  0.1061  0.4821 -0.1522
 1258EOH      C 5036   4.184   1.111   2.665  0.4865  0.1121  0.4274
 1258EOH      H 5037   4.067   0.933   2.429  0.4665 -0.2016  0.4857
 1259EOH      O 5038   0.795   5.454   4.881  0.4185  0.1667  0.4161
 1259EOH      C 5039   0.749   5.531   4.770 -0.1755  0.0169  0.5603
 1259EOH      C 5040   0.850   5.639   4.729 -0.2004 -0.3240 -0.4066
 1259EOH      H 5041   0.716   5.456   4.932 -0.5979  0.2458 -1.1162
 1260EOH      O 5042   0.843   4.273   2.393  0.4037 -0.2933  0.4247
 1260EOH      C 5043   0.858   4.213   2.264  0.0125  0.6326 -0.0603
 1260EOH      C 5044   1.005   4.198   2.220 -0.3509 -1.2199 -0.6758
 1260EOH      H 5045   0.863   4.365   2.381  0.3562  0.2558  4.0196
 1261EOH      O 5046   0.559   5.524   0.782 -0.1366  0.1073 -0.3880
 1261EOH      C 5047   0.653   5.454   0.863  0.0154  0.2027 -0.4815
 1261EOH      C 5048   0.708   5.318   0.817  0.5183 -0.0757  0.8903
 1261EOH      H 5049   0.599   5.556   0.703 -1.4531  0.7658 -0.8126
 1262EOH      O 5050   0.701   0.105   4.120 -0.0628 -0.1729  0.2184
 1262EOH      C 5051   0.731   0.029   4.003  0.0623  0.0345  0.1162
 1262EOH      C 5052   0.884   0.012   4.006 -0.0081 -0.6519 -0.1350
 1262EOH      H 5053   0.775   0.161   4.137 -0.2612  0.4494 -0.9523
 1263EOH      O 5054   4.397   2.413   1.871  0.0572 -0.2075  0.0332
 1263EOH      C 5055   4.314   2.464   1.766  0.4919  0.0848 -0.1727
 1263EOH      C 5056   4.315   2.617   1.784 -0.2159  0.0877 -0.1392
 1263EOH      H 5057   4.361   2.329   1.894  0.1333 -0.5034 -0.8969
 1264EOH      O 5058   3.469   4.173   5.892 -0.4728 -0.2994  0.2765
 1264EOH      C 5059   3.577   4.105   5.957 -0.0066  0.0409 -0.1414
 1264EOH      C 5060   3.621   4.194   6.075 -0.0367 -0.2285  0.0734
 1264EOH      H 5061   3.387   4.135   5.921 -0.5676 -0.8564 -0.7315
 1265EOH      O 5062   0.201   4.324   2.838  0.2962 -0.3114 -0.2935
 1265EOH      C 5063   0.288   4.360   2.946  0.0858  0.0604 -0.2463
 1265EOH      C 5064   0.240   4.497   2.995 -0.9919 -0.4128  0.0403
 1265EOH      H 5065   0.191   4.230   2.831  2.0508 -0.5886  0.4753
 1266EOH      O 5066   0.183   4.764   0.293 -0.1169 -0.1538 -0.3665
 1266EOH      C 5067   0.114   4.706   0.404  0.4419  0.2459  0.1962
 1266EOH      C 5068   0.035   4.812   0.482 -0.4442 -0.3165  0.0610
 1266EOH      H 5069   0.206   4.854   0.311  1.9519 -0.9933  1.4724
 1267EOH      O 5070   1.186   2.921   4.492  0.1406  0.4979 -0.4380
 1267EOH      C 5071   1.184   2.784   4.533  0.1581  0.6234 -0.0244
 1267EOH      C 5072   1.193   2.695   4.408  0.4349  0.1557  0.3264
 1267EOH      H 5073   1.096   2.949   4.500  0.2117  0.8791 -0.9355
 1268EOH      O 5074   2.407   1.900   4.137  0.4769 -0.3791  0.6046
 1268EOH      C 5075   2.475   1.987   4.227  0.2342  0.0228  0.4013
 1268EOH      C 5076   2.607   2.039   4.167  0.0322 -0.0109 -0.0738
 1268EOH      H 5077   2.421   1.930   4.049 -1.2673 -1.2471 -0.0012
 1269EOH      O 5078   6.099   1.276   4.667 -0.1604 -0.6552  0.1562
 1269EOH      C 5079   6.088   1.282   4.524  0.0370  0.6707  0.1855
 1269EOH      C 5080   6.215   1.224   4.459  0.1247  0.1164  0.8445
 1269EOH      H 5081   6.021   1.234   4.700 -0.0578 -2.1331 -1.4194
 1270EOH      O 5082   0.161   2.118   3.605  0.1527  0.1551  0.0337
 1270EOH      C 5083   0.233   2.113   3.729 -0.0192  0.7197  0.1556
 1270EOH      C 5084   0.383   2.139   3.704  0.2280 -0.1572  0.7179
 1270EOH      H 5085   0.087   2.059   3.616  1.3124 -1.2588  0.3857
 1271EOH      O 5086   2.904   4.607   1.939 -0.3591 -0.1112 -0.2288
 1271EOH      C 5087   2.835   4.725   1.895 -0.2962 -0.1105 -0.3241
 1271EOH      C 5088   2.814   4.719   1.742  0.1242  0.0784 -0.3903
 1271EOH      H 5089   2.928   4.628   2.028  0.5288 -1.1217 -0.2212
 1272EOH      O 5090   1.892   0.246   4.994  0.5844 -0.3339 -0.1259
 1272EOH      C 5091   1.892   0.330   5.110  0.2577 -0.5742  0.0509
 1272EOH      C 5092   1.973   0.277   5.229  0.4289  0.0436  0.2149
 1272EOH      H 5093   1.912   0.304   4.923  0.9889  0.3061  0.4979
 1273EOH      O 5094   5.053   0.809   3.518 -0.5322 -0.4608  0.5073
 1273EOH      C 5095   4.945   0.856   3.437  0.0493 -0.3282 -0.1993
 1273EOH      C 5096   5.007   0.942   3.326  0.1194 -0.0844  0.0300
 1273EOH      H 5097   5.034   0.828   3.608  0.1221 -2.5860  1.1183
 1274EOH      O 5098   1.131   4.609   5.449  0.8017 -0.1957 -0.1563
 1274EOH      C 5099   0.999   4.555   5.443  0.6430  0.1792 -0.0346
 1274EOH      C 5100   0.921   4.572   5.311 -0.3225  0.3314  0.5443
 1274EOH      H 5101   1.191   4.561   5.505  1.5152 -0.6647 -1.2888
 1275EOH      O 5102   3.101   1.240   3.171 -0.1551  0.1410 -0.0791
 1275EOH      C 5103   3.050   1.253   3.304 -0.4152 -0.1957 -0.1459
 1275EOH      C 5104   2.938   1.359   3.308  0.0131  0.2339  0.4787
 1275EOH      H 5105   3.160   1.166   3.172  0.4474  0.6188 -0.1554
 1276EOH      O 5106   2.128   2.945   0.022  0.3648  0.3086 -0.0024
 1276EOH      C 5107   2.053   3.034  -0.061  0.1426  0.2285  0.1121
 1276EOH      C 5108   1.917   3.070   0.001 -0.0783 -0.4743  0.0487
 1276EOH      H 5109   2.210   2.950  -0.024 -0.3337 -2.3129 -1.5968
 1277EOH      O 5110   0.794   5.056   1.111 -0.5092  0.5667 -0.0567
 1277EOH      C 5111   0.668   5.068   1.044 -0.2060  0.0179 -0.7271
 1277EOH      C 5112   0.557   5.042   1.148  0.2326 -0.1438 -0.2921
 1277EOH      H 5113   0.840   4.984   1.071 -1.6371 -0.1690 -0.0465
 1278EOH      O 5114   2.136   0.362   2.599 -0.0562 -0.3539  0.3931
 1278EOH      C 5115   2.106   0.248   2.518 -0.6170  0.1801 -0.1488
 1278EOH      C 5116   2.074   0.285   2.372  0.5996  0.5393 -0.3300
 1278EOH      H 5117   2.223   0.354   2.635 -0.4051 -1.3936  1.0318
 1279EOH      O 5118   5.633   5.797   2.191  0.0123 -0.7293  0.3743
 1279EOH      C 5119   5.737   5.770   2.097  0.1425 -0.0621  0.3198
 1279EOH      C 5120   5.720   5.857   1.972 -0.0015 -0.2183  0.2309
 1279EOH      H 5121   5.659   5.769   2.278  0.3138  2.7927  1.5288
 1280EOH      O 5122   0.593   0.220   1.087 -0.2107  0.2609 -0.5701
 1280EOH      C 5123   0.623   0.359   1.105  0.1771  0.1757 -0.5405
 1280EOH      C 5124   0.770   0.387   1.137  0.0272  0.6553 -0.2767
 1280EOH      H 5125   0.517   0.214   1.031  0.9251  1.2787 -2.2709
 1281EOH      O 5126   2.473   3.253   6.048  0.7086  0.7499 -0.8349
 1281EOH      C 5127   2.385   3.365   6.059  0.2996  0.2959  0.6138
 1281EOH      C 5128   2.238   3.335   6.097 -0.0875  0.4391 -0.7440
 1281EOH      H 5129   2.548   3.290   6.005  1.7080  1.7950  1.6961
 1282EOH      O 5130   1.669   2.004   1.471 -0.4095  0.0239 -0.2022
 1282EOH      C 5131   1.617   2.020   1.603 -0.0568 -0.7919  0.0380
 1282EOH      C 5132   1.741   2.037   1.693 -0.2201  0.6710 -0.0072
 1282EOH      H 5133   1.660   1.914   1.444 -0.2099 -0.1812  0.4107
 1283EOH      O 5134   6.006   5.414   0.372  0.1085  0.0430  0.1301
 1283EOH      C 5135   5.927   5.456   0.483 -0.0371  0.2727 -0.0622
 1283EOH      C 5136   6.002   5.576   0.545  0.0458  0.3940 -0.3969
 1283EOH      H 5137   6.008   5.481   0.306 -1.8073  1.2662  1.2790
 1284EOH      O 5138   5.042   3.451   3.278 -0.7116  0.1609  0.2668
 1284EOH      C 5139   5.109   3.367   3.373 -0.1154  0.3522  0.0160
 1284EOH      C 5140   5.147   3.231   3.311  0.4479  0.5118  0.0034
 1284EOH      H 5141   4.960   3.407   3.261 -0.2869 -0.7951  0.6081
 1285EOH      O 5142   5.837   3.235   0.640 -0.1141  0.2654 -0.0957
 1285EOH      C 5143   5.924   3.123   0.624  0.0304  0.3844 -0.1430
 1285EOH      C 5144   5.862   3.010   0.540  0.6064  0.2597 -0.4065
 1285EOH      H 5145   5.852   3.275   0.724  2.3024 -1.8206  0.5404
 1286EOH      O 5146   0.303   0.639   1.715  0.0651  0.3570  0.5784
 1286EOH      C 5147   0.196   0.576   1.644 -0.0010  0.5781  0.4829
 1286EOH      C 5148   0.184   0.440   1.714  0.3496  0.3089  0.0236
 1286EOH      H 5149   0.274   0.658   1.803  0.6328  1.9850  0.4333
 1287EOH      O 5150   5.687   0.932   5.528  0.0290 -0.1505 -0.7751
 1287EOH      C 5151   5.668   0.812   5.605  0.0493  0.4113  0.1191
 1287EOH      C 5152   5.517   0.783   5.621  0.0236  0.1779 -0.5103
 1287EOH      H 5153   5.678   0.909   5.437  0.6239  2.2355 -1.4639
 1288EOH      O 5154   5.122   1.442   4.559  0.0011 -0.1133 -0.1750
 1288EOH      C 5155   4.987   1.393   4.565 -0.0485 -0.0654 -0.8835
 1288EOH      C 5156   4.987   1.262   4.645 -0.1418  0.5724  0.1699
 1288EOH      H 5157   5.119   1.504   4.630 -0.2264  1.6374 -1.6821
 1289EOH      O 5158   0.424   0.784   2.053  0.2369 -0.2371  0.2246
 1289EOH      C 5159   0.499   0.854   1.954  0.6080 -0.0435  0.6408
 1289EOH      C 5160   0.627   0.777   1.917  0.5484  0.3803 -0.4808
 1289EOH      H 5161   0.461   0.807   2.137  0.6948 -0.3505  0.0536
 1290EOH      O 5162   3.254   4.785   5.222  0.1385 -0.1237 -0.1799
 1290EOH      C 5163   3.202   4.663   5.275 -0.0083 -0.3481 -0.8295
 1290EOH      C 5164   3.305   4.573   5.345 -0.1786  0.0872 -0.0072
 1290EOH      H 5165   3.184   4.812   5.164 -1.2925 -0.6558  1.2657
 1291EOH      O 5166   0.910   0.517   2.975  0.3021  0.1305 -0.1823
 1291EOH      C 5167   0.986   0.398   2.990 -0.0714 -0.1798 -0.7259
 1291EOH      C 5168   1.133   0.436   3.015 -0.3317  0.3714 -0.0290
 1291EOH      H 5169   0.952   0.558   2.900 -1.0108  0.1449 -0.9313
 1292EOH      O 5170   5.706   3.422   1.555  0.5340 -0.4612 -0.6480
 1292EOH      C 5171   5.577   3.425   1.617  0.6443  0.0369 -0.4399
 1292EOH      C 5172   5.570   3.329   1.738  0.2122 -0.2890 -0.7211
 1292EOH      H 5173   5.762   3.467   1.616  0.8854 -3.0176  1.0014
 1293EOH      O 5174   3.540   2.460   1.743  0.5922  0.3460  0.7281
 1293EOH      C 5175   3.447   2.459   1.852 -0.4871  0.0482 -0.1835
 1293EOH      C 5176   3.316   2.381   1.830 -0.0679 -0.5434 -0.6261
 1293EOH      H 5177   3.622   2.500   1.766  0.5498  1.4325 -0.8912
 1294EOH      O 5178   1.259   0.079   0.911 -0.4186  0.2172  0.0044
 1294EOH      C 5179   1.224   0.200   0.978 -0.5378  0.0195  0.2982
 1294EOH      C 5180   1.337   0.305   0.974 -0.4749 -0.0783 -0.5684
 1294EOH      H 5181   1.245   0.016   0.979 -1.5297 -2.6407 -2.7239
 1295EOH      O 5182   2.819   1.368   5.238 -0.6424 -0.1031  0.2576
 1295EOH      C 5183   2.787   1.272   5.137 -0.2676  0.1512 -0.1051
 1295EOH      C 5184   2.867   1.284   5.006 -0.4895 -0.0049 -0.2559
 1295EOH      H 5185   2.885   1.325   5.291  0.4260  0.4036 -0.6262
 1296EOH      O 5186   1.673   0.764   0.037  0.3720  0.6532 -0.0944
 1296EOH      C 5187   1.661   0.822   0.167 -0.3025  0.3121  0.0001
 1296EOH      C 5188   1.792   0.843   0.245  0.4759 -0.6083 -1.0440
 1296EOH      H 5189   1.730   0.694   0.065  0.0242  0.9654  1.4783
 1297EOH      O 5190   3.322   2.109   4.533  0.5181  0.0724  0.3935
 1297EOH      C 5191   3.392   1.993   4.580  0.3948 -0.2672 -0.2536
 1297EOH      C 5192   3.289   1.880   4.595 -0.1987  0.3756  0.5345
 1297EOH      H 5193   3.376   2.169   4.484 -2.6954  1.3565 -1.6975
 1298EOH      O 5194   4.086   4.427   2.133  0.4874 -0.4474  0.8562
 1298EOH      C 5195   4.107   4.307   2.058  0.0302  0.1097 -0.1766
 1298EOH      C 5196   4.217   4.220   2.121  0.0905  0.4175  0.1418
 1298EOH      H 5197   4.164   4.478   2.117  0.0746 -0.8464 -2.9568
 1299EOH      O 5198   1.179   3.025   2.930  0.2505 -0.1628  0.7010
 1299EOH      C 5199   1.196   2.953   3.052  0.5743 -0.1863  0.6443
 1299EOH      C 5200   1.066   2.961   3.134  0.4556 -0.2216  0.4593
 1299EOH      H 5201   1.247   2.992   2.872  0.2969  0.4611  0.3955
 1300EOH      O 5202   2.986   1.511   6.165 -0.5423 -0.1018  0.7123
 1300EOH      C 5203   2.870   1.550   6.092 -0.0240  0.1982  0.0453
 1300EOH      C 5204   2.849   1.462   5.967  0.4919 -0.3107  0.3172
 1300EOH      H 5205   3.060   1.565   6.139 -0.5571  0.1737  1.2164
 1301EOH      O 5206   1.731   5.472   4.771 -0.5256  0.4545 -0.1148
 1301EOH      C 5207   1.655   5.458   4.651 -0.2820  0.1234 -0.2317
 1301EOH      C 5208   1.550   5.570   4.642 -0.8013 -0.3411 -0.0212
 1301EOH      H 5209   1.809   5.523   4.753 -0.1238  0.1523  0.7553
 1302EOH      O 5210   5.231   5.927   2.893  0.1496  0.1964 -0.0799
 1302EOH      C 5211   5.220   5.880   2.759  0.0744 -0.1227  0.0384
 1302EOH      C 5212   5.262   5.732   2.768  0.5779  0.0130 -0.0135
 1302EOH      H 5213   5.237   6.022   2.894 -0.0329  0.2083  1.3284
 1303EOH      O 5214   5.233   5.622   3.865 -0.0149 -0.2657 -0.5369
 1303EOH      C 5215   5.363   5.654   3.814  0.3409 -0.4634  0.2268
 1303EOH      C 5216   5.345   5.661   3.661  0.0292  0.0873  0.2897
 1303EOH      H 5217   5.189   5.705   3.875 -0.1466 -0.0449 -2.7269
 1304EOH      O 5218   0.092   2.429   3.981 -0.4371 -0.1318 -0.1002
 1304EOH      C 5219  -0.007   2.334   3.940  0.0829 -0.4634 -0.5859
 1304EOH      C 5220  -0.057   2.361   3.797 -0.0388  0.2280 -0.4126
 1304EOH      H 5221   0.114   2.403   4.069 -0.5278  1.2998  0.3526
 1305EOH      O 5222   2.871   2.032   1.432  0.0088  0.2287  0.0833
 1305EOH      C 5223   2.808   2.109   1.536  0.3516 -0.0917  0.5273
 1305EOH      C 5224   2.885   2.239   1.565  0.1281  0.1151  0.2085
 1305EOH      H 5225   2.952   2.005   1.472  0.3389  0.2129 -0.5983
 1306EOH      O 5226   5.837   5.555   3.854 -0.3281  0.0116 -0.4649
 1306EOH      C 5227   5.748   5.518   3.748 -0.4974  0.0628 -0.3393
 1306EOH      C 5228   5.797   5.550   3.606  0.2679 -0.8048 -0.2725
 1306EOH      H 5229   5.782   5.603   3.913 -2.0779 -2.5324  0.0483
 1307EOH      O 5230   1.226   2.208   3.322 -0.0327  0.0025  0.2421
 1307EOH      C 5231   1.091   2.255   3.307 -0.3656 -0.7347  0.8750
 1307EOH      C 5232   0.997   2.144   3.258 -0.0879 -0.8521  0.6008
 1307EOH      H 5233   1.246   2.156   3.246  1.0858 -1.5972  1.6135
 1308EOH      O 5234   0.100   2.012   1.009  0.0337  0.3917 -0.2347
 1308EOH      C 5235   0.006   2.061   0.912 -0.7525 -0.2720  0.1821
 1308EOH      C 5236   0.075   2.072   0.775  0.3664  0.5346  0.8024
 1308EOH      H 5237   0.116   2.077   1.075  0.6193  0.2728 -0.2588
 1309EOH      O 5238   1.126   6.284   4.583  0.4644 -0.1309  0.1215
 1309EOH      C 5239   1.221   6.385   4.618 -0.6208  0.8331  0.2970
 1309EOH      C 5240   1.280   6.446   4.490 -0.4951  0.0328 -0.0296
 1309EOH      H 5241   1.061   6.279   4.651 -0.4712 -0.7177 -0.8111
 1310EOH      O 5242   4.090   0.198   1.857 -0.0074 -0.4546 -0.2512
 1310EOH      C 5243   4.081   0.134   1.984  0.0158  0.1762  0.0687
 1310EOH      C 5244   4.105  -0.018   1.970 -0.4104  0.1371 -0.2252
 1310EOH      H 5245   4.057   0.286   1.868  1.5612 -0.0329  1.3738
 1311EOH      O 5246   6.255   2.012   3.618  0.2632  0.1878  0.2142
 1311EOH      C 5247   6.218   1.883   3.669  0.2454  0.0122 -0.2435
 1311EOH      C 5248   6.153   1.801   3.556 -0.5736  0.0352  0.2060
 1311EOH      H 5249   6.176   2.063   3.610  0.2404  0.1683  0.3185
 1312EOH      O 5250   1.196   2.584   0.865  0.1449 -0.4981 -0.3267
 1312EOH      C 5251   1.324   2.533   0.901  0.2079  0.0199  0.1763
 1312EOH      C 5252   1.362   2.410   0.817 -0.1540  0.1241 -0.1360
 1312EOH      H 5253   1.217   2.648   0.798  2.7791 -0.3943  0.5742
 1313EOH      O 5254   0.032   1.912   5.972  0.2055 -0.0420 -0.0452
 1313EOH      C 5255  -0.032   1.814   6.054 -0.3175  0.0555 -0.3332
 1313EOH      C 5256  -0.152   1.745   5.987 -0.2315  0.1679 -0.6022
 1313EOH      H 5257   0.093   1.957   6.029 -0.1016  2.3032 -1.5393
 1314EOH      O 5258   4.295   5.409   3.891  0.4989  0.2616  0.8066
 1314EOH      C 5259   4.231   5.537   3.900  0.2449  0.2252 -0.3808
 1314EOH      C 5260   4.304   5.635   3.994  0.1279 -0.3931  0.3530
 1314EOH      H 5261   4.378   5.407   3.847 -0.5050 -2.0298 -1.0814
 1315EOH      O 5262   3.811   4.490   3.294 -0.3411 -0.2529 -0.1635
 1315EOH      C 5263   3.944   4.478   3.345 -0.2795  0.0141 -0.2616
 1315EOH      C 5264   4.020   4.612   3.337  0.6105 -0.4734  0.0560
 1315EOH      H 5265   3.754   4.509   3.368  1.6276  0.9946  1.0826
 1316EOH      O 5266   4.700   2.577   5.242 -0.6853 -0.6979 -0.0677
 1316EOH      C 5267   4.680   2.523   5.111 -0.2911 -0.0256 -0.4080
 1316EOH      C 5268   4.571   2.599   5.035 -0.1658  0.4750 -0.0889
 1316EOH      H 5269   4.709   2.671   5.239  2.5307 -0.9897 -2.5981
 1317EOH      O 5270   2.564   4.915   5.366 -0.6042 -0.1623  0.0509
 1317EOH      C 5271   2.610   4.999   5.260 -0.1259 -0.6087 -0.0984
 1317EOH      C 5272   2.619   5.144   5.313 -0.4649 -0.3423 -0.7532
 1317EOH      H 5273   2.637   4.910   5.426  0.6491  0.1363 -1.4058
 1318EOH      O 5274   3.019   2.925   2.302  0.1894 -0.1163 -0.2855
 1318EOH      C 5275   3.143   2.868   2.342  0.2128  0.2960  0.2424
 1318EOH      C 5276   3.128   2.719   2.381  0.1985  0.1162 -0.4581
 1318EOH      H 5277   2.980   2.957   2.383  2.8120  2.4943  0.0480
 1319EOH      O 5278   0.672   2.401   1.396 -0.1784 -0.0390 -0.0324
 1319EOH      C 5279   0.715   2.494   1.296  0.0545 -0.0936  0.0159
 1319EOH      C 5280   0.608   2.601   1.266 -0.2795 -0.1708  0.9051
 1319EOH      H 5281   0.749   2.356   1.428 -0.5777 -1.4805 -1.0228
 1320EOH      O 5282   4.752   4.258   5.082 -0.2491  0.2354  0.7672
 1320EOH      C 5283   4.794   4.164   4.983  0.4023  1.0461  0.2668
 1320EOH      C 5284   4.741   4.207   4.844 -0.0991 -0.0532  0.1133
 1320EOH      H 5285   4.774   4.237   5.171 -0.6021  1.1138  1.0717
 1321EOH      O 5286   3.844   6.106   3.336  0.0044 -0.1945 -0.2528
 1321EOH      C 5287   3.733   6.132   3.250 -0.1851  0.0463  0.0646
 1321EOH      C 5288   3.705   6.283   3.246 -0.1911  0.0649  0.7527
 1321EOH      H 5289   3.835   6.019   3.371  0.9529  0.1416  0.8483
 1322EOH      O 5290   3.337   3.824   0.164  0.3448  0.2508  0.3685
 1322EOH      C 5291   3.363   3.733   0.271 -0.4859  0.0257  0.3797
 1322EOH      C 5292   3.393   3.819   0.395  0.5235  0.2048  0.0127
 1322EOH      H 5293   3.416   3.872   0.144  0.0658  0.2759 -0.7065
 1323EOH      O 5294   1.110   1.288   1.066 -0.5823  0.2846  0.3442
 1323EOH      C 5295   1.173   1.253   1.190 -0.2998  0.5074  0.2641
 1323EOH      C 5296   1.089   1.159   1.278 -0.1149 -0.1492 -0.2639
 1323EOH      H 5297   1.023   1.316   1.092 -0.8693  1.1798 -1.4818
 1324EOH      O 5298   2.238   0.096   3.806 -0.4693 -0.0640  0.4225
 1324EOH      C 5299   2.229  -0.042   3.768 -0.5939 -0.0945  0.5615
 1324EOH      C 5300   2.116  -0.079   3.670 -0.1204  0.2338 -0.1103
 1324EOH      H 5301   2.326   0.119   3.781 -0.0913 -0.8399  1.0053
 1325EOH      O 5302   5.516   3.059   2.387 -0.4417 -0.5596 -0.2094
 1325EOH      C 5303   5.521   3.118   2.257  0.9029 -0.1356  0.0235
 1325EOH      C 5304   5.440   3.018   2.172  0.2297  0.1560  0.3170
 1325EOH      H 5305   5.561   3.123   2.441 -2.0816 -0.9598  1.7052
 1326EOH      O 5306   5.927   5.195   1.728  0.0446  0.1317 -0.4566
 1326EOH      C 5307   5.868   5.134   1.613 -0.3975 -0.4034  0.0470
 1326EOH      C 5308   5.977   5.045   1.551 -0.2054  0.0024 -0.2048
 1326EOH      H 5309   5.971   5.121   1.768 -0.8094 -0.1128  0.0496
 1327EOH      O 5310   0.436   5.617   4.613 -0.5020 -0.2209 -0.6294
 1327EOH      C 5311   0.375   5.667   4.733 -0.2549 -0.0720 -0.5645
 1327EOH      C 5312   0.262   5.573   4.780 -0.1927  0.0518 -0.1664
 1327EOH      H 5313   0.375   5.621   4.541 -0.1167 -2.2636 -1.1068
 1328EOH      O 5314   3.706   4.980   4.555  0.7455  0.5227 -0.1272
 1328EOH      C 5315   3.780   5.079   4.626  0.6434  0.1792  0.4634
 1328EOH      C 5316   3.731   5.219   4.584 -0.0470 -0.0066  0.6567
 1328EOH      H 5317   3.709   4.904   4.611 -1.5918 -0.8911 -1.7985
 1329EOH      O 5318   4.400   2.283   0.895  0.6013 -0.4116 -0.1651
 1329EOH      C 5319   4.381   2.174   0.804  0.6489 -0.3227 -0.2825
 1329EOH      C 5320   4.316   2.199   0.667 -0.1861  0.2045  0.2056
 1329EOH      H 5321   4.471   2.336   0.862  0.4003 -0.8276 -1.3069
 1330EOH      O 5322   3.476   2.422   0.868 -0.2954  0.1115  0.1716
 1330EOH      C 5323   3.508   2.284   0.887 -0.3144  0.1211  0.2712
 1330EOH      C 5324   3.657   2.250   0.906 -0.2851  0.0372 -0.1098
 1330EOH      H 5325   3.490   2.477   0.943 -0.1360 -0.2631  0.4170
 1331EOH      O 5326   5.615   2.350   1.425 -0.7202 -0.2209  0.3263
 1331EOH      C 5327   5.617   2.422   1.548  0.4735  0.5573 -0.1396
 1331EOH      C 5328   5.473   2.450   1.595  0.2113  0.2109 -0.7304
 1331EOH      H 5329   5.588   2.261   1.441  1.2530 -0.4893  2.3159
 1332EOH      O 5330   5.241   6.161   1.648 -0.1705 -0.1996  0.4714
 1332EOH      C 5331   5.342   6.061   1.667 -0.2881 -0.4837 -0.3660
 1332EOH      C 5332   5.469   6.115   1.735 -0.6312 -0.1855  0.0458
 1332EOH      H 5333   5.162   6.112   1.666  0.5346 -0.9729  1.5307
 1333EOH      O 5334   2.945   3.057   2.512 -0.1492 -0.6013  0.0086
 1333EOH      C 5335   2.815   3.088   2.563 -0.0622  0.0203 -0.1501
 1333EOH      C 5336   2.805   3.092   2.717  0.1099 -0.4080 -0.1285
 1333EOH      H 5337   3.004   3.125   2.540 -1.3332  0.9777 -1.3007
 1334EOH      O 5338   3.468   0.411   4.187 -0.0286  0.2919 -0.0332
 1334EOH      C 5339   3.356   0.498   4.207  0.1476  0.4627  0.2190
 1334EOH      C 5340   3.366   0.626   4.122  0.4924  0.9005  0.9087
 1334EOH      H 5341   3.547   0.446   4.228  0.4687 -1.0962  0.2159
 1335EOH      O 5342   0.562   3.259   1.485 -0.5064  0.0983  0.1452
 1335EOH      C 5343   0.698   3.271   1.527 -0.4175 -0.2454 -0.0402
 1335EOH      C 5344   0.783   3.383   1.463  0.0607 -0.3755  0.3676
 1335EOH      H 5345   0.563   3.212   1.403  1.7402 -1.4090  0.9796
 1336EOH      O 5346   2.130   4.342   6.032 -0.3921 -0.4086  0.0721
 1336EOH      C 5347   2.246   4.422   6.056 -0.6636 -0.1170  0.4025
 1336EOH      C 5348   2.291   4.484   5.922 -0.3595 -0.4154  0.3682
 1336EOH      H 5349   2.107   4.298   6.112  0.2095 -0.8075  0.0277
 1337EOH      O 5350   6.048   2.147   3.534  0.5230  0.0832  0.1877
 1337EOH      C 5351   5.913   2.193   3.532  0.4265 -0.1918  0.3535
 1337EOH      C 5352   5.920   2.344   3.562  0.0077  0.0237 -0.6098
 1337EOH      H 5353   6.068   2.134   3.442  1.6602 -0.7227  0.5385
 1338EOH      O 5354   2.771   2.245   2.228  0.5420  0.3234  0.1198
 1338EOH      C 5355   2.833   2.234   2.356  0.5591 -0.0114  0.0817
 1338EOH      C 5356   2.956   2.325   2.342  0.1863  0.4781 -0.0333
 1338EOH      H 5357   2.690   2.294   2.235 -1.4736 -3.1393  2.6917
 1339EOH      O 5358   2.210   3.622   5.698 -0.3310  0.5760  0.0651
 1339EOH      C 5359   2.086   3.554   5.713 -0.0276  0.0195  0.0539
 1339EOH      C 5360   2.040   3.462   5.598 -0.0132  0.3357 -0.2024
 1339EOH      H 5361   2.223   3.652   5.609 -1.5244  0.0950 -0.2675
 1340EOH      O 5362   4.018   1.412   4.827  0.1425  0.2429  0.2295
 1340EOH      C 5363   4.149   1.456   4.790  0.0780 -0.0422 -0.3451
 1340EOH      C 5364   4.204   1.503   4.926  0.0392 -0.0385 -0.3303
 1340EOH      H 5365   3.972   1.469   4.886 -1.3944 -0.0950 -0.5934
 1341EOH      O 5366   2.021   2.485   2.791 -0.3142  0.0817 -0.1536
 1341EOH      C 5367   2.027   2.625   2.822 -0.1973 -0.0091  0.2415
 1341EOH      C 5368   2.037   2.654   2.973  0.4792 -0.2880  0.2519
 1341EOH      H 5369   1.990   2.486   2.702 -1.7526  0.8656  0.3392
 1342EOH      O 5370   3.560   4.245   4.557  0.2070 -0.1111 -0.2244
 1342EOH      C 5371   3.466   4.280   4.454  0.2338 -0.3556 -0.3317
 1342EOH      C 5372   3.520   4.264   4.311 -0.4940  0.0670 -0.6599
 1342EOH      H 5373   3.578   4.153   4.549  1.1526  0.0068  0.5151
 1343EOH      O 5374   5.034   4.772   1.166 -0.1768 -0.0796 -0.6458
 1343EOH      C 5375   5.105   4.811   1.049  0.3273  0.3763 -0.1953
 1343EOH      C 5376   5.188   4.936   1.084  0.6752 -0.0963  0.6834
 1343EOH      H 5377   4.964   4.836   1.174 -1.0325 -0.9398 -1.2434
 1344EOH      O 5378   4.240   1.451   4.345 -0.0671 -0.9100 -0.0557
 1344EOH      C 5379   4.106   1.457   4.295  0.0252  0.1481 -0.1702
 1344EOH      C 5380   4.100   1.417   4.146  0.0690 -0.7055  0.0591
 1344EOH      H 5381   4.259   1.542   4.334 -1.4311 -0.5002  0.8399
 1345EOH      O 5382   2.490   0.072   4.081  0.2118  0.0599  0.3319
 1345EOH      C 5383   2.568  -0.046   4.062  0.4684  0.2486  0.2018
 1345EOH      C 5384   2.607  -0.116   4.194 -0.6515 -0.1306  0.3371
 1345EOH      H 5385   2.405   0.033   4.094 -0.2003  0.0616 -2.1984
 1346EOH      O 5386   2.021   1.758   0.790 -0.2474 -0.3084  0.1980
 1346EOH      C 5387   2.158   1.717   0.779 -0.3801 -0.5148 -0.7132
 1346EOH      C 5388   2.175   1.608   0.886 -0.5249  0.0803 -0.0769
 1346EOH      H 5389   2.028   1.852   0.781 -1.2686 -0.0845  1.6347
 1347EOH      O 5390   5.078   0.632   4.484  0.1638  0.2862  0.0018
 1347EOH      C 5391   4.995   0.517   4.506  0.0806  0.3507  0.0225
 1347EOH      C 5392   4.890   0.513   4.393  0.7206 -0.3654 -0.5519
 1347EOH      H 5393   5.168   0.612   4.502 -0.2268 -0.5659  1.0344
 1348EOH      O 5394   2.793   3.913   5.445  0.3335 -0.0007 -0.0557
 1348EOH      C 5395   2.801   3.942   5.585 -0.1795 -0.6068  0.0969
 1348EOH      C 5396   2.935   3.883   5.632  0.2521  0.3394  0.0621
 1348EOH      H 5397   2.841   3.980   5.397 -2.2792 -0.1443 -3.0158
 1349EOH      O 5398   0.726   0.970   4.703  0.0548 -0.3544  0.4731
 1349EOH      C 5399   0.769   0.840   4.745 -0.0382 -0.4146  0.3823
 1349EOH      C 5400   0.759   0.754   4.618 -0.0537  0.0928  0.0425
 1349EOH      H 5401   0.655   0.963   4.641  0.0011 -1.8262  0.6682
 1350EOH      O 5402   2.548   3.958   1.209  0.0062  0.0986 -0.1250
 1350EOH      C 5403   2.604   4.049   1.303 -0.3996  0.1041  0.1125
 1350EOH      C 5404   2.660   3.967   1.421  0.5625  0.4005 -0.1315
 1350EOH      H 5405   2.493   4.005   1.148  1.6777  0.3287 -1.4887
 1351EOH      O 5406   2.900   1.665   4.511  0.0075  0.2688 -1.0270
 1351EOH      C 5407   2.784   1.600   4.455 -0.2988 -0.1842  0.1253
 1351EOH      C 5408   2.747   1.476   4.538  0.2000 -0.1757  0.3668
 1351EOH      H 5409   2.900   1.759   4.500  1.6082  0.5913  1.4196
 1352EOH      O 5410   3.260   6.223   5.975  0.1285  0.3662  0.4083
 1352EOH      C 5411   3.371   6.276   5.903 -0.1887  0.2511 -0.1623
 1352EOH      C 5412   3.351   6.241   5.754  0.5279  0.0870 -0.2209
 1352EOH      H 5413   3.259   6.270   6.057  2.1173  1.0586  0.0595
 1353EOH      O 5414   2.830   0.475   4.707  0.0049 -0.0825 -0.5372
 1353EOH      C 5415   2.923   0.577   4.745 -0.2073 -0.2479  0.4432
 1353EOH      C 5416   2.892   0.638   4.883  0.0913  0.2246  0.3027
 1353EOH      H 5417   2.748   0.510   4.678 -0.5761 -0.4662  0.5968
 1354EOH      O 5418   4.111   0.641   3.931 -0.1400  0.0866 -0.3293
 1354EOH      C 5419   4.223   0.572   3.874  0.0585  0.1864 -0.0633
 1354EOH      C 5420   4.329   0.668   3.816 -0.0977  0.1403 -0.4275
 1354EOH      H 5421   4.028   0.618   3.893 -1.0340  1.1325  0.9473
 1355EOH      O 5422   6.086   5.399   5.897 -0.1804  0.3956  0.3033
 1355EOH      C 5423   6.167   5.294   5.950  0.0044  0.3296 -0.1108
 1355EOH      C 5424   6.196   5.185   5.844  0.5018  0.0883  0.2703
 1355EOH      H 5425   5.997   5.368   5.885 -0.5496  2.2489 -2.1805
 1356EOH      O 5426   5.662   0.181   1.691  0.1016 -0.2917 -0.3724
 1356EOH      C 5427   5.701   0.095   1.799  0.1716  0.2233  0.0138
 1356EOH      C 5428   5.773  -0.029   1.745 -0.5903 -0.0498 -0.3778
 1356EOH      H 5429   5.572   0.200   1.709  0.5961  1.7422  0.1453
 1357EOH      O 5430   1.577   0.283   1.729  0.1131 -0.3731  0.1506
 1357EOH      C 5431   1.475   0.187   1.699  0.3656 -0.3883 -0.6637
 1357EOH      C 5432   1.523   0.059   1.629  1.0351 -0.2348 -0.4841
 1357EOH      H 5433   1.525   0.362   1.725 -0.5611 -0.8094  0.0313
 1358EOH      O 5434   1.433   4.043   2.789  0.2180 -0.3289  0.0205
 1358EOH      C 5435   1.481   3.933   2.866 -0.6829 -0.5009  0.3438
 1358EOH      C 5436   1.549   3.833   2.771 -0.3022  0.2211 -0.1487
 1358EOH      H 5437   1.392   4.012   2.709  0.9784  0.6948 -0.7857
 1359EOH      O 5438   4.711   6.288   0.919 -0.2764 -0.4488 -0.1526
 1359EOH      C 5439   4.834   6.336   0.864 -0.2147 -0.4253  0.0065
 1359EOH      C 5440   4.828   6.319   0.712  0.1928  0.1736 -0.0808
 1359EOH      H 5441   4.635   6.342   0.905  0.3692  0.7832  0.9524
 1360EOH      O 5442   3.830   4.894   2.480 -0.3924 -0.8952  0.0110
 1360EOH      C 5443   3.849   4.927   2.342  0.2902 -0.0565  0.3056
 1360EOH      C 5444   3.975   4.864   2.279  0.0581 -0.0443 -0.1767
 1360EOH      H 5445   3.885   4.947   2.535  0.1417  0.1156 -1.4567
 1361EOH      O 5446   1.186   5.761   3.977  0.1605  0.2534  0.2262
 1361EOH      C 5447   1.097   5.858   3.920 -0.1656  0.2023  0.6435
 1361EOH      C 5448   1.074   5.840   3.768  0.4951 -0.1396  0.5818
 1361EOH      H 5449   1.181   5.763   4.071  1.0730  1.2575  0.2671
 1362EOH      O 5450   0.847   0.329   4.163 -0.3370  0.1181 -0.0399
 1362EOH      C 5451   0.839   0.423   4.270  0.3773 -0.6488  0.7019
 1362EOH      C 5452   0.956   0.521   4.249 -0.5969  0.2555 -0.5748
 1362EOH      H 5453   0.887   0.370   4.088 -1.5203 -1.2029 -1.4342
 1363EOH      O 5454   3.247   1.456   4.388 -0.2690  0.2307 -0.0748
 1363EOH      C 5455   3.375   1.417   4.437 -0.1847  0.3368 -0.2082
 1363EOH      C 5456   3.492   1.456   4.346  0.1524 -0.5428 -0.1615
 1363EOH      H 5457   3.198   1.491   4.461  0.3660 -0.2663  0.5959
 1364EOH      O 5458   1.473   4.410   2.025 -0.0655  0.3026 -0.4550
 1364EOH      C 5459   1.330   4.414   2.038 -0.0518 -0.4092 -0.0551
 1364EOH      C 5460   1.298   4.487   2.170 -0.1090 -0.2393 -0.1623
 1364EOH      H 5461   1.504   4.334   1.980  1.5913  1.1518 -0.7815
 1365EOH      O 5462   1.961   2.660   4.284 -0.1305 -0.2126  0.2432
 1365EOH      C 5463   1.929   2.668   4.423  0.2736  0.1656  0.3148
 1365EOH      C 5464   1.777   2.651   4.440  0.1963  0.8166  0.2971
 1365EOH      H 5465   2.026   2.726   4.264  1.6255 -0.8357  3.5215
 1366EOH      O 5466   1.140   3.696   4.876  0.2036  0.1620  0.2919
 1366EOH      C 5467   1.160   3.826   4.820  0.3056  0.1720  0.3516
 1366EOH      C 5468   1.037   3.876   4.742  0.4595  0.0360  0.0207
 1366EOH      H 5469   1.166   3.629   4.814  2.5442  0.0532  1.3329
 1367EOH      O 5470   5.323   3.765   3.839 -0.2513  0.5033 -0.2930
 1367EOH      C 5471   5.204   3.690   3.815  0.0374  0.0524 -0.3192
 1367EOH      C 5472   5.079   3.774   3.847 -0.0466 -0.1316 -0.1649
 1367EOH      H 5473   5.293   3.844   3.880  1.0341  0.3395  0.9900
 1368EOH      O 5474   3.831   2.356   4.810  0.1439 -0.5296 -0.1766
 1368EOH      C 5475   3.701   2.398   4.768  0.1501 -0.4851 -0.1524
 1368EOH      C 5476   3.609   2.275   4.761  0.3807 -0.6471 -0.3529
 1368EOH      H 5477   3.832   2.348   4.904 -2.2650 -0.0801 -0.0967
 1369EOH      O 5478   5.411   3.999   4.192  0.0245  0.4036 -0.5888
 1369EOH      C 5479   5.419   4.126   4.258 -0.1779  0.0512  0.1241
 1369EOH      C 5480   5.536   4.204   4.194 -0.3097 -0.0601 -0.2527
 1369EOH      H 5481   5.497   3.959   4.196 -0.6616 -1.0290 -0.0143
 1370EOH      O 5482   6.200   2.148   3.304 -0.3234  0.1733  0.3390
 1370EOH      C 5483   6.204   2.094   3.172  0.5972  0.3857  0.2747
 1370EOH      C 5484   6.058   2.061   3.133  0.7742 -0.1840  0.0840
 1370EOH      H 5485   6.289   2.163   3.333 -0.8704 -1.1748  2.9000
 1371EOH      O 5486   3.558   3.830   1.959 -0.0630  0.6509  0.4459
 1371EOH      C 5487   3.692   3.824   1.908 -0.1087  0.4082  0.3537
 1371EOH      C 5488   3.783   3.927   1.978  0.7473  0.0447 -0.2241
 1371EOH      H 5489   3.527   3.742   1.945 -0.6760  0.5297  2.4255
 1372EOH      O 5490   4.733   3.575   4.940 -0.5258 -0.0193  0.0422
 1372EOH      C 5491   4.604   3.514   4.949 -0.5718  0.0170 -0.3667
 1372EOH      C 5492   4.549   3.476   5.087  0.2212 -0.3172 -0.1361
 1372EOH      H 5493   4.803   3.515   4.921 -0.9644 -0.2149 -0.9719
 1373EOH      O 5494   0.847   1.725   3.848 -0.0155 -0.2232 -0.0518
 1373EOH      C 5495   0.729   1.648   3.874 -0.3377  0.3263  0.1209
 1373EOH      C 5496   0.615   1.688   3.780 -0.3069 -0.2456 -0.1633
 1373EOH      H 5497   0.848   1.767   3.764 -0.1185  2.0922  1.0703
 1374EOH      O 5498   5.155   6.300   4.428  0.4157 -0.0185 -0.1726
 1374EOH      C 5499   5.123   6.439   4.429  0.3327 -0.0312 -0.7510
 1374EOH      C 5500   5.194   6.510   4.546 -0.0875  0.0274 -0.5292
 1374EOH      H 5501   5.132   6.268   4.515  3.4039  0.6524  0.9113
 1375EOH      O 5502   3.950   4.788   4.820 -0.2155  0.9598 -0.6099
 1375EOH      C 5503   4.001   4.906   4.884  0.8524  0.3117 -0.2459
 1375EOH      C 5504   4.043   4.871   5.028 -0.4724  0.4844  0.1947
 1375EOH      H 5505   4.021   4.726   4.821 -1.1266 -0.1031 -0.3275
 1376EOH      O 5506   1.374   1.501   5.071  0.1035  0.6236  0.3089
 1376EOH      C 5507   1.269   1.579   5.016  0.1090 -0.2328 -0.9312
 1376EOH      C 5508   1.305   1.727   4.993  0.0477 -0.0626  0.0427
 1376EOH      H 5509   1.317   1.439   5.115  1.4574 -2.0859 -1.6498
 1377EOH      O 5510   3.166   2.516   4.603 -0.0717  0.1286 -0.0972
 1377EOH      C 5511   3.228   2.451   4.714 -0.3412  0.2215  0.1098
 1377EOH      C 5512   3.114   2.364   4.769 -0.0439 -0.3085 -0.1029
 1377EOH      H 5513   3.096   2.572   4.635  1.0312  1.4647  0.0136
 1378EOH      O 5514   6.138   4.370   1.970  0.0492  0.5399 -0.1974
 1378EOH      C 5515   6.198   4.315   1.852  0.2173  0.0108  0.1360
 1378EOH      C 5516   6.350   4.336   1.839  0.1911 -0.0652 -0.2807
 1378EOH      H 5517   6.060   4.318   1.968  0.3307  0.0054  1.7462
 1379EOH      O 5518   2.712   3.657   5.416  0.3327 -0.3430 -0.0861
 1379EOH      C 5519   2.575   3.644   5.454  0.3411 -0.3924 -0.0745
 1379EOH      C 5520   2.579   3.600   5.601 -0.2611 -0.3113 -0.0312
 1379EOH      H 5521   2.723   3.750   5.404  0.4151 -0.3738 -0.2556
 1380EOH      O 5522   4.305   5.568   0.041  0.8903 -0.0475 -0.4109
 1380EOH      C 5523   4.350   5.498  -0.075 -0.0732 -0.1697 -0.7124
 1380EOH      C 5524   4.457   5.578  -0.153 -0.0436 -0.0976 -0.5977
 1380EOH      H 5525   4.235   5.520   0.082  1.5157 -0.8930 -0.3153
 1381EOH      O 5526   5.191   0.611   4.921 -0.1122  0.1502  0.0595
 1381EOH      C 5527   5.053   0.587   4.893 -0.0860 -0.1627  0.1957
 1381EOH      C 5528   4.967   0.657   5.000 -0.0448  0.0047  0.1178
 1381EOH      H 5529   5.193   0.626   5.015 -2.1403 -2.6250  0.6268
 1382EOH      O 5530   2.971   4.764   3.897  0.0928  0.6869  0.0041
 1382EOH      C 5531   2.909   4.840   4.000 -0.6645 -0.2158  0.2221
 1382EOH      C 5532   2.897   4.772   4.138  0.1406  0.3031  0.5497
 1382EOH      H 5533   3.007   4.682   3.930 -1.1878 -0.3938 -1.2186
 1383EOH      O 5534   3.691   2.882   4.570  0.0894  0.3345 -0.2403
 1383EOH      C 5535   3.699   2.793   4.458  0.1780 -0.1127  0.1234
 1383EOH      C 5536   3.584   2.694   4.480 -0.2874  0.3569 -0.2042
 1383EOH      H 5537   3.626   2.950   4.555  0.8724  0.9607 -0.8770
 1384EOH      O 5538   1.001   6.149   0.160 -0.0513 -0.3076  0.2155
 1384EOH      C 5539   1.008   6.150   0.018  0.1487 -0.3196  0.2247
 1384EOH      C 5540   1.152   6.109  -0.020  0.3495  0.6518 -0.0636
 1384EOH      H 5541   0.992   6.059   0.190 -0.5016 -0.0185  0.9663
 1385EOH      O 5542   0.866   6.244   3.077  0.0415  0.6585 -0.2038
 1385EOH      C 5543   0.891   6.324   3.194 -0.1901  0.1638  0.1864
 1385EOH      C 5544   1.026   6.394   3.173  0.0442 -0.2672  0.2568
 1385EOH      H 5545   0.834   6.301   3.009  0.0286  1.9599  0.8565
 1386EOH      O 5546   3.460   5.118   0.875 -0.1856  0.4000  0.0941
 1386EOH      C 5547   3.553   5.070   0.778 -0.1475  0.0628  0.2974
 1386EOH      C 5548   3.516   5.124   0.639  0.2527  0.0954  0.2034
 1386EOH      H 5549   3.458   5.062   0.951  1.1289  0.9273  0.5320
 1387EOH      O 5550   0.981   0.332   3.658  0.4697 -0.0188  0.1885
 1387EOH      C 5551   0.994   0.415   3.542  0.5945 -0.5696 -0.1904
 1387EOH      C 5552   0.915   0.365   3.420  0.4946 -0.2674 -0.2486
 1387EOH      H 5553   0.998   0.244   3.629 -0.3246 -0.4536  1.0061
 1388EOH      O 5554   6.220   1.971   4.248 -0.1159  0.2458  0.2605
 1388EOH      C 5555   6.329   2.003   4.160 -0.4622  0.3584 -0.1301
 1388EOH      C 5556   6.342   1.893   4.054 -0.2457  0.2128  0.0471
 1388EOH      H 5557   6.149   2.031   4.231 -0.8803 -0.5997  0.4245
 1389EOH      O 5558   1.375   1.738   2.413 -0.9604 -0.1582  0.2134
 1389EOH      C 5559   1.292   1.818   2.498 -0.5065  0.3881  0.1471
 1389EOH      C 5560   1.144   1.777   2.506 -0.5256  0.3783 -0.2229
 1389EOH      H 5561   1.448   1.787   2.378 -0.9500  0.2982  0.8835
 1390EOH      O 5562   3.571   5.810   4.698 -0.3429  0.0918  0.0554
 1390EOH      C 5563   3.545   5.672   4.728  0.2688 -0.1313 -0.4236
 1390EOH      C 5564   3.512   5.607   4.592  0.7783 -0.7343 -0.2608
 1390EOH      H 5565   3.575   5.847   4.785  0.0650 -0.4843  0.2918
 1391EOH      O 5566   4.481   0.077   0.936 -0.2944 -0.6049  0.0292
 1391EOH      C 5567   4.406   0.123   1.048  0.2035 -0.6243  0.3710
 1391EOH      C 5568   4.468   0.250   1.109  0.3585 -0.3291 -0.3973
 1391EOH      H 5569   4.429   0.007   0.900 -1.5575  0.4071 -0.1402
 1392EOH      O 5570   6.266   6.299   1.308  0.1888 -0.0425 -0.3970
 1392EOH      C 5571   6.287   6.434   1.265 -0.1161  0.1166 -0.0466
 1392EOH      C 5572   6.312   6.456   1.115  0.2252 -0.1077 -0.0241
 1392EOH      H 5573   6.284   6.292   1.400  0.6291 -0.1571 -0.4897
 1393EOH      O 5574   0.374   1.686   0.463 -0.4030  0.1272  0.9544
 1393EOH      C 5575   0.347   1.815   0.519 -0.1510  0.2319  0.8345
 1393EOH      C 5576   0.225   1.869   0.442 -0.1180 -0.1537  0.5105
 1393EOH      H 5577   0.466   1.676   0.446  0.2164  2.7152  2.5403
 1394EOH      O 5578   2.219   1.267   4.952 -0.3901 -0.1382  0.1865
 1394EOH      C 5579   2.252   1.404   4.929 -0.1448 -0.2232  0.0156
 1394EOH      C 5580   2.297   1.477   5.057 -0.0223 -0.0839 -0.1081
 1394EOH      H 5581   2.126   1.274   4.961 -0.6301  1.7348 -2.9944
 1395EOH      O 5582   4.164   5.416   0.196  0.2502 -0.4354 -0.2562
 1395EOH      C 5583   4.046   5.391   0.120 -0.1192  0.7084 -0.0608
 1395EOH      C 5584   3.932   5.388   0.225  0.0007  0.0492  0.0545
 1395EOH      H 5585   4.174   5.346   0.259  1.9349 -0.0754 -0.0875
 1396EOH      O 5586   5.782   5.886   4.740  0.0836 -0.2514 -0.2872
 1396EOH      C 5587   5.691   5.799   4.672  0.1256 -0.0679 -0.5777
 1396EOH      C 5588   5.578   5.878   4.604  0.4672  0.2599 -0.7654
 1396EOH      H 5589   5.795   5.863   4.831  0.6276  3.1046  0.5317
 1397EOH      O 5590   5.195   2.189   2.155 -0.0263  0.3023  0.1067
 1397EOH      C 5591   5.079   2.250   2.098 -0.0570 -0.1563 -0.3363
 1397EOH      C 5592   4.987   2.127   2.087 -0.1610 -0.0719 -0.4068
 1397EOH      H 5593   5.233   2.254   2.212 -0.7636  0.9074 -0.0803
 1398EOH      O 5594   2.318   4.677   2.740  0.4937 -0.3285  0.2488
 1398EOH      C 5595   2.281   4.629   2.610  0.4541  0.6147 -0.0972
 1398EOH      C 5596   2.147   4.683   2.557  0.3389  0.8717  0.4540
 1398EOH      H 5597   2.383   4.617   2.773  0.2867 -1.7287 -1.7476
 1399EOH      O 5598   3.689   4.903   5.358  0.4708 -0.2074 -0.3360
 1399EOH      C 5599   3.712   4.765   5.328 -0.0270 -0.4307  0.3087
 1399EOH      C 5600   3.636   4.713   5.205  0.1478 -0.3233  0.1545
 1399EOH      H 5601   3.602   4.929   5.330  0.1662  0.0738  0.8738
 1400EOH      O 5602   2.244   1.777   4.505  0.1596  0.2830  0.0039
 1400EOH      C 5603   2.362   1.697   4.498 -0.0885 -0.1079  0.2596
 1400EOH      C 5604   2.351   1.559   4.566  0.0548 -0.1451  0.2090
 1400EOH      H 5605   2.221   1.802   4.417 -2.7443  0.2033  0.6926
 1401EOH      O 5606   1.307   3.480   4.723 -0.0545 -0.4086  0.4697
 1401EOH      C 5607   1.434   3.439   4.773  0.0856 -0.6221 -0.0589
 1401EOH      C 5608   1.508   3.552   4.846 -0.3838 -0.0262 -0.5065
 1401EOH      H 5609   1.261   3.402   4.693  2.1450 -1.6761  0.3147
 1402EOH      O 5610   0.705   4.586   3.312  0.0175  0.3868 -0.0551
 1402EOH      C 5611   0.753   4.711   3.261 -0.1987  0.3807 -0.2793
 1402EOH      C 5612   0.750   4.814   3.376  0.0933  0.0266  0.0489
 1402EOH      H 5613   0.766   4.515   3.297  1.6283  1.5930  0.7426
 1403EOH      O 5614   6.312   4.519   0.791  0.3370 -0.2216  0.0048
 1403EOH      C 5615   6.319   4.629   0.882  0.2947 -0.6685  0.5545
 1403EOH      C 5616   6.433   4.586   0.975  0.4041 -0.4267  0.5343
 1403EOH      H 5617   6.225   4.525   0.754 -0.3680 -1.3993  1.4337
 1404EOH      O 5618   1.569   0.079   3.014  0.3100  0.3151 -0.1532
 1404EOH      C 5619   1.449   0.157   3.026 -0.0497 -0.1774 -0.5152
 1404EOH      C 5620   1.331   0.073   2.974 -0.4143 -0.0880  0.1524
 1404EOH      H 5621   1.620   0.088   3.092 -0.3580  2.0178  0.1059
 1405EOH      O 5622   0.617   2.222   5.183 -1.0853  0.1653 -0.3289
 1405EOH      C 5623   0.588   2.087   5.144 -0.0713 -0.1051 -0.1600
 1405EOH      C 5624   0.634   2.008   5.268 -0.6315 -0.1231  0.0353
 1405EOH      H 5625   0.537   2.269   5.198  0.0090  2.2193 -0.7958
 1406EOH      O 5626   3.425   4.953   1.968 -0.4091  0.8440  0.0162
 1406EOH      C 5627   3.283   4.941   1.955 -0.3373  0.1083 -0.1533
 1406EOH      C 5628   3.215   4.809   1.993 -0.1114  0.1432  0.3779
 1406EOH      H 5629   3.455   5.033   1.928  1.2962 -0.4737 -1.4300
 1407EOH      O 5630   3.338   5.936   5.025  0.0511 -0.0124 -0.5245
 1407EOH      C 5631   3.256   6.018   5.108 -0.1044 -0.0060 -0.6833
 1407EOH      C 5632   3.118   5.959   5.074 -0.5278  0.0364  0.9084
 1407EOH      H 5633   3.317   5.844   5.038  0.7518  0.1466  2.0268
 1408EOH      O 5634   6.228   5.680   2.597 -0.0027 -0.1727  0.2476
 1408EOH      C 5635   6.196   5.634   2.465 -0.0756 -0.6530  0.4323
 1408EOH      C 5636   6.315   5.542   2.429  0.6030  0.3550  0.0772
 1408EOH      H 5637   6.154   5.657   2.651 -0.1675  1.6330  0.8103
 1409EOH      O 5638   2.462   1.520   1.276  0.2927 -0.4261 -0.0792
 1409EOH      C 5639   2.340   1.511   1.201  0.1629 -0.3405  0.1221
 1409EOH      C 5640   2.277   1.373   1.227  0.0357 -0.2126  0.4915
 1409EOH      H 5641   2.524   1.460   1.238  2.1417  0.8039  0.9325
 1410EOH      O 5642   0.897   4.606   2.155  0.2268 -0.2351  0.0651
 1410EOH      C 5643   0.839   4.536   2.045  0.1682  0.0759 -0.1023
 1410EOH      C 5644   0.947   4.467   1.959 -0.1869 -0.7229  0.0999
 1410EOH      H 5645   0.917   4.697   2.135 -0.1336 -0.0577  0.4865
 1411EOH      O 5646   0.097   5.128   0.026 -0.0903  0.2298  0.0393
 1411EOH      C 5647   0.197   5.177  -0.064  0.1530 -0.1302  0.1145
 1411EOH      C 5648   0.165   5.327  -0.064 -0.4592 -0.2586  0.3840
 1411EOH      H 5649   0.112   5.038   0.050  0.5626  0.1899 -0.5033
 1412EOH      O 5650   6.065   3.191   3.847  0.0223  0.1981 -0.2338
 1412EOH      C 5651   6.127   3.146   3.967 -0.1121  0.2634 -0.1396
 1412EOH      C 5652   6.268   3.206   3.981 -0.1528  0.2320  0.4602
 1412EOH      H 5653   6.025   3.274   3.870 -0.7642 -0.3259  0.2934
 1413EOH      O 5654   4.608   1.391   2.117 -0.2968 -0.1855 -0.9390
 1413EOH      C 5655   4.748   1.408   2.094 -0.1503 -0.4904 -0.2852
 1413EOH      C 5656   4.826   1.368   2.220 -0.1138 -0.2170 -0.2197
 1413EOH      H 5657   4.562   1.467   2.083  2.0992  1.4627 -0.6616
 1414EOH      O 5658   1.174   3.548   3.247 -0.0551 -0.0099 -0.5861
 1414EOH      C 5659   1.038   3.510   3.266  0.1254 -0.5328 -0.3152
 1414EOH      C 5660   1.044   3.391   3.364  0.5110 -0.1035  0.1862
 1414EOH      H 5661   1.202   3.500   3.170  1.9143 -1.2291  0.8158
 1415EOH      O 5662   2.401   4.058   1.060 -0.3137  0.0993  0.0858
 1415EOH      C 5663   2.373   4.197   1.078 -0.2977  0.1136 -0.0037
 1415EOH      C 5664   2.336   4.258   0.941 -0.1678 -0.2681 -0.2101
 1415EOH      H 5665   2.316   4.025   1.034 -0.6565  2.2417 -1.6437
 1416EOH      O 5666   1.715   0.650   1.796  0.4263  0.2814 -0.2754
 1416EOH      C 5667   1.831   0.732   1.779  0.1999  0.8188  0.7464
 1416EOH      C 5668   1.816   0.826   1.658  0.5074  0.2176  0.2392
 1416EOH      H 5669   1.737   0.583   1.858 -1.4975  0.6758  0.8957
 1417EOH      O 5670   4.623   4.776   4.630  0.1520  0.5051  0.3723
 1417EOH      C 5671   4.528   4.694   4.563  0.7533  0.1908 -0.0986
 1417EOH      C 5672   4.585   4.552   4.580 -0.1713 -0.1713 -0.0183
 1417EOH      H 5673   4.570   4.834   4.682 -1.0051  0.4791 -0.7591
 1418EOH      O 5674   1.690   4.360   4.317  0.1363 -0.6676  0.3547
 1418EOH      C 5675   1.556   4.371   4.366 -0.0232 -0.0385 -0.2286
 1418EOH      C 5676   1.480   4.481   4.289 -0.3329  0.1801  0.3909
 1418EOH      H 5677   1.740   4.356   4.397  0.4255  0.3201  0.2255
 1419EOH      O 5678   1.091   4.215   1.023 -0.0755  0.0214  0.2664
 1419EOH      C 5679   1.057   4.305   1.129 -0.1754  0.0758  0.1882
 1419EOH      C 5680   1.146   4.429   1.115 -0.0346 -0.0005  0.4026
 1419EOH      H 5681   1.183   4.198   1.015 -0.7304 -3.0769 -1.7067
 1420EOH      O 5682   5.567   6.139   3.691 -0.1353 -0.6238 -0.5388
 1420EOH      C 5683   5.464   6.088   3.777 -0.3149  0.2850 -0.2049
 1420EOH      C 5684   5.366   5.996   3.701 -0.1240 -0.0256 -0.0791
 1420EOH      H 5685   5.579   6.228   3.718 -1.1992 -0.3573 -0.8821
 1421EOH      O 5686   5.195   2.571   3.926 -1.2788  0.8269 -0.0523
 1421EOH      C 5687   5.281   2.668   3.986 -0.0167 -0.0922 -0.3553
 1421EOH      C 5688   5.242   2.682   4.134  0.2402 -0.8045 -0.2198
 1421EOH      H 5689   5.109   2.607   3.910 -1.3563 -0.3910 -2.5562
 1422EOH      O 5690   6.104   1.811   4.919  0.0609 -0.3437 -0.2891
 1422EOH      C 5691   6.072   1.704   4.830  0.0206 -0.2400 -0.3997
 1422EOH      C 5692   6.051   1.580   4.920  0.3762  0.0583  0.0924
 1422EOH      H 5693   6.050   1.885   4.898  2.1683  1.5204  0.5993
 1423EOH      O 5694   2.424   1.935   3.878  0.5220  0.0038 -0.1578
 1423EOH      C 5695   2.408   2.063   3.816 -0.2735 -0.1147 -0.2094
 1423EOH      C 5696   2.299   2.152   3.879 -0.4566 -0.0874 -0.5638
 1423EOH      H 5697   2.404   1.869   3.814  0.2392  0.6418 -0.7403
 1424EOH      O 5698   6.180   4.167   4.442  0.2081 -0.2491  0.0324
 1424EOH      C 5699   6.072   4.115   4.520 -0.0766  0.1116 -0.1182
 1424EOH      C 5700   5.945   4.084   4.439 -0.0507  0.2263 -0.2030
 1424EOH      H 5701   6.202   4.110   4.369  1.7191  0.3381  0.0054
 1425EOH      O 5702   0.524   3.393   5.466 -0.4049  0.1667  0.0778
 1425EOH      C 5703   0.448   3.452   5.360 -0.3601  0.6099  0.2931
 1425EOH      C 5704   0.300   3.408   5.358 -0.1232 -0.1996  0.3664
 1425EOH      H 5705   0.612   3.386   5.432  0.4593  2.5910  1.7493
 1426EOH      O 5706   1.322   3.075   4.632 -0.0427 -0.7812  0.3478
 1426EOH      C 5707   1.455   3.025   4.638  0.2396 -0.0125  0.6466
 1426EOH      C 5708   1.532   3.050   4.507 -0.2709  0.0089  0.3522
 1426EOH      H 5709   1.273   3.011   4.583 -0.8433  0.2942 -0.2854
 1427EOH      O 5710   4.253   3.888   3.907 -0.5081 -0.3823 -0.2438
 1427EOH      C 5711   4.281   4.027   3.891  0.7658 -0.6512 -0.4083
 1427EOH      C 5712   4.423   4.056   3.945  0.4712  0.4984 -0.2310
 1427EOH      H 5713   4.323   3.830   3.879 -0.4629 -0.7066  0.5255
 1428EOH      O 5714   2.466   1.134   4.025 -0.3149  0.2463  0.0503
 1428EOH      C 5715   2.387   1.096   3.912  0.1332  0.1102 -0.2188
 1428EOH      C 5716   2.387   1.204   3.802  0.2909  0.1221 -0.2067
 1428EOH      H 5717   2.447   1.065   4.086  0.9093 -0.2794 -0.1662
 1429EOH      O 5718   0.500   6.212   6.252  0.2953  0.7160  0.3029
 1429EOH      C 5719   0.547   6.315   6.340  0.5195  0.5664  0.3610
 1429EOH      C 5720   0.421   6.372   6.407 -0.2375  0.0204 -0.5746
 1429EOH      H 5721   0.573   6.181   6.200 -0.0359 -0.2869  0.4170
 1430EOH      O 5722   3.112   2.171   5.621  0.0589  0.3790 -0.1060
 1430EOH      C 5723   2.994   2.232   5.675  0.0286  0.0042  0.2534
 1430EOH      C 5724   2.898   2.133   5.743 -0.0611  0.1500  0.3393
 1430EOH      H 5725   3.097   2.118   5.545 -1.5464 -1.7053  1.5791
 1431EOH      O 5726   0.676   1.793   3.182 -0.3775  0.0937  0.2442
 1431EOH      C 5727   0.682   1.929   3.139 -0.3929 -0.1700 -0.5971
 1431EOH      C 5728   0.547   2.004   3.142 -0.1886  0.1504  0.5804
 1431EOH      H 5729   0.688   1.740   3.104 -1.0339  0.3612 -0.0442
 1432EOH      O 5730   3.815   1.632   0.494 -0.7246  0.2437  0.1501
 1432EOH      C 5731   3.771   1.558   0.609 -0.3217 -0.2162  0.0090
 1432EOH      C 5732   3.683   1.433   0.590 -0.2852 -0.3095  0.4499
 1432EOH      H 5733   3.864   1.710   0.516  0.0455 -0.3088  0.3925
 1433EOH      O 5734   4.754   1.974   6.022  0.2769  0.1408 -0.4802
 1433EOH      C 5735   4.880   1.912   5.995  0.3226 -0.0342  0.1377
 1433EOH      C 5736   4.921   1.804   6.098 -0.3534  0.2211  0.6805
 1433EOH      H 5737   4.716   1.997   5.939 -1.0461  1.3036  0.4337
 1434EOH      O 5738   5.607   3.099   4.788  0.6456 -0.2031 -0.1419
 1434EOH      C 5739   5.567   3.198   4.693  0.4809  0.3091  0.4549
 1434EOH      C 5740   5.573   3.147   4.547 -0.4164  0.1378  0.4744
 1434EOH      H 5741   5.534   3.042   4.805  1.1496 -1.4245 -1.9726
 1435EOH      O 5742   5.319   2.961   0.069  0.4747 -0.5514  0.1391
 1435EOH      C 5743   5.299   2.904  -0.060  0.3337  0.0661 -0.1121
 1435EOH      C 5744   5.173   2.958  -0.132  0.0570 -0.0371  0.2905
 1435EOH      H 5745   5.260   3.035   0.072 -1.0053 -1.7130 -0.0816
 1436EOH      O 5746   4.427   1.204   5.375  0.5477 -0.1419 -0.0692
 1436EOH      C 5747   4.377   1.273   5.260  0.3925 -0.1152  0.0133
 1436EOH      C 5748   4.282   1.175   5.188  0.2092  0.0565  0.0217
 1436EOH      H 5749   4.473   1.269   5.425  0.4062 -0.5145  0.5543
 1437EOH      O 5750   3.363   3.297   0.237  0.1019 -0.3178 -0.2580
 1437EOH      C 5751   3.420   3.293   0.106  0.2474  0.1332 -0.2115
 1437EOH      C 5752   3.354   3.390   0.006  0.0040  0.5608  0.3604
 1437EOH      H 5753   3.304   3.224   0.238 -2.4821  1.7226  0.0706
 1438EOH      O 5754   1.829   3.358   4.289 -0.0374  0.0295  0.3298
 1438EOH      C 5755   1.822   3.421   4.418 -0.1857 -0.0857  0.3785
 1438EOH      C 5756   1.780   3.314   4.521 -0.2242  0.1461  0.6019
 1438EOH      H 5757   1.743   3.320   4.275  0.4620 -0.7732 -0.5797
 1439EOH      O 5758   4.598   3.918   4.391 -0.1218 -0.1365 -0.3074
 1439EOH      C 5759   4.584   3.867   4.258 -0.5753 -0.5394 -0.1079
 1439EOH      C 5760   4.717   3.886   4.182 -0.4825 -0.0204  0.1799
 1439EOH      H 5761   4.547   3.867   4.452 -0.3126  2.7930  2.0757
 1440EOH      O 5762   3.505   5.256   5.935  0.1713 -0.0836 -0.0193
 1440EOH      C 5763   3.510   5.399   5.932 -0.1189 -0.0691  0.1583
 1440EOH      C 5764   3.608   5.450   5.824 -0.1981 -0.1845  0.0313
 1440EOH      H 5765   3.587   5.218   5.907  0.1911 -0.6454  0.7808
 1441EOH      O 5766   1.443   0.397   2.752  0.0982 -0.0420 -0.1721
 1441EOH      C 5767   1.352   0.332   2.662  0.3438 -0.0746 -0.3968
 1441EOH      C 5768   1.210   0.391   2.669  0.2314 -0.3430 -0.4079
 1441EOH      H 5769   1.531   0.371   2.728  0.2037  0.8222 -0.7497
 1442EOH      O 5770   4.785   2.673   6.174  0.0377  0.8949 -0.2249
 1442EOH      C 5771   4.836   2.661   6.041  0.7043 -0.4070  0.1273
 1442EOH      C 5772   4.850   2.516   5.993  0.3989 -0.4940  0.2985
 1442EOH      H 5773   4.793   2.762   6.203 -0.8025  0.8942 -0.0007
 1443EOH      O 5774   5.509   4.118   2.869  0.1198 -0.4575  0.0461
 1443EOH      C 5775   5.418   4.033   2.939  0.0379 -0.1858  0.2716
 1443EOH      C 5776   5.427   3.893   2.875  0.2303 -0.3337  0.6259
 1443EOH      H 5777   5.587   4.138   2.919  1.3359 -2.1219 -1.1057
 1444EOH      O 5778   0.317   5.075   2.360  0.7024 -0.0931 -0.0653
 1444EOH      C 5779   0.257   5.037   2.235  0.4093 -0.0999  0.0778
 1444EOH      C 5780   0.108   5.054   2.268  0.2460 -1.3666  0.0347
 1444EOH      H 5781   0.399   5.028   2.364  0.1664 -1.0133  0.4441
 1445EOH      O 5782   4.070   5.032   0.519 -0.0840 -0.0238  0.5047
 1445EOH      C 5783   3.991   4.981   0.627 -0.2370  0.0343  0.4211
 1445EOH      C 5784   3.853   4.933   0.579 -0.2573  0.5416 -0.0441
 1445EOH      H 5785   4.085   4.961   0.458  0.9037  0.7356 -0.1521
 1446EOH      O 5786   2.271   4.923   0.961 -0.4199 -0.6477  0.2092
 1446EOH      C 5787   2.371   4.836   0.908  0.0662  0.0522 -0.0257
 1446EOH      C 5788   2.317   4.698   0.947  0.6508 -0.2686 -0.3407
 1446EOH      H 5789   2.190   4.890   0.927  0.2939 -0.4206 -1.7514
 1447EOH      O 5790   1.561   6.306   2.158  0.1589  0.3288  0.2872
 1447EOH      C 5791   1.603   6.270   2.026 -0.2894  0.1785  0.1831
 1447EOH      C 5792   1.562   6.122   2.011 -0.1840  0.2008 -0.3085
 1447EOH      H 5793   1.580   6.230   2.211 -0.2813  1.8511  2.7089
 1448EOH      O 5794   1.933   2.347   2.996 -0.5625  0.2653 -0.1290
 1448EOH      C 5795   1.808   2.289   2.960 -0.7517  0.5828  0.0198
 1448EOH      C 5796   1.826   2.141   2.922  0.1772  0.7616 -0.2274
 1448EOH      H 5797   1.968   2.397   2.923 -0.7952  2.3020  1.1123
 1449EOH      O 5798   1.695   4.949   3.311  0.7189 -0.2068  0.1675
 1449EOH      C 5799   1.683   5.061   3.224  0.7458 -0.0552  0.3611
 1449EOH      C 5800   1.813   5.133   3.185  0.7636 -0.1424  0.2606
 1449EOH      H 5801   1.746   4.978   3.385  1.1133 -0.9496  0.1997
 1450EOH      O 5802   3.661   3.800   3.403  0.3305 -0.1498 -0.0024
 1450EOH      C 5803   3.586   3.819   3.524  0.3287  0.5388 -0.1110
 1450EOH      C 5804   3.684   3.808   3.642 -0.1654  0.4650  0.2917
 1450EOH      H 5805   3.598   3.825   3.337  0.3961  2.9391  0.9956
 1451EOH      O 5806   5.143   5.250   1.763  0.1737  0.2700 -0.6986
 1451EOH      C 5807   5.071   5.192   1.653 -0.2101 -0.4535 -0.0675
 1451EOH      C 5808   5.175   5.131   1.557 -0.2176 -0.0428 -0.3391
 1451EOH      H 5809   5.152   5.179   1.825 -1.8087  1.4473  0.9859
 1452EOH      O 5810   5.013   3.064   1.871  0.2086  0.1713 -0.0034
 1452EOH      C 5811   5.156   3.067   1.867  0.1967  0.3786 -0.3267
 1452EOH      C 5812   5.217   3.199   1.818  0.1347  0.3362 -0.5192
 1452EOH      H 5813   4.976   3.062   1.784  1.7245 -1.5421 -0.6367
 1453EOH      O 5814   1.834   3.059   4.812 -0.4295 -0.4539  0.0193
 1453EOH      C 5815   1.784   3.148   4.913 -0.2413 -0.0408 -0.2503
 1453EOH      C 5816   1.878   3.265   4.949 -0.2854 -0.2266  0.4684
 1453EOH      H 5817   1.864   2.985   4.862  2.6158 -0.1608 -1.2455
 1454EOH      O 5818   3.869   2.364   5.060  0.1442  0.1756 -0.0033
 1454EOH      C 5819   3.905   2.270   5.162 -0.2803  0.0557  0.0352
 1454EOH      C 5820   3.775   2.188   5.167  0.0461 -0.4664  0.0053
 1454EOH      H 5821   3.925   2.440   5.073 -0.6747  0.7053  0.5022
 1455EOH      O 5822   3.941   5.308   5.945 -0.5254  0.1866 -0.5060
 1455EOH      C 5823   3.998   5.437   5.968 -0.3449 -0.0240  0.2465
 1455EOH      C 5824   3.887   5.491   6.060 -0.9803 -0.1210 -0.4558
 1455EOH      H 5825   4.000   5.267   5.884 -0.3651 -0.5884  0.1459
 1456EOH      O 5826   6.291   0.466   3.849 -0.4665  0.0128 -0.3223
 1456EOH      C 5827   6.212   0.479   3.967  0.1469  1.0750 -0.0167
 1456EOH      C 5828   6.070   0.426   3.936  0.8790 -0.6942 -0.4563
 1456EOH      H 5829   6.302   0.550   3.806  0.7369 -1.2259 -2.5440
 1457EOH      O 5830   5.555   4.052   4.795  0.2037 -0.1103  0.2852
 1457EOH      C 5831   5.630   3.969   4.706 -0.1081 -0.3904  0.2839
 1457EOH      C 5832   5.768   3.938   4.768  0.1874  0.2527 -0.0531
 1457EOH      H 5833   5.613   4.119   4.829  1.2502 -0.6102 -0.4772
 1458EOH      O 5834   3.762   5.836   2.490  0.8399 -0.1453 -0.1966
 1458EOH      C 5835   3.679   5.926   2.416  0.4567  0.1794  0.6235
 1458EOH      C 5836   3.766   6.032   2.347  0.2697 -0.0872 -0.0294
 1458EOH      H 5837   3.741   5.844   2.581 -0.0211 -0.1621 -0.3861
 1459EOH      O 5838   4.811   4.456   3.619  0.4143 -0.2568 -0.2730
 1459EOH      C 5839   4.924   4.522   3.561  0.3705 -0.0497 -0.1245
 1459EOH      C 5840   5.054   4.485   3.634  0.0988  0.0201  0.4016
 1459EOH      H 5841   4.826   4.468   3.712 -1.3523  0.2540 -0.0201
 1460EOH      O 5842   0.404   0.164   2.605  0.6226  0.2433 -0.3779
 1460EOH      C 5843   0.304   0.190   2.704  0.4708  0.1581 -0.5082
 1460EOH      C 5844   0.313   0.088   2.819 -0.2186  0.4666 -0.1766
 1460EOH      H 5845   0.370   0.185   2.519 -0.2723 -0.6989 -0.2679
 1461EOH      O 5846   3.106   1.739   2.903  0.5095  0.0978 -0.6316
 1461EOH      C 5847   3.166   1.820   3.004 -0.2299  0.0127 -0.1208
 1461EOH      C 5848   3.317   1.792   3.004 -0.2430 -0.0630  0.0810
 1461EOH      H 5849   3.139   1.652   2.923  0.6560 -0.1299 -1.7982
 1462EOH      O 5850   3.398   2.457   3.536 -0.2759  0.2846  0.3582
 1462EOH      C 5851   3.313   2.568   3.507 -0.2096  0.1570 -0.3518
 1462EOH      C 5852   3.176   2.522   3.454 -0.2832 -0.4907  0.3940
 1462EOH      H 5853   3.461   2.484   3.600  1.3207 -1.4627 -0.4218
 1463EOH      O 5854   2.968   0.431   5.706  0.1553 -0.5268 -0.0944
 1463EOH      C 5855   2.992   0.374   5.577  0.0670  0.2969 -0.4812
 1463EOH      C 5856   3.138   0.325   5.568 -0.0605 -0.1635 -0.1054
 1463EOH      H 5857   2.897   0.492   5.691  1.9978  1.4620 -0.9065
 1464EOH      O 5858   2.464   2.829   2.997 -0.0885 -0.1289  0.2992
 1464EOH      C 5859   2.432   2.785   2.865  0.1894 -0.3234  0.2951
 1464EOH      C 5860   2.317   2.866   2.801  0.1844 -0.0657  0.6320
 1464EOH      H 5861   2.408   2.795   3.065 -1.4708  0.5007 -0.5057
 1465EOH      O 5862   1.641   1.768   1.386 -0.3239 -0.1279  0.2777
 1465EOH      C 5863   1.656   1.723   1.251  0.3503  0.2104  0.2355
 1465EOH      C 5864   1.800   1.759   1.210  0.2861  0.3244  0.1111
 1465EOH      H 5865   1.631   1.683   1.426 -1.5285 -1.1243 -2.0107
 1466EOH      O 5866   3.842   5.382   3.416 -0.2779 -0.0137  0.1241
 1466EOH      C 5867   3.844   5.525   3.420  0.0525 -0.0256  0.4023
 1466EOH      C 5868   3.752   5.568   3.304  0.5349  0.1093  0.0684
 1466EOH      H 5869   3.931   5.349   3.418  0.3794  1.5419 -1.5571
 1467EOH      O 5870   4.476   4.568   6.047  0.2688  0.0347  0.1043
 1467EOH      C 5871   4.356   4.496   6.076  0.3499 -0.0749  0.1702
 1467EOH      C 5872   4.309   4.505   6.222 -0.0894 -0.0119  0.0288
 1467EOH      H 5873   4.534   4.571   6.121 -0.1988  2.1570  0.4313
 1468EOH      O 5874   2.670   3.773   1.097 -0.2589  0.7759  0.2797
 1468EOH      C 5875   2.729   3.809   0.972 -0.5044 -0.5930 -0.2310
 1468EOH      C 5876   2.834   3.705   0.927  0.1218  0.1868 -0.5640
 1468EOH      H 5877   2.622   3.846   1.135  1.0685  0.7607  2.0862
 1469EOH      O 5878   4.703   4.332   1.505 -0.3136 -0.6882  0.2600
 1469EOH      C 5879   4.813   4.373   1.587 -0.0960 -0.2623 -0.2413
 1469EOH      C 5880   4.933   4.409   1.497  0.4042  0.0667  0.5520
 1469EOH      H 5881   4.629   4.389   1.517 -0.4288 -0.2989 -2.0228
 1470EOH      O 5882   2.593   6.137   2.288 -0.4175 -0.6013  0.3222
 1470EOH      C 5883   2.624   6.030   2.198 -0.5047 -0.5091  0.1809
 1470EOH      C 5884   2.749   5.951   2.243 -0.1380 -0.0329  0.0073
 1470EOH      H 5885   2.613   6.215   2.239  1.3201  0.0923  2.0645
 1471EOH      O 5886   5.010   0.285   0.535  0.1796 -0.3667  0.0637
 1471EOH      C 5887   5.034   0.417   0.584  0.2275 -0.5606  0.5691
 1471EOH      C 5888   5.170   0.468   0.533 -0.0118  0.1871  0.6698
 1471EOH      H 5889   4.915   0.282   0.532  0.0379  1.4389  1.6311
 1472EOH      O 5890   3.519   2.597   1.049  0.1020 -0.0226 -0.0744
 1472EOH      C 5891   3.406   2.685   1.056  0.1873  0.0525  0.3755
 1472EOH      C 5892   3.346   2.731   0.923 -0.0853  0.1492  0.5315
 1472EOH      H 5893   3.536   2.576   1.140  0.8464  1.8291  0.2528
 1473EOH      O 5894   3.601   2.475   1.270 -0.2621  0.3608 -0.1071
 1473EOH      C 5895   3.705   2.377   1.277 -0.3633  0.2779  0.2589
 1473EOH      C 5896   3.665   2.244   1.344 -0.0692  0.3942  0.6674
 1473EOH      H 5897   3.577   2.498   1.359  1.3915  2.1101 -0.0860
 1474EOH      O 5898   3.854   3.465   0.856 -0.1175  0.4626  0.0884
 1474EOH      C 5899   3.775   3.352   0.894  0.0331  0.5046  0.5404
 1474EOH      C 5900   3.826   3.280   1.020 -0.3384 -0.4237  0.1626
 1474EOH      H 5901   3.805   3.507   0.788 -1.1247 -0.5512  0.1824
 1475EOH      O 5902   2.077   1.208   3.448 -0.4637 -0.6455 -0.4448
 1475EOH      C 5903   2.181   1.253   3.361 -0.2326 -0.2555  0.0311
 1475EOH      C 5904   2.156   1.169   3.235 -0.1730  0.1386 -0.2431
 1475EOH      H 5905   2.010   1.275   3.454  0.6007  0.4638 -0.5627
 1476EOH      O 5906   4.506   1.708   4.473 -0.0413 -0.7703 -0.1231
 1476EOH      C 5907   4.638   1.723   4.525 -0.1323 -0.0171 -0.1134
 1476EOH      C 5908   4.714   1.836   4.453  0.0191 -0.0848 -0.0579
 1476EOH      H 5909   4.482   1.616   4.481  1.5415 -1.1676  0.1598
 1477EOH      O 5910   1.958   3.233   3.500 -0.2596  0.6005  0.1171
 1477EOH      C 5911   1.901   3.124   3.572  0.1800  0.2920 -0.0007
 1477EOH      C 5912   2.018   3.030   3.609 -0.2628 -0.1142  0.3840
 1477EOH      H 5913   1.892   3.274   3.446  1.0907 -0.3200 -2.3194
 1478EOH      O 5914   0.545   2.396   6.260  0.1515  0.0523  0.4272
 1478EOH      C 5915   0.641   2.298   6.218 -0.0521 -0.0819  0.2743
 1478EOH      C 5916   0.586   2.177   6.139 -0.3699  0.1696  0.1119
 1478EOH      H 5917   0.568   2.477   6.219 -0.2374  0.3273  0.7555
 1479EOH      O 5918   1.820   4.667   4.382  0.0226 -0.4482  0.1501
 1479EOH      C 5919   1.912   4.714   4.284 -0.6842  0.2445 -0.1838
 1479EOH      C 5920   2.025   4.802   4.342  0.2456 -0.5811 -0.7149
 1479EOH      H 5921   1.832   4.578   4.412  0.2983 -0.1839  0.8373
 1480EOH      O 5922   3.329   1.900   5.468 -0.2331  0.2249 -0.0660
 1480EOH      C 5923   3.410   1.896   5.585 -0.0065  0.0742 -0.2278
 1480EOH      C 5924   3.433   1.752   5.634  0.6010  0.0671 -0.5279
 1480EOH      H 5925   3.379   1.869   5.394  0.2959  2.0309 -0.5127
 1481EOH      O 5926   0.097   3.264   0.092  0.1432  1.0447 -0.2636
 1481EOH      C 5927   0.043   3.335  -0.020 -0.0774 -0.1450 -0.9143
 1481EOH      C 5928  -0.097   3.393   0.005  0.0257 -0.1027 -0.4448
 1481EOH      H 5929   0.160   3.206   0.051 -0.1110  0.2271  0.5015
 1482EOH      O 5930   1.407   4.110   0.314 -0.1906  0.2306 -0.3022
 1482EOH      C 5931   1.544   4.125   0.275 -0.1369 -0.0918 -0.2415
 1482EOH      C 5932   1.583   3.987   0.219 -0.2920 -0.3712  0.3389
 1482EOH      H 5933   1.360   4.094   0.234 -0.4240  3.0083 -0.7848
 1483EOH      O 5934   5.468   0.717   2.261  0.0493 -0.5029  0.0668
 1483EOH      C 5935   5.551   0.691   2.147  0.3186 -0.0759  0.1633
 1483EOH      C 5936   5.678   0.776   2.132  0.2846 -0.1278 -0.4487
 1483EOH      H 5937   5.379   0.693   2.242  0.4394 -1.6518 -0.3519
 1484EOH      O 5938   2.484   0.236   2.424 -0.0400 -0.1056  0.0029
 1484EOH      C 5939   2.481   0.360   2.352  0.7300  0.1178  0.3485
 1484EOH      C 5940   2.526   0.477   2.442  0.2483  0.3022  0.3535
 1484EOH      H 5941   2.439   0.170   2.374 -0.4203 -1.0023  1.5049
 1485EOH      O 5942   0.912   5.719   4.302 -0.0642  0.2550 -0.0276
 1485EOH      C 5943   0.872   5.849   4.346 -0.2049  0.2505 -0.1439
 1485EOH      C 5944   0.886   5.950   4.230 -0.2312  0.4392  0.0173
 1485EOH      H 5945   0.839   5.681   4.256  0.6861 -0.9895 -0.1943
 1486EOH      O 5946   1.401   5.177   3.791  0.3857 -0.2380 -0.0144
 1486EOH      C 5947   1.364   5.123   3.664  0.2486 -0.1376 -0.0163
 1486EOH      C 5948   1.493   5.063   3.607  0.3007 -0.0392 -0.0014
 1486EOH      H 5949   1.404   5.269   3.769 -2.2901 -0.2402 -0.5597
 1487EOH      O 5950   0.557   1.008   4.519 -0.0727 -0.0682  0.3470
 1487EOH      C 5951   0.514   0.940   4.401  0.7058 -0.2230  0.1553
 1487EOH      C 5952   0.446   0.803   4.419  0.0105  0.1716  0.5350
 1487EOH      H 5953   0.580   1.095   4.489 -1.2293  0.3306  0.5874
 1488EOH      O 5954   3.995   3.650   5.612 -0.0293 -0.6682  0.1370
 1488EOH      C 5955   4.089   3.641   5.720  0.0804 -0.2623  0.0784
 1488EOH      C 5956   4.041   3.535   5.821 -0.7122  0.1487  0.1387
 1488EOH      H 5957   4.017   3.723   5.556 -0.7595 -0.3760  0.2167
 1489EOH      O 5958   2.120   3.182   3.076 -0.8671  0.0392  0.0954
 1489EOH      C 5959   2.154   3.212   3.212  0.5512  0.3090 -0.3102
 1489EOH      C 5960   2.154   3.359   3.258  0.5704  0.2284 -0.0543
 1489EOH      H 5961   2.195   3.204   3.023  1.4713  0.4233  3.4230
 1490EOH      O 5962   3.707   4.304   0.742  0.0107  0.3086 -0.3272
 1490EOH      C 5963   3.785   4.185   0.752  0.0132  0.3648  0.2878
 1490EOH      C 5964   3.930   4.236   0.764  0.2056 -0.0746 -0.1605
 1490EOH      H 5965   3.641   4.283   0.678  0.7611 -2.3729 -0.2728
 1491EOH      O 5966   4.252   5.496   4.701  0.2307 -0.9600  0.1827
 1491EOH      C 5967   4.111   5.486   4.725  0.1000 -0.2856 -0.2919
 1491EOH      C 5968   4.114   5.449   4.875  0.1446 -0.0473 -0.2340
 1491EOH      H 5969   4.278   5.571   4.650 -0.9678 -0.9915 -0.4917
 1492EOH      O 5970   1.330   5.245   5.842  0.7852  0.0805 -0.0101
 1492EOH      C 5971   1.285   5.156   5.944  0.3423 -0.4227 -0.6436
 1492EOH      C 5972   1.199   5.040   5.889 -0.5655 -0.3979  0.7148
 1492EOH      H 5973   1.366   5.194   5.771  3.1477 -1.2489  2.0811
 1493EOH      O 5974   4.116   4.625   0.764  0.2796 -0.0162 -0.8991
 1493EOH      C 5975   4.205   4.536   0.831 -0.3420  0.1169  0.1228
 1493EOH      C 5976   4.299   4.467   0.730 -0.4925 -0.2631  0.2427
 1493EOH      H 5977   4.053   4.653   0.829  1.2888 -0.5343  0.3113
 1494EOH      O 5978   2.826   2.805   3.982 -0.3538  0.4878 -0.8432
 1494EOH      C 5979   2.902   2.722   4.070 -0.3168  0.5492 -0.8181
 1494EOH      C 5980   3.004   2.645   3.985 -0.0997  0.1606 -0.2108
 1494EOH      H 5981   2.755   2.746   3.960 -1.4157  1.3946  0.1021
 1495EOH      O 5982   5.807   4.870   1.844 -0.2704  0.3840  0.0433
 1495EOH      C 5983   5.832   4.758   1.929 -0.2676  0.6354  0.3751
 1495EOH      C 5984   5.838   4.804   2.076  0.3959  0.1237  0.5105
 1495EOH      H 5985   5.887   4.921   1.841 -0.2444  0.2956 -0.8694
 1496EOH      O 5986   0.497   4.107   0.816 -0.3175 -0.3337 -0.2054
 1496EOH      C 5987   0.430   4.113   0.689 -0.3467  0.3796 -0.1589
 1496EOH      C 5988   0.484   4.005   0.593  0.2036  0.6518 -0.1612
 1496EOH      H 5989   0.567   4.169   0.817  2.5680 -3.4256 -1.6148
 1497EOH      O 5990   3.918   1.873   2.181 -0.6313 -0.0387  0.2177
 1497EOH      C 5991   4.022   1.787   2.132 -0.1067  0.7951 -0.1452
 1497EOH      C 5992   4.037   1.807   1.980  0.1384 -0.0274 -0.2287
 1497EOH      H 5993   3.948   1.917   2.258 -1.1782 -1.3825  1.2234
 1498EOH      O 5994   3.242   2.956   0.093 -0.0062 -0.7274  0.1375
 1498EOH      C 5995   3.124   2.904   0.030 -0.4877 -0.0559  0.4813
 1498EOH      C 5996   3.112   2.752   0.052  0.0091 -0.1277  0.2589
 1498EOH      H 5997   3.317   2.933   0.040 -0.9440 -0.8224 -1.1789
 1499EOH      O 5998   1.379   1.499   2.335 -0.1264 -0.2187 -0.1384
 1499EOH      C 5999   1.303   1.417   2.425 -0.1663  0.2488  0.2598
 1499EOH      C 6000   1.159   1.395   2.375  0.0796 -0.1903 -0.2533
 1499EOH      H 6001   1.356   1.588   2.359 -2.7031 -1.3362  1.8532
 1500EOH      O 6002   1.893   1.414   5.582 -0.0750  0.0359  0.5233
 1500EOH      C 6003   1.931   1.284   5.537  0.6876  0.2765  0.4558
 1500EOH      C 6004   1.926   1.198   5.665 -0.3402  0.0536  0.2702
 1500EOH      H 6005   1.967   1.456   5.624 -0.9546  0.4519  1.6752
 1501EOH      O 6006   1.887   5.754   5.758  0.2420  0.0884 -0.4228
 1501EOH      C 6007   1.755   5.736   5.705  0.3068 -0.5242 -0.3784
 1501EOH      C 6008   1.735   5.845   5.599 -0.3036 -0.5277 -0.2702
 1501EOH      H 6009   1.949   5.733   5.690  0.5722  0.3735 -0.2120
 1502EOH      O 6010   1.297   0.854   0.500  0.3050  0.0938 -0.2237
 1502EOH      C 6011   1.245   0.972   0.562  0.4069 -0.0046  0.0506
 1502EOH      C 6012   1.206   1.067   0.447 -0.0573 -0.0070  0.2056
 1502EOH      H 6013   1.225   0.798   0.477  0.1732 -0.7032  1.9965
 1503EOH      O 6014   1.117   0.533   5.112 -0.2355  0.2332  0.5086
 1503EOH      C 6015   1.158   0.667   5.086 -0.2474  0.1014 -0.1946
 1503EOH      C 6016   1.155   0.753   5.214  0.5649 -0.2703  0.0798
 1503EOH      H 6017   1.073   0.497   5.037  0.9930 -1.4649  0.5643
 1504EOH      O 6018   3.421   5.134   6.124 -0.1625  0.0863  0.1779
 1504EOH      C 6019   3.327   5.047   6.058  0.5337 -0.4462 -0.1211
 1504EOH      C 6020   3.216   5.029   6.163 -0.1123  0.7723 -0.5846
 1504EOH      H 6021   3.447   5.201   6.063  1.0445 -1.6663 -1.3059
 1505EOH      O 6022   3.983   2.578   1.888 -0.0725 -0.0478 -0.7498
 1505EOH      C 6023   3.957   2.464   1.971  0.5951  0.4238  0.1059
 1505EOH      C 6024   4.078   2.418   2.055  0.3697  0.1742  0.2950
 1505EOH      H 6025   3.907   2.597   1.835 -0.0165  2.2682 -0.0239
 1506EOH      O 6026   0.438   4.658   1.254 -0.0905  1.2617  0.0943
 1506EOH      C 6027   0.549   4.690   1.338  0.2473  0.1859  0.0686
 1506EOH      C 6028   0.519   4.656   1.485 -0.4944 -0.8578 -0.3257
 1506EOH      H 6029   0.432   4.564   1.255 -0.7420  1.3084  0.8702
 1507EOH      O 6030   5.349   2.007   3.281  0.5668  0.1249 -0.0461
 1507EOH      C 6031   5.335   1.933   3.160 -0.1385 -0.0641  0.1508
 1507EOH      C 6032   5.349   1.785   3.202  0.0379  0.0031  0.3239
 1507EOH      H 6033   5.298   2.085   3.270 -0.8064 -0.5668  1.3157
 1508EOH      O 6034   0.396   4.520   5.380 -0.1473 -0.2142  0.0732
 1508EOH      C 6035   0.456   4.485   5.505  0.3893  0.1078 -0.0921
 1508EOH      C 6036   0.571   4.578   5.548  0.2493  0.1645  0.1618
 1508EOH      H 6037   0.367   4.610   5.386 -1.5792 -0.7955  2.2004
 1509EOH      O 6038   1.586   5.241   5.481 -0.0240 -0.1967  0.9640
 1509EOH      C 6039   1.724   5.277   5.473 -0.0934 -0.2198 -0.4587
 1509EOH      C 6040   1.735   5.430   5.480 -0.1476 -0.2524  0.4094
 1509EOH      H 6041   1.537   5.257   5.402  2.8053  0.5056 -0.7105
 1510EOH      O 6042   0.385   0.760   3.483 -0.4013 -0.2599  0.1404
 1510EOH      C 6043   0.487   0.673   3.432  0.0238  0.4785 -0.2729
 1510EOH      C 6044   0.621   0.701   3.503 -0.3562  0.4148  0.4810
 1510EOH      H 6045   0.374   0.732   3.573  0.6689  0.9229  0.6413
 1511EOH      O 6046   5.993   0.625   2.445 -0.4312 -0.0564  0.2143
 1511EOH      C 6047   5.932   0.748   2.483  0.1022  0.2269  0.1589
 1511EOH      C 6048   5.935   0.756   2.637  0.1987 -0.9819  0.2207
 1511EOH      H 6049   6.084   0.651   2.450 -0.2289 -0.7054 -0.0770
 1512EOH      O 6050   0.114   3.214   2.998 -0.0695 -0.1031  0.0129
 1512EOH      C 6051   0.179   3.159   3.113  0.1756 -0.1253 -0.1368
 1512EOH      C 6052   0.310   3.091   3.068  0.1925 -0.3458  0.2417
 1512EOH      H 6053   0.177   3.249   2.937 -1.4742  2.1017 -0.2420
 1513EOH      O 6054   3.568   1.642   1.862 -0.2440 -0.1513  0.3238
 1513EOH      C 6055   3.653   1.695   1.963 -0.0193  0.2615 -0.0817
 1513EOH      C 6056   3.567   1.777   2.061 -0.2215 -0.0217 -0.0231
 1513EOH      H 6057   3.528   1.566   1.902  1.8090 -0.1975  2.3280
 1514EOH      O 6058   2.153   1.883   4.284  0.0149  0.3895 -0.6585
 1514EOH      C 6059   2.039   1.916   4.204 -0.3682  0.1873 -0.1986
 1514EOH      C 6060   2.046   2.064   4.159  0.2034  0.2336  0.0373
 1514EOH      H 6061   2.238   1.901   4.245 -0.0382 -0.4071 -1.1450
 1515EOH      O 6062   1.571   1.499   6.078 -0.3873  0.0438 -0.0960
 1515EOH      C 6063   1.600   1.546   5.947 -0.3500  0.0053 -0.1018
 1515EOH      C 6064   1.650   1.426   5.864 -0.4747 -0.2210  0.1520
 1515EOH      H 6065   1.492   1.447   6.068  0.4222 -0.9977 -1.1961
 1516EOH      O 6066   0.747   4.560   3.963  0.1167  0.2391 -0.0434
 1516EOH      C 6067   0.668   4.666   3.907 -0.1575  0.2083  0.2785
 1516EOH      C 6068   0.524   4.644   3.956 -0.2930  0.8121  0.1568
 1516EOH      H 6069   0.836   4.592   3.962  0.4192 -0.6251 -0.1819
 1517EOH      O 6070   0.086   2.988   5.423  0.0542  0.1655 -0.5133
 1517EOH      C 6071   0.161   3.094   5.482  0.4422 -0.4975  0.2033
 1517EOH      C 6072   0.305   3.044   5.509  0.2553 -0.5540  1.1201
 1517EOH      H 6073   0.026   3.026   5.362 -0.5371 -0.6801 -0.4718
 1518EOH      O 6074   2.292   3.350   0.703 -0.8535 -0.3469  0.1516
 1518EOH      C 6075   2.313   3.491   0.691  0.5398 -0.5774 -0.2434
 1518EOH      C 6076   2.426   3.531   0.787 -0.1224  0.4980  0.1095
 1518EOH      H 6077   2.374   3.309   0.682 -0.6874  0.0075  0.0894
 1519EOH      O 6078   5.652   1.154   3.704 -0.5181 -0.3023  0.3380
 1519EOH      C 6079   5.557   1.058   3.752 -0.1819 -0.7135  0.1817
 1519EOH      C 6080   5.442   1.054   3.650  0.5210 -0.2804 -0.6362
 1519EOH      H 6081   5.677   1.203   3.781 -0.7903  1.9466 -0.9722
 1520EOH      O 6082   1.705   0.034   2.798  0.0768 -0.2524  0.0294
 1520EOH      C 6083   1.830  -0.024   2.835  0.1151 -0.1608  0.0450
 1520EOH      C 6084   1.904  -0.082   2.713  0.2067 -0.2500  0.1425
 1520EOH      H 6085   1.649   0.042   2.875  0.0721 -0.8628  0.0926
 1521EOH      O 6086   5.165   2.198   3.243  0.1565 -0.2546 -0.0149
 1521EOH      C 6087   5.029   2.179   3.281  0.0152 -0.3111 -0.5452
 1521EOH      C 6088   5.003   2.214   3.429  0.4771 -0.6285 -0.3882
 1521EOH      H 6089   5.151   2.263   3.176  0.3014 -1.9084 -1.6906
 1522EOH      O 6090   0.658   5.876   1.752 -0.0189  0.1735 -0.0962
 1522EOH      C 6091   0.774   5.959   1.761  0.0003  0.1617 -0.2321
 1522EOH      C 6092   0.762   6.060   1.646 -0.4146  0.0579 -0.2798
 1522EOH      H 6093   0.652   5.829   1.670 -2.0737  1.3120 -0.6295
 1523EOH      O 6094   1.856   1.546   0.013  0.1804  0.1011  0.0110
 1523EOH      C 6095   1.869   1.434  -0.075 -0.4490 -0.0025  0.0467
 1523EOH      C 6096   1.849   1.304   0.005 -0.3640 -0.3973 -0.5670
 1523EOH      H 6097   1.764   1.566   0.007  0.0720  0.0765  1.4673
 1524EOH      O 6098   5.963   0.316   1.857  0.4550  0.5691 -0.4612
 1524EOH      C 6099   5.945   0.387   1.981  0.1857  0.0963 -0.2305
 1524EOH      C 6100   6.045   0.503   1.987 -0.0719  0.2917  0.2884
 1524EOH      H 6101   5.968   0.380   1.788 -0.4471 -0.3800 -1.4073
 1525EOH      O 6102   4.625   5.232   5.537  0.4221  0.1990  0.3462
 1525EOH      C 6103   4.671   5.154   5.427  0.2475  0.7150 -0.0941
 1525EOH      C 6104   4.586   5.026   5.427  0.2513  0.7037 -0.9696
 1525EOH      H 6105   4.684   5.305   5.551  0.1784  0.8076 -1.6778
 1526EOH      O 6106   5.120   5.995   1.909  0.0200  0.5724 -0.0249
 1526EOH      C 6107   5.112   6.077   2.026 -0.6220 -0.2642  0.5232
 1526EOH      C 6108   4.993   6.175   2.027 -0.8625 -0.5469  0.0395
 1526EOH      H 6109   5.162   5.912   1.925  0.4927  1.2482  2.4081
 1527EOH      O 6110   4.383   3.316   6.003 -0.0877 -0.0193 -0.2421
 1527EOH      C 6111   4.458   3.369   5.893  0.4681 -0.4725 -0.0801
 1527EOH      C 6112   4.578   3.422   5.972  0.0286 -0.4084  0.5412
 1527EOH      H 6113   4.364   3.228   5.976  1.6071 -0.0601 -1.4568
 1528EOH      O 6114   5.448   1.689   0.074  0.5607 -0.3177 -0.1798
 1528EOH      C 6115   5.497   1.573   0.142 -0.7104 -0.0713  1.1818
 1528EOH      C 6116   5.411   1.445   0.138 -0.6452 -0.0819  0.0095
 1528EOH      H 6117   5.499   1.708  -0.003 -1.3436  2.1668 -0.8777
 1529EOH      O 6118   3.821   0.994   2.982  0.4141 -0.0137 -0.5140
 1529EOH      C 6119   3.832   1.136   2.995  0.5928 -0.1014  0.3482
 1529EOH      C 6120   3.834   1.191   3.139  0.0362 -0.4490  0.4897
 1529EOH      H 6121   3.907   0.957   2.994 -0.9301 -3.4796 -1.0220
 1530EOH      O 6122   4.433   5.118   3.290 -0.1654  0.1275 -0.1561
 1530EOH      C 6123   4.568   5.087   3.324 -0.1174  0.6227  0.1156
 1530EOH      C 6124   4.618   4.963   3.248  0.2310  0.4950  0.5506
 1530EOH      H 6125   4.438   5.209   3.265 -0.8719  0.2118 -0.0110
 1531EOH      O 6126   2.345   1.279   2.379  0.0454 -0.0099  0.1345
 1531EOH      C 6127   2.487   1.279   2.362 -0.0070 -0.3936 -0.3032
 1531EOH      C 6128   2.515   1.391   2.260 -0.5082 -0.3341 -0.3775
 1531EOH      H 6129   2.299   1.313   2.304 -0.1873  1.6395  0.9877
 1532EOH      O 6130   1.063   2.463   2.705 -0.0536 -0.3489  0.4239
 1532EOH      C 6131   1.120   2.541   2.810 -0.0322  0.3325 -0.0937
 1532EOH      C 6132   1.035   2.665   2.845 -0.5557 -0.0454 -0.0227
 1532EOH      H 6133   1.116   2.481   2.629 -2.1085 -2.6644 -1.6760
 1533EOH      O 6134   6.197   1.468   0.241 -0.2963 -0.5115  0.5595
 1533EOH      C 6135   6.244   1.597   0.282 -0.1495 -0.2564 -0.3936
 1533EOH      C 6136   6.170   1.703   0.198  0.1107 -0.2031 -0.5563
 1533EOH      H 6137   6.103   1.457   0.236 -0.4145 -0.2675  2.2188
 1534EOH      O 6138   0.717   0.336   5.756  0.0573  0.3675 -0.7339
 1534EOH      C 6139   0.842   0.353   5.688  0.4003  0.5338 -0.0705
 1534EOH      C 6140   0.948   0.241   5.688 -0.3556 -0.1822 -0.3066
 1534EOH      H 6141   0.679   0.422   5.748  2.5620  1.3952 -2.1097
 1535EOH      O 6142   5.349   5.093   3.280  0.8256  0.1405  0.1124
 1535EOH      C 6143   5.390   5.055   3.149 -0.4973  0.4469 -0.4004
 1535EOH      C 6144   5.540   5.022   3.134 -0.4201  0.8922 -0.6248
 1535EOH      H 6145   5.274   5.150   3.271  1.3507  0.7177 -0.6539
 1536EOH      O 6146   2.112   2.332   6.100  0.0763  0.0054  0.5936
 1536EOH      C 6147   2.210   2.433   6.129 -0.0793  0.1297  0.6850
 1536EOH      C 6148   2.339   2.362   6.174  0.1557 -0.3986 -0.7953
 1536EOH      H 6149   2.033   2.359   6.145  1.1915  0.1997  2.5017
 1537EOH      O 6150   1.846   3.519   3.171 -0.0952 -0.1043  0.1858
 1537EOH      C 6151   1.935   3.630   3.164  0.0391 -0.1944  0.4509
 1537EOH      C 6152   1.852   3.760   3.173 -0.0857 -0.2182 -0.3242
 1537EOH      H 6153   1.863   3.467   3.094 -0.7221 -0.3042  0.1793
 1538EOH      O 6154   5.133   1.772   3.713 -0.4435  0.4829 -0.1966
 1538EOH      C 6155   5.107   1.859   3.602  0.0710  0.5135 -0.2946
 1538EOH      C 6156   5.206   1.977   3.614 -0.0255  0.4452  1.3106
 1538EOH      H 6157   5.116   1.818   3.794  0.4332 -2.0748  1.4986
 1539EOH      O 6158   3.586   0.748   0.131 -0.8532  0.0432 -0.3148
 1539EOH      C 6159   3.662   0.850   0.065  0.0531 -0.5094 -0.1399
 1539EOH      C 6160   3.755   0.786  -0.039  0.6087  0.1606 -0.0529
 1539EOH      H 6161   3.514   0.797   0.167 -1.5732 -0.8522 -0.5129
 1540EOH      O 6162   4.616   2.795   0.948  0.3068 -0.4096  0.1023
 1540EOH      C 6163   4.612   2.834   1.085  0.0302 -0.1423  0.0183
 1540EOH      C 6164   4.571   2.730   1.191 -0.4507 -0.1832 -0.2049
 1540EOH      H 6165   4.540   2.740   0.933  0.6430 -0.8843  0.1572
 1541EOH      O 6166   0.346   4.529   2.164  0.7589 -0.1108  0.2058
 1541EOH      C 6167   0.470   4.467   2.201  0.2871 -0.7736  0.7121
 1541EOH      C 6168   0.490   4.476   2.353  0.7561  0.3453  0.5908
 1541EOH      H 6169   0.276   4.486   2.211  0.1973  0.0411 -0.4903
 1542EOH      O 6170   5.554   3.526   3.987 -0.9579  0.0307 -0.0540
 1542EOH      C 6171   5.420   3.526   4.036 -0.7708 -0.0002  0.4658
 1542EOH      C 6172   5.385   3.386   4.089 -0.1114 -0.2614  0.2164
 1542EOH      H 6173   5.556   3.604   3.933 -0.6063  0.2584  0.2791
 1543EOH      O 6174   0.443   2.767   2.927  0.1303 -0.2299  0.1819
 1543EOH      C 6175   0.307   2.731   2.900  0.2011 -0.0703 -0.3947
 1543EOH      C 6176   0.258   2.786   2.766 -0.4757  0.0806 -0.0844
 1543EOH      H 6177   0.485   2.687   2.956 -1.6652 -1.8088 -1.4810
 1544EOH      O 6178   5.973   1.866   4.602  0.0410  0.2203 -0.1209
 1544EOH      C 6179   5.854   1.831   4.532  0.3861 -0.6613 -0.2767
 1544EOH      C 6180   5.799   1.689   4.556  0.0303 -0.5701 -0.5374
 1544EOH      H 6181   6.046   1.848   4.545  0.0969  1.6527 -0.5228
 1545EOH      O 6182   0.572   6.310   2.689 -0.1834  0.2247 -0.7161
 1545EOH      C 6183   0.583   6.195   2.604 -0.2381 -0.2949 -0.0180
 1545EOH      C 6184   0.635   6.079   2.691  0.2490 -0.2721 -0.2797
 1545EOH      H 6185   0.504   6.369   2.661 -0.2355  1.0164  1.0186
 1546EOH      O 6186   5.327   0.626   4.513 -0.2748 -0.1238  0.0888
 1546EOH      C 6187   5.455   0.608   4.452 -0.4619 -0.6832 -0.1385
 1546EOH      C 6188   5.512   0.465   4.446  0.4334 -0.3196 -0.4810
 1546EOH      H 6189   5.343   0.667   4.597  1.3770  0.6050 -0.5518
 1547EOH      O 6190   1.964   5.436   1.799 -0.0119 -0.0979  0.2051
 1547EOH      C 6191   2.084   5.471   1.868  0.1449  0.1616 -0.1965
 1547EOH      C 6192   2.196   5.482   1.763  0.3869  0.6239  0.1098
 1547EOH      H 6193   1.887   5.423   1.852 -1.4374  1.0220 -1.5656
 1548EOH      O 6194   0.109   4.561   5.472 -0.2099  0.0806  0.2965
 1548EOH      C 6195  -0.018   4.510   5.429  0.2243 -0.3847 -0.4588
 1548EOH      C 6196  -0.105   4.616   5.500  0.7403 -0.0533 -0.3226
 1548EOH      H 6197   0.125   4.641   5.424  2.4337 -1.0296 -0.7954
 1549EOH      O 6198   4.767   0.707   3.158  0.1295  0.4616 -0.0174
 1549EOH      C 6199   4.825   0.686   3.029 -0.4811  0.4751 -0.2988
 1549EOH      C 6200   4.851   0.539   2.991  0.1757  0.5964 -0.3237
 1549EOH      H 6201   4.702   0.776   3.150  0.1346  0.5056  0.3280
 1550EOH      O 6202   2.825   4.666   2.930  0.0864 -0.2565 -0.1354
 1550EOH      C 6203   2.912   4.718   2.829 -0.4900 -0.5061 -0.7673
 1550EOH      C 6204   2.852   4.854   2.787 -0.2669 -0.1663  0.0080
 1550EOH      H 6205   2.834   4.705   3.015  0.8247 -0.0767 -0.2942
 1551EOH      O 6206   3.895   0.573   3.791 -0.3283 -0.4763 -0.3664
 1551EOH      C 6207   3.765   0.602   3.842 -0.1187 -0.0876 -0.0468
 1551EOH      C 6208   3.776   0.714   3.947  0.2534  0.2368 -0.4264
 1551EOH      H 6209   3.890   0.492   3.742  0.8791 -1.4525  1.0779
 1552EOH      O 6210   1.808   0.530   3.352  0.2857 -0.4688  0.1029
 1552EOH      C 6211   1.886   0.615   3.267  0.1642 -0.1766  0.2827
 1552EOH      C 6212   1.975   0.712   3.347  0.1331  0.4275 -0.4187
 1552EOH      H 6213   1.874   0.483   3.402 -0.1433 -1.2856 -0.1006
 1553EOH      O 6214   3.318   1.951   2.479  0.0924 -0.6116  0.0845
 1553EOH      C 6215   3.229   1.934   2.590  0.0527  0.3495  0.1965
 1553EOH      C 6216   3.165   2.073   2.611 -0.1495  0.1721  0.7650
 1553EOH      H 6217   3.266   1.961   2.401 -0.1308  0.6483  0.3943
 1554EOH      O 6218   0.274   1.210   2.321 -0.4059  0.4717 -0.3988
 1554EOH      C 6219   0.206   1.118   2.236  0.1566 -0.0799 -0.2569
 1554EOH      C 6220   0.232   0.970   2.270 -0.0063 -0.0644 -0.0621
 1554EOH      H 6221   0.264   1.293   2.276 -1.5573  0.6772  0.2102
 1555EOH      O 6222   1.016   1.761   1.338  0.4354 -0.2771  0.1586
 1555EOH      C 6223   1.144   1.802   1.289  0.2272  0.1890 -0.0012
 1555EOH      C 6224   1.233   1.678   1.314 -0.3576 -0.2493 -0.0787
 1555EOH      H 6225   0.954   1.826   1.308  1.2842  1.5158  2.1718
 1556EOH      O 6226   3.485   4.301   0.615 -0.4296 -0.3373  0.4038
 1556EOH      C 6227   3.456   4.272   0.477 -0.4473  0.4002  0.2532
 1556EOH      C 6228   3.508   4.387   0.388  0.1404  0.1546  0.2709
 1556EOH      H 6229   3.402   4.291   0.658 -0.2134 -2.6029  0.3715
 1557EOH      O 6230   0.523   0.132   5.647 -0.1456  0.2346  0.2172
 1557EOH      C 6231   0.502   0.006   5.712 -0.4028  0.2112  0.0895
 1557EOH      C 6232   0.564  -0.101   5.620 -0.8089  0.0940 -0.0482
 1557EOH      H 6233   0.567   0.193   5.704 -1.8928  1.1258  0.6650
 1558EOH      O 6234   3.291   3.267   4.101  0.6998  0.1678 -0.3353
 1558EOH      C 6235   3.257   3.406   4.097 -0.3451 -0.0741  0.0232
 1558EOH      C 6236   3.322   3.482   4.215  0.0349  0.1707 -0.3436
 1558EOH      H 6237   3.211   3.225   4.128  1.2759 -0.4149  0.4522
 1559EOH      O 6238   4.311   5.229   1.582 -0.1929  0.0508  0.4595
 1559EOH      C 6239   4.179   5.174   1.573  0.1411 -0.5631 -0.7868
 1559EOH      C 6240   4.177   5.029   1.626 -0.2694 -0.2498  0.0530
 1559EOH      H 6241   4.302   5.321   1.561 -1.5827  0.0897  1.1681
 1560EOH      O 6242   4.632   2.975   1.693  0.0633 -0.1281 -0.3206
 1560EOH      C 6243   4.522   3.011   1.776  0.0587  0.0317 -0.3978
 1560EOH      C 6244   4.491   3.160   1.749 -0.2061  0.1441  0.5227
 1560EOH      H 6245   4.620   2.881   1.684  1.2189 -0.4990  1.7608
 1561EOH      O 6246   3.265   1.031   3.119  0.1479  0.7092  0.3340
 1561EOH      C 6247   3.238   0.938   3.014  0.1266  0.7740  0.2825
 1561EOH      C 6248   3.323   0.998   2.900 -0.1082  0.1161 -0.2438
 1561EOH      H 6249   3.358   1.020   3.132  0.5270  0.0491 -2.5675
 1562EOH      O 6250   2.839   2.276   3.404  0.1891 -0.1671 -0.0564
 1562EOH      C 6251   2.952   2.197   3.443 -0.0177 -0.1447  0.5829
 1562EOH      C 6252   2.964   2.065   3.365 -0.2661  0.4208 -0.4145
 1562EOH      H 6253   2.871   2.346   3.349  1.6145  0.0883  1.0595
 1563EOH      O 6254   4.096   2.202   1.208 -0.1885  0.0307  0.5660
 1563EOH      C 6255   4.074   2.163   1.344 -0.3613  0.4045  0.6451
 1563EOH      C 6256   4.016   2.020   1.341  0.2374  0.1688 -0.0030
 1563EOH      H 6257   4.189   2.200   1.193 -0.6803 -1.1323 -2.5795
 1564EOH      O 6258   6.138   0.574   5.529 -0.1273 -0.1382  0.4349
 1564EOH      C 6259   6.125   0.714   5.501 -0.2539 -0.1193  0.5874
 1564EOH      C 6260   6.022   0.728   5.387  0.2346  0.6266  0.2306
 1564EOH      H 6261   6.122   0.563   5.621  0.6060  0.3564  0.6229
 1565EOH      O 6262   1.374   2.938   2.778 -0.4364  0.6743  0.2346
 1565EOH      C 6263   1.424   3.044   2.697  0.3401  0.3810  0.3248
 1565EOH      C 6264   1.323   3.097   2.594  0.3533  0.1159  0.1744
 1565EOH      H 6265   1.451   2.887   2.803 -0.2632 -1.3658 -4.0108
 1566EOH      O 6266   1.370   2.777   5.468  0.4978  0.0808 -0.2988
 1566EOH      C 6267   1.286   2.665   5.435  0.2173  0.1777  0.0755
 1566EOH      C 6268   1.280   2.567   5.553 -0.5940  0.7583  0.5158
 1566EOH      H 6269   1.462   2.757   5.456  0.2857 -1.2595  0.1612
 1567EOH      O 6270   5.691   4.262   5.221  0.2712  0.1414  0.1157
 1567EOH      C 6271   5.618   4.295   5.103  0.5500 -0.3647 -0.2034
 1567EOH      C 6272   5.534   4.419   5.141  0.0689 -0.6278 -0.4149
 1567EOH      H 6273   5.753   4.191   5.212 -1.7660 -1.5301 -1.1771
 1568EOH      O 6274   0.666   1.148   0.306 -0.4052  0.1621 -0.1954
 1568EOH      C 6275   0.759   1.144   0.198 -0.0186 -0.0688  0.1438
 1568EOH      C 6276   0.896   1.196   0.246  0.1359 -0.3810  0.0408
 1568EOH      H 6277   0.626   1.233   0.310 -1.3590 -0.3360  1.0301
 1569EOH      O 6278   2.620   5.166   2.203  0.3711  0.2276 -0.2659
 1569EOH      C 6279   2.485   5.154   2.157  0.4275 -0.4340 -0.2533
 1569EOH      C 6280   2.417   5.030   2.218  0.0812 -0.3853 -0.5402
 1569EOH      H 6281   2.629   5.193   2.293  0.9967 -3.0073  0.6998
 1570EOH      O 6282   2.882   0.262   4.610  0.1243  0.1097  0.1315
 1570EOH      C 6283   3.021   0.235   4.591  0.0616 -0.0453 -0.1058
 1570EOH      C 6284   3.044   0.209   4.440 -0.0392  0.3678 -0.1937
 1570EOH      H 6285   2.874   0.345   4.654 -0.7048 -0.0194  0.2193
 1571EOH      O 6286   3.654   0.500   5.764 -0.0302 -0.1568 -0.0898
 1571EOH      C 6287   3.536   0.483   5.843  0.2559  0.2371  0.4259
 1571EOH      C 6288   3.542   0.382   5.959  0.1802  0.0980  0.3093
 1571EOH      H 6289   3.638   0.466   5.677 -1.1519 -0.3222  0.1748
 1572EOH      O 6290   5.726   4.648   1.376 -0.0032 -0.3540  0.2585
 1572EOH      C 6291   5.827   4.726   1.440  0.0516 -0.1184 -0.1122
 1572EOH      C 6292   5.936   4.769   1.339 -0.2592  0.0112 -0.3956
 1572EOH      H 6293   5.649   4.639   1.429  0.7510  0.1598  1.4539
 1573EOH      O 6294   3.521   1.100   5.905 -0.4312  0.0954 -0.5700
 1573EOH      C 6295   3.543   0.969   5.852 -0.1534 -0.0378 -0.1321
 1573EOH      C 6296   3.687   0.956   5.799 -0.2873 -0.1746 -0.4628
 1573EOH      H 6297   3.427   1.110   5.905 -0.4522  0.0503  0.7094
 1574EOH      O 6298   3.281   1.155   5.882 -0.2648  0.2694  0.3997
 1574EOH      C 6299   3.309   1.241   5.772  0.3530  0.1231  0.4421
 1574EOH      C 6300   3.269   1.384   5.816 -0.3567  0.1592 -0.3033
 1574EOH      H 6301   3.188   1.148   5.899 -0.3472  2.6311  1.0998
 1575EOH      O 6302   2.573   0.379   3.850 -0.1981  0.1597  0.8025
 1575EOH      C 6303   2.553   0.514   3.810  0.3789  0.1426  0.4480
 1575EOH      C 6304   2.446   0.476   3.706  0.6071  0.0642  0.2419
 1575EOH      H 6305   2.631   0.372   3.924 -0.3477 -3.4526  0.7052
 1576EOH      O 6306   5.659   6.114   3.470 -0.2802  0.1847  0.5348
 1576EOH      C 6307   5.797   6.088   3.496 -0.1395  0.6032  0.2254
 1576EOH      C 6308   5.817   5.941   3.454 -0.5096  0.5453  0.2494
 1576EOH      H 6309   5.623   6.135   3.554 -1.6295 -1.9728  0.5191
 1577EOH      O 6310   2.948   4.675   2.219  0.7182  0.5024  0.1364
 1577EOH      C 6311   2.895   4.728   2.341 -0.0071 -0.6679  0.3436
 1577EOH      C 6312   2.767   4.809   2.314  0.3585 -0.0901  0.3142
 1577EOH      H 6313   3.013   4.608   2.233  1.3098  1.3737  1.5567
 1578EOH      O 6314   4.866   4.740   4.995  0.2941 -0.3478  0.1702
 1578EOH      C 6315   4.972   4.832   5.025 -0.8489  0.8367  0.6200
 1578EOH      C 6316   4.930   4.920   5.144 -0.5225  0.2051  1.2079
 1578EOH      H 6317   4.870   4.745   4.901  0.1738  0.4293  0.2035
 1579EOH      O 6318   3.670   2.727   5.330  0.3977 -0.3483 -0.3942
 1579EOH      C 6319   3.648   2.659   5.453 -0.0202  0.0190 -0.2656
 1579EOH      C 6320   3.683   2.511   5.425  0.0421 -0.0133 -0.0243
 1579EOH      H 6321   3.675   2.819   5.348  3.1584 -0.5075 -0.0859
 1580EOH      O 6322   0.114   5.690   3.089 -0.1263 -0.2372  0.1210
 1580EOH      C 6323   0.223   5.703   2.998 -0.3961 -0.6442 -0.2630
 1580EOH      C 6324   0.357   5.659   3.058 -0.1446  0.1299 -0.2479
 1580EOH      H 6325   0.156   5.715   3.170 -0.4001  1.1889 -0.1805
 1581EOH      O 6326   3.226   0.683   5.962  0.1441  0.1916 -0.2130
 1581EOH      C 6327   3.261   0.741   6.087 -0.2447 -0.4288  0.1880
 1581EOH      C 6328   3.139   0.748   6.181 -0.2970  0.0984  0.0865
 1581EOH      H 6329   3.228   0.588   5.962  1.8521  0.2231 -0.3856
 1582EOH      O 6330   1.475   4.940   1.931  0.4499  0.2672 -0.7481
 1582EOH      C 6331   1.463   4.813   1.996  0.1392  0.7599  0.1665
 1582EOH      C 6332   1.491   4.816   2.147 -0.1949 -0.2225  0.2485
 1582EOH      H 6333   1.510   4.930   1.844  0.0139 -1.8097 -0.7020
 1583EOH      O 6334   2.921   5.866   4.582  0.8377 -0.5023  0.2571
 1583EOH      C 6335   2.880   5.994   4.630  0.2678 -0.5491 -0.1017
 1583EOH      C 6336   2.976   6.109   4.598 -0.2089 -0.3548 -0.8387
 1583EOH      H 6337   3.012   5.886   4.571  0.2366  1.2798 -1.6876
 1584EOH      O 6338   1.455   0.214   2.154  0.1623  0.0104  0.1686
 1584EOH      C 6339   1.537   0.331   2.148  0.4548 -0.1608  0.7709
 1584EOH      C 6340   1.502   0.451   2.237  0.5802  0.1782  0.3629
 1584EOH      H 6341   1.500   0.131   2.142  0.8543  0.2559  1.0039
 1585EOH      O 6342   3.097   0.265   2.903 -0.2373 -0.4821  0.3446
 1585EOH      C 6343   2.983   0.180   2.896 -0.3656 -0.2703 -0.1155
 1585EOH      C 6344   3.010   0.036   2.851 -0.1959 -0.3938  0.3766
 1585EOH      H 6345   3.068   0.355   2.910 -0.2720 -0.4070 -0.7400
 1586EOH      O 6346   1.691   2.331   0.936  0.1936 -0.3403 -0.1391
 1586EOH      C 6347   1.812   2.393   0.979 -0.2067  0.6659 -0.4463
 1586EOH      C 6348   1.880   2.452   0.854  0.1011  1.0371 -0.1038
 1586EOH      H 6349   1.649   2.287   1.009  0.2640 -1.4944 -0.7774
 1587EOH      O 6350   2.768   1.892   5.960 -0.6749 -0.3384 -0.2415
 1587EOH      C 6351   2.777   1.972   6.078  0.1733 -0.4913 -0.1976
 1587EOH      C 6352   2.717   1.902   6.202  0.1176 -0.1329 -0.0231
 1587EOH      H 6353   2.675   1.885   5.942 -0.8041  1.7348 -0.5249
 1588EOH      O 6354   4.966   2.909   3.758  0.2765 -0.4152  0.7249
 1588EOH      C 6355   5.034   3.027   3.800  0.1507 -0.1607  0.2191
 1588EOH      C 6356   5.068   3.030   3.950  0.0744  0.0082  0.2336
 1588EOH      H 6357   4.960   2.918   3.664  2.7718 -0.1644  0.5665
 1589EOH      O 6358   1.454   0.133   0.019  0.0060  0.3547  0.5721
 1589EOH      C 6359   1.352   0.217  -0.034 -0.2258 -0.2505  0.0542
 1589EOH      C 6360   1.237   0.234   0.067 -0.1518  0.1240  0.0764
 1589EOH      H 6361   1.514   0.113  -0.051  1.8296 -0.4200  2.3037
 1590EOH      O 6362   2.424   1.004   4.244  0.2151 -0.0771  0.3178
 1590EOH      C 6363   2.359   1.071   4.353 -0.0872 -0.1718  0.1977
 1590EOH      C 6364   2.215   1.113   4.320 -0.0241 -0.0346  0.0978
 1590EOH      H 6365   2.484   0.946   4.289  0.5859  0.6207  0.7313
 1591EOH      O 6366   4.060   0.611   3.115 -0.6330  0.0462 -0.3559
 1591EOH      C 6367   4.161   0.511   3.105 -0.4990  0.1856 -0.3821
 1591EOH      C 6368   4.221   0.511   2.963  0.0089  0.2929 -0.1686
 1591EOH      H 6369   4.019   0.600   3.200 -0.3444  1.5050 -0.0028
 1592EOH      O 6370   0.873   3.962   6.111  0.0636  0.0750  0.2135
 1592EOH      C 6371   0.912   4.097   6.087 -0.2937  0.1837  0.2438
 1592EOH      C 6372   1.017   4.103   5.974 -0.3703 -0.1636  0.1527
 1592EOH      H 6373   0.835   3.921   6.035 -0.5563 -1.5586  1.3500
 1593EOH      O 6374   5.449   1.146   5.327 -0.0732 -0.1713  0.5637
 1593EOH      C 6375   5.375   1.242   5.253 -0.1792 -0.3227  0.4721
 1593EOH      C 6376   5.445   1.377   5.277 -0.2034 -0.1022 -0.6487
 1593EOH      H 6377   5.435   1.167   5.418 -2.9922 -0.3492  0.1947
 1594EOH      O 6378   1.288   4.480   5.581 -0.1992  0.1837 -0.2688
 1594EOH      C 6379   1.353   4.564   5.677 -0.4732  0.2216 -0.1158
 1594EOH      C 6380   1.269   4.673   5.746  0.1383  0.1051  0.8223
 1594EOH      H 6381   1.276   4.397   5.625  0.2230  0.5761  0.6005
 1595EOH      O 6382   3.156   2.943   1.166 -0.0935 -0.0809 -0.0196
 1595EOH      C 6383   3.048   3.036   1.153 -0.1882 -0.1955 -0.0682
 1595EOH      C 6384   2.997   3.067   1.295  0.3477  0.2875  0.0219
 1595EOH      H 6385   3.125   2.857   1.140  0.6442  0.2051 -1.9366
 1596EOH      O 6386   3.633   4.775   3.282 -0.4618 -0.3435 -0.2946
 1596EOH      C 6387   3.564   4.890   3.234 -0.3890 -0.1917 -0.0351
 1596EOH      C 6388   3.656   4.964   3.135 -0.0912  0.3629  0.6495
 1596EOH      H 6389   3.616   4.709   3.216 -0.2408  1.1957 -1.9232
 1597EOH      O 6390   2.592   0.874   0.821 -0.2444 -0.3468 -0.2223
 1597EOH      C 6391   2.486   0.833   0.734 -0.4844 -0.1174 -0.0395
 1597EOH      C 6392   2.402   0.951   0.683  0.1960  0.4202  0.0801
 1597EOH      H 6393   2.615   0.797   0.870  1.9289  0.1846 -0.3459
 1598EOH      O 6394   6.316   1.156   1.200 -0.1178  0.0237 -0.6599
 1598EOH      C 6395   6.385   1.189   1.079  0.3933 -0.1471 -0.4175
 1598EOH      C 6396   6.359   1.338   1.049  0.3188 -0.1180 -0.2141
 1598EOH      H 6397   6.358   1.087   1.249  0.7479  1.2217  0.3374
 1599EOH      O 6398   2.264   0.465   5.581 -0.4642  0.1117 -0.4848
 1599EOH      C 6399   2.174   0.356   5.560 -0.1272 -0.1429 -0.6081
 1599EOH      C 6400   2.240   0.217   5.571 -0.8693 -0.5051 -0.7112
 1599EOH      H 6401   2.224   0.541   5.543  1.0331  0.5579 -1.2210
 1600EOH      O 6402   0.713   5.707   5.641 -0.0107 -0.0860  0.1633
 1600EOH      C 6403   0.849   5.711   5.686  0.0630  0.3461 -0.0988
 1600EOH      C 6404   0.935   5.687   5.561  0.1539 -0.1979  0.0690
 1600EOH      H 6405   0.657   5.743   5.708  0.6796 -1.0483  1.2726
 1601EOH      O 6406   0.235   1.475   3.329 -0.4831  0.0486 -0.3945
 1601EOH      C 6407   0.335   1.477   3.227  0.0748  0.3469  0.1519
 1601EOH      C 6408   0.445   1.370   3.242  0.2256  0.4644 -0.1035
 1601EOH      H 6409   0.194   1.559   3.322  0.3812  0.3936 -1.4286
 1602EOH      O 6410   2.680   4.527   3.545  0.2770 -0.3570  0.2473
 1602EOH      C 6411   2.720   4.411   3.472  0.2784 -0.2022 -0.0020
 1602EOH      C 6412   2.670   4.283   3.542  0.5791 -0.1317  0.3448
 1602EOH      H 6413   2.740   4.535   3.618 -2.8108  3.6456  2.5432
 1603EOH      O 6414   3.490   1.030   1.190  0.0195 -0.5709  0.5839
 1603EOH      C 6415   3.363   0.965   1.176 -0.5461  0.6732 -0.1752
 1603EOH      C 6416   3.250   1.069   1.162 -0.3961  0.9089  0.3271
 1603EOH      H 6417   3.494   1.069   1.276 -2.2618  0.2715  0.3481
 1604EOH      O 6418   0.237   0.666   1.963  0.1142  0.2507 -0.3420
 1604EOH      C 6419   0.160   0.629   2.077  0.4857  0.8545  0.1100
 1604EOH      C 6420   0.251   0.555   2.176 -0.2024  0.5961  0.5553
 1604EOH      H 6421   0.315   0.709   1.994  0.9726 -1.8589  0.4627
 1605EOH      O 6422   3.745   5.589   2.384  0.1529 -0.2571 -0.4549
 1605EOH      C 6423   3.648   5.499   2.439  0.0695  0.1063 -0.0133
 1605EOH      C 6424   3.669   5.364   2.369 -0.0658  0.1806 -0.1965
 1605EOH      H 6425   3.739   5.670   2.430  2.7474 -0.7675  0.8632
 1606EOH      O 6426   3.141   5.209   3.947 -0.5275  0.0010 -0.4299
 1606EOH      C 6427   3.122   5.281   3.825 -0.2319  0.8297  0.0042
 1606EOH      C 6428   3.180   5.422   3.839 -0.1185  0.8154 -0.3018
 1606EOH      H 6429   3.194   5.134   3.928 -0.4140 -0.4607  1.6479
 1607EOH      O 6430   1.985   0.198   0.228  0.2942  0.5467  0.8015
 1607EOH      C 6431   1.973   0.096   0.327 -0.3063 -0.3967 -0.2222
 1607EOH      C 6432   2.011   0.150   0.467 -0.1591  0.5100 -0.6059
 1607EOH      H 6433   2.078   0.188   0.216  0.2408 -0.1739  0.9680
 1608EOH      O 6434   3.357   4.927   2.550  0.0189 -0.0118  0.1191
 1608EOH      C 6435   3.368   4.823   2.452  0.0278  0.0435  0.0610
 1608EOH      C 6436   3.226   4.777   2.415  0.0628 -0.0739  0.0717
 1608EOH      H 6437   3.426   4.902   2.609 -0.9290  0.6955  1.5562
 1609EOH      O 6438   3.179   6.029   2.449 -0.5535 -0.2414  0.3172
 1609EOH      C 6439   3.248   6.043   2.574  0.2074 -0.4855 -0.0690
 1609EOH      C 6440   3.148   6.034   2.691  0.3176 -0.4219  0.0304
 1609EOH      H 6441   3.156   5.938   2.435 -1.4252 -0.0983  0.8161
 1610EOH      O 6442   3.349   0.316   2.791  0.1549  0.4983  0.4383
 1610EOH      C 6443   3.344   0.410   2.683  0.2652 -0.3460 -0.3025
 1610EOH      C 6444   3.483   0.442   2.623  0.2941 -0.1002 -0.1056
 1610EOH      H 6445   3.261   0.314   2.825  0.1023  3.3383  0.5643
 1611EOH      O 6446   3.535   3.899   2.414 -0.3465  0.1323  0.1883
 1611EOH      C 6447   3.614   3.795   2.356  0.1413  0.3257  0.4990
 1611EOH      C 6448   3.644   3.674   2.446  0.1899  0.0643  0.1314
 1611EOH      H 6449   3.532   3.970   2.353  4.3267  2.3938  2.2606
 1612EOH      O 6450   1.453   0.070   3.911  0.0499 -0.5113  0.2475
 1612EOH      C 6451   1.371   0.158   3.989 -0.0988 -0.5088  0.0910
 1612EOH      C 6452   1.225   0.142   3.944 -0.3296  0.4801  0.4975
 1612EOH      H 6453   1.538   0.065   3.951  0.7408 -0.6634 -1.1976
 1613EOH      O 6454   4.860   3.577   5.704 -0.0920 -0.0433  0.1665
 1613EOH      C 6455   4.976   3.661   5.709  0.1042 -0.3029 -0.0227
 1613EOH      C 6456   5.107   3.584   5.682  0.4067  0.0586  0.4091
 1613EOH      H 6457   4.792   3.620   5.754  1.5658  1.8521  0.9246
 1614EOH      O 6458   5.760   1.322   3.543 -0.3661 -0.0169  0.4159
 1614EOH      C 6459   5.792   1.309   3.404  0.2065  0.5052  0.4991
 1614EOH      C 6460   5.722   1.417   3.319 -0.2114 -0.1203  0.0502
 1614EOH      H 6461   5.698   1.255   3.567 -0.8855  0.5863  0.7683
 1615EOH      O 6462   3.743   5.428   4.079  0.3667 -0.0879  0.2168
 1615EOH      C 6463   3.731   5.390   3.941 -0.1686 -0.3794  0.3402
 1615EOH      C 6464   3.864   5.431   3.875 -0.2993  0.0916  0.3652
 1615EOH      H 6465   3.696   5.366   4.132 -1.6256 -0.7446 -2.2020
 1616EOH      O 6466   6.103   4.021   0.129  0.5581  0.1141  0.0652
 1616EOH      C 6467   6.159   3.929   0.224 -0.3975 -0.4659  0.0727
 1616EOH      C 6468   6.279   3.854   0.166 -0.0435  0.5102 -0.4765
 1616EOH      H 6469   6.044   4.075   0.179  1.4705  1.6653 -0.4987
 1617EOH      O 6470   1.543   5.407   0.703  0.4008  0.1333  0.3943
 1617EOH      C 6471   1.442   5.452   0.793  0.2407 -0.6715  0.6236
 1617EOH      C 6472   1.467   5.594   0.848 -0.2685 -0.4381  0.2505
 1617EOH      H 6473   1.514   5.321   0.679 -0.7122  0.4336  0.6655
 1618EOH      O 6474   4.613   1.097   5.535  0.1035  0.1509 -0.3120
 1618EOH      C 6475   4.580   1.141   5.667  0.0616 -0.0678 -0.2485
 1618EOH      C 6476   4.584   1.026   5.769  0.6478  0.0733 -0.1155
 1618EOH      H 6477   4.547   1.032   5.517 -0.7067  1.2876 -1.4894
 1619EOH      O 6478   1.693   2.425   1.485 -0.1328  0.0700  0.3581
 1619EOH      C 6479   1.750   2.448   1.614 -0.2199  0.4200  0.3355
 1619EOH      C 6480   1.687   2.578   1.668  0.0653  0.3732  0.7834
 1619EOH      H 6481   1.718   2.348   1.437  0.7699  1.0711 -0.8005
 1620EOH      O 6482   5.430   0.234   1.771  0.5374 -0.2301  0.6935
 1620EOH      C 6483   5.385   0.363   1.730  0.4407 -0.4747  0.0333
 1620EOH      C 6484   5.493   0.472   1.738 -0.0463  0.0341 -0.2293
 1620EOH      H 6485   5.356   0.175   1.774  0.6938 -0.4246  0.7380
 1621EOH      O 6486   2.505   2.856   1.455 -0.2865 -0.3479 -0.1771
 1621EOH      C 6487   2.646   2.831   1.458 -0.2008  0.2147  0.5083
 1621EOH      C 6488   2.662   2.700   1.537 -0.3100 -0.0413  0.1039
 1621EOH      H 6489   2.466   2.829   1.537 -1.1208 -0.6072 -0.6613
 1622EOH      O 6490   3.309   3.366   2.652 -0.7164 -0.0850 -0.0595
 1622EOH      C 6491   3.386   3.419   2.761 -0.3334 -0.4822 -0.1365
 1622EOH      C 6492   3.307   3.516   2.850 -0.0295 -0.0222 -0.3693
 1622EOH      H 6493   3.366   3.304   2.609 -0.6652 -0.8698  1.1163
 1623EOH      O 6494   3.817   3.804   2.846 -0.6510  0.6722 -0.3735
 1623EOH      C 6495   3.739   3.713   2.769  0.2404 -0.4552  0.0424
 1623EOH      C 6496   3.671   3.619   2.870  0.5843 -0.0759  0.6277
 1623EOH      H 6497   3.909   3.782   2.842 -0.7516  0.4068 -1.1515
 1624EOH      O 6498   1.028   5.309   3.428  0.4634 -0.1430  0.1174
 1624EOH      C 6499   1.124   5.405   3.474  0.0870  0.2188  0.1465
 1624EOH      C 6500   1.087   5.554   3.459  0.0554  0.2172  0.2053
 1624EOH      H 6501   1.040   5.216   3.432 -1.8887 -0.6033 -2.2050
 1625EOH      O 6502   0.722   1.639   2.967 -0.3352 -0.0686  0.1829
 1625EOH      C 6503   0.786   1.516   3.004  0.2490 -0.0449 -0.7462
 1625EOH      C 6504   0.928   1.532   3.062 -0.3896 -0.1297  0.8723
 1625EOH      H 6505   0.738   1.661   2.877  1.3565 -0.9026  0.2641
 1626EOH      O 6506   5.624   0.125   4.230  0.9632 -0.6080  0.4857
 1626EOH      C 6507   5.705   0.242   4.245  0.2012 -0.0772  0.4960
 1626EOH      C 6508   5.842   0.193   4.195  0.1679  0.2373  0.0929
 1626EOH      H 6509   5.607   0.088   4.316  1.3328  1.0031  1.2705
 1627EOH      O 6510   4.587   3.121   0.576 -0.1047  0.3009 -0.6683
 1627EOH      C 6511   4.554   2.982   0.585  0.4322  0.2133  0.0344
 1627EOH      C 6512   4.477   2.963   0.717 -0.0586 -0.4263 -0.3376
 1627EOH      H 6513   4.576   3.147   0.486  0.2491 -1.9644 -1.4168
 1628EOH      O 6514   5.389   0.018   5.827  0.5915  0.0905  0.3241
 1628EOH      C 6515   5.288  -0.073   5.873  0.1635  0.3248 -0.1459
 1628EOH      C 6516   5.368  -0.154   5.976 -0.1223  0.0808 -0.1169
 1628EOH      H 6517   5.409   0.084   5.891  1.3810 -0.7532  0.9655
 1629EOH      O 6518   5.919   1.541   1.881 -0.4642  0.2802  0.0422
 1629EOH      C 6519   6.028   1.449   1.873 -0.5791  0.1897 -0.5007
 1629EOH      C 6520   5.982   1.324   1.950  0.0138  0.1815 -0.1554
 1629EOH      H 6521   5.841   1.504   1.844  1.3769 -3.3809 -0.3908
 1630EOH      O 6522   6.236   5.197   3.141  0.0646 -0.4527  0.0191
 1630EOH      C 6523   6.333   5.276   3.211  0.0147  0.2398 -0.6923
 1630EOH      C 6524   6.437   5.179   3.270 -0.3341  0.0080 -0.4558
 1630EOH      H 6525   6.157   5.186   3.191 -0.1648 -1.8566 -0.6205
 1631EOH      O 6526   1.259   1.793   4.201 -0.3091  0.6597 -0.0082
 1631EOH      C 6527   1.381   1.786   4.127 -0.3523 -0.0688 -0.0157
 1631EOH      C 6528   1.441   1.924   4.095 -0.4738 -0.0195 -0.0304
 1631EOH      H 6529   1.193   1.821   4.140 -3.3875 -1.1416  2.3692
 1632EOH      O 6530   0.731   2.476   2.187 -0.4435 -0.2798 -0.4135
 1632EOH      C 6531   0.852   2.403   2.162 -0.0422  0.3059 -0.1895
 1632EOH      C 6532   0.861   2.380   2.010  0.2679  0.6823 -0.2292
 1632EOH      H 6533   0.753   2.559   2.146  0.9720 -0.7536 -0.6399
 1633EOH      O 6534   5.736   0.689   3.873 -0.0094  0.3609 -0.0961
 1633EOH      C 6535   5.661   0.711   3.993 -0.6385 -0.2813 -0.3639
 1633EOH      C 6536   5.584   0.587   4.041 -0.5671 -0.1664  0.0576
 1633EOH      H 6537   5.673   0.675   3.804 -0.3893 -0.1229  0.3447
 1634EOH      O 6538   0.536   3.956   2.173 -0.1638 -0.3558  0.4497
 1634EOH      C 6539   0.564   4.020   2.298  0.4987  0.4439 -0.0951
 1634EOH      C 6540   0.488   3.969   2.423  0.3944  0.3079 -0.2134
 1634EOH      H 6541   0.585   3.876   2.172 -0.1071 -0.3232 -0.9935
 1635EOH      O 6542   3.467   1.232   2.296 -0.3906  0.3018  0.1428
 1635EOH      C 6543   3.514   1.288   2.419  0.6734 -0.2131 -0.0238
 1635EOH      C 6544   3.553   1.436   2.402 -0.1198  0.0108  0.1316
 1635EOH      H 6545   3.399   1.172   2.322  0.3046 -0.5758 -0.0336
 1636EOH      O 6546   4.513   5.944   0.804  0.0917  0.3300  0.5615
 1636EOH      C 6547   4.648   5.925   0.762 -0.1017  0.0211  0.0765
 1636EOH      C 6548   4.672   6.002   0.630  0.5432  0.0141  0.1855
 1636EOH      H 6549   4.484   5.873   0.859 -0.3767  0.8024  0.9353
 1637EOH      O 6550   5.370   1.237   6.053 -0.7166  0.2395  0.3744
 1637EOH      C 6551   5.456   1.148   6.125 -0.3765  0.4200  0.1973
 1637EOH      C 6552   5.497   1.042   6.021 -0.3277  0.3927  0.2438
 1637EOH      H 6553   5.321   1.291   6.113 -1.3662  0.5323 -0.4075
 1638EOH      O 6554   5.764   1.506   0.349 -0.6495  0.3858  0.7599
 1638EOH      C 6555   5.828   1.480   0.474  0.0062  0.2315  0.3947
 1638EOH      C 6556   5.818   1.333   0.520 -0.3562  0.2827  0.4852
 1638EOH      H 6557   5.747   1.599   0.352 -3.0129  0.0816 -1.2072
 1639EOH      O 6558   0.125   4.081   2.858  0.0620  0.0180  0.0051
 1639EOH      C 6559   0.082   3.960   2.795 -0.3533  0.3465 -0.3479
 1639EOH      C 6560   0.140   3.940   2.654  0.1225  0.8254 -0.2193
 1639EOH      H 6561   0.081   4.098   2.939 -0.9884  0.0678 -0.5708
 1640EOH      O 6562   0.878   1.417   1.152  0.2787  0.2191  0.0320
 1640EOH      C 6563   0.761   1.472   1.091  0.2423  0.2082  0.0925
 1640EOH      C 6564   0.712   1.385   0.974 -0.0348  0.5211 -0.0274
 1640EOH      H 6565   0.886   1.462   1.235 -1.4241  0.6940 -0.0305
 1641EOH      O 6566   0.020   6.294   1.535 -0.1462  0.6350 -0.0881
 1641EOH      C 6567   0.155   6.250   1.550 -0.4576 -0.3730 -0.1893
 1641EOH      C 6568   0.231   6.361   1.625 -0.5058 -0.5889  0.1774
 1641EOH      H 6569  -0.024   6.302   1.618  0.8288  0.9066  0.4027
 1642EOH      O 6570   4.692   4.494   5.216  0.1906  0.0845 -0.5035
 1642EOH      C 6571   4.800   4.559   5.283 -0.0890 -0.1066  0.1335
 1642EOH      C 6572   4.784   4.553   5.436  0.4846  0.8920  0.2364
 1642EOH      H 6573   4.726   4.435   5.150  1.3850  0.1883 -0.0038
 1643EOH      O 6574   1.711   5.459   3.026  0.2242 -0.4975  0.1632
 1643EOH      C 6575   1.654   5.492   3.153  0.3404 -0.1806  0.1337
 1643EOH      C 6576   1.740   5.609   3.204  0.2422  0.0239 -0.1659
 1643EOH      H 6577   1.642   5.471   2.962  1.5102  2.6059 -0.7741
 1644EOH      O 6578   1.546   0.755   0.527 -0.0003  0.2251  0.0395
 1644EOH      C 6579   1.536   0.622   0.578 -0.7111  0.2099 -0.1376
 1644EOH      C 6580   1.466   0.641   0.714 -0.1716  0.6978  0.0768
 1644EOH      H 6581   1.461   0.789   0.504 -0.8879 -1.2038  1.0909
 1645EOH      O 6582   2.847   0.492   0.661  0.4387  0.0588  0.1673
 1645EOH      C 6583   2.736   0.402   0.666 -0.1181  0.7641  0.5854
 1645EOH      C 6584   2.630   0.459   0.570 -0.4355 -0.2600  0.3274
 1645EOH      H 6585   2.918   0.451   0.613  0.3981 -0.9328  0.9493
 1646EOH      O 6586   1.952   0.016   1.396  0.2365 -0.2127  0.4399
 1646EOH      C 6587   1.811   0.009   1.422  0.1440 -0.2295 -0.0742
 1646EOH      C 6588   1.772  -0.136   1.385 -0.0772 -0.1282 -0.2403
 1646EOH      H 6589   1.965   0.094   1.345 -1.3121  0.4882  1.0758
 1647EOH      O 6590   3.636   0.942   1.568 -0.0611 -0.0683 -0.1846
 1647EOH      C 6591   3.715   0.908   1.454 -0.5345 -0.8901 -0.2691
 1647EOH      C 6592   3.832   0.811   1.481  0.6273  0.6500  0.3029
 1647EOH      H 6593   3.567   0.998   1.536 -0.4759 -0.7381 -0.4539
 1648EOH      O 6594   4.207   2.352   2.782  0.0794 -0.2115  0.2888
 1648EOH      C 6595   4.262   2.249   2.864  0.4475 -0.4808 -0.2969
 1648EOH      C 6596   4.184   2.220   2.993  0.3357 -0.1390 -0.2871
 1648EOH      H 6597   4.112   2.349   2.790  0.2128 -1.6193  1.4071
 1649EOH      O 6598   6.225   5.927   2.652 -0.2974  0.2121 -0.4405
 1649EOH      C 6599   6.359   5.945   2.697 -0.4560 -0.2888  0.2411
 1649EOH      C 6600   6.378   6.093   2.735  0.7815 -0.0822 -1.1158
 1649EOH      H 6601   6.223   5.833   2.643  1.9932 -0.0162  1.1309
 1650EOH      O 6602   5.754   4.784   4.313 -0.4859  0.4798 -0.2777
 1650EOH      C 6603   5.797   4.907   4.372  0.3350  0.0537  0.0084
 1650EOH      C 6604   5.837   4.853   4.511 -0.3136 -0.5351 -0.0274
 1650EOH      H 6605   5.819   4.717   4.325 -2.6560 -2.1636 -2.4574
 1651EOH      O 6606   4.374   2.109   3.563 -0.7097 -0.0979  0.4828
 1651EOH      C 6607   4.345   2.195   3.453  0.0351 -0.0991  0.2771
 1651EOH      C 6608   4.193   2.186   3.429  0.1208 -0.7694 -0.0202
 1651EOH      H 6609   4.448   2.055   3.537  0.1677  1.0159  0.6332
 1652EOH      O 6610   1.637   2.223   1.147 -0.1336 -0.1397 -0.1219
 1652EOH      C 6611   1.551   2.120   1.197 -0.2112 -0.0781 -0.1284
 1652EOH      C 6612   1.463   2.073   1.080 -0.5993  0.5592 -0.0933
 1652EOH      H 6613   1.701   2.234   1.216 -1.5072  0.4688  1.0792
 1653EOH      O 6614   1.697   3.823   3.813 -0.6623  0.2478  0.0441
 1653EOH      C 6615   1.661   3.710   3.734 -0.2886 -0.0591  0.3173
 1653EOH      C 6616   1.777   3.610   3.712 -0.0977  0.2126  0.0851
 1653EOH      H 6617   1.619   3.872   3.835 -0.8729 -1.2520  2.8974
 1654EOH      O 6618   0.436   2.768   3.363  0.0415  0.9946  0.0317
 1654EOH      C 6619   0.301   2.807   3.338  0.1655  0.9053 -0.7874
 1654EOH      C 6620   0.194   2.696   3.327  0.5523  0.4594 -0.0219
 1654EOH      H 6621   0.490   2.838   3.331  1.1418  0.3988  0.5543
 1655EOH      O 6622   4.163   4.493   3.879 -0.1204 -0.2874  0.7890
 1655EOH      C 6623   4.261   4.492   3.775 -0.4931 -0.0989  0.4363
 1655EOH      C 6624   4.401   4.494   3.837 -0.3823  0.1645  0.1775
 1655EOH      H 6625   4.200   4.476   3.964  0.3928 -0.0052  0.6219
 1656EOH      O 6626   1.369   6.249   3.708 -0.4424  0.1972 -0.4166
 1656EOH      C 6627   1.394   6.109   3.722  0.5674  0.3898 -0.2994
 1656EOH      C 6628   1.535   6.088   3.781  0.2149  0.2319  0.4787
 1656EOH      H 6629   1.389   6.298   3.786  0.5328  0.3743 -0.7731
 1657EOH      O 6630   4.703   5.088   1.037  0.3627 -0.4281  0.0768
 1657EOH      C 6631   4.777   5.188   0.967  0.4734 -0.1843  0.5432
 1657EOH      C 6632   4.910   5.210   1.042  0.4332 -0.0520  0.5734
 1657EOH      H 6633   4.617   5.085   0.997 -0.4361 -1.7134  1.8194
 1658EOH      O 6634   3.519   0.834   5.050 -0.0862 -0.5750 -0.0434
 1658EOH      C 6635   3.605   0.947   5.033 -0.2399 -0.4472  0.0321
 1658EOH      C 6636   3.548   1.060   4.946 -0.2925 -0.3696  0.1670
 1658EOH      H 6637   3.557   0.785   5.121  1.1823  2.3099  1.3583
 1659EOH      O 6638   4.049   0.832   2.313  0.2177  0.2052 -0.1629
 1659EOH      C 6639   4.121   0.833   2.189 -0.0776  0.4737 -0.3306
 1659EOH      C 6640   4.034   0.911   2.089 -0.5046  0.2557 -0.1321
 1659EOH      H 6641   3.994   0.756   2.318  1.3589 -0.5928  0.5881
 1660EOH      O 6642   1.611   4.741   3.169  0.2381 -0.2022  0.0387
 1660EOH      C 6643   1.724   4.661   3.132  0.5733  0.1850  0.2216
 1660EOH      C 6644   1.728   4.652   2.979  0.1185 -0.0493  0.2206
 1660EOH      H 6645   1.646   4.802   3.232  0.1603 -1.5358  1.3923
 1661EOH      O 6646   2.254   4.954   5.100 -0.2717 -0.3146 -0.1183
 1661EOH      C 6647   2.167   5.064   5.069  0.4035  0.0647 -0.6829
 1661EOH      C 6648   2.027   5.046   5.130  0.4115 -0.0407 -0.6946
 1661EOH      H 6649   2.264   4.947   5.194 -0.9192 -0.7678 -0.0756
 1662EOH      O 6650   1.488   6.239   5.228  0.0676 -0.4011  0.1374
 1662EOH      C 6651   1.349   6.219   5.199  0.0727 -0.1608 -0.0556
 1662EOH      C 6652   1.265   6.332   5.260 -0.3388 -0.0763 -0.7732
 1662EOH      H 6653   1.522   6.292   5.157 -1.6063 -0.2964 -0.6181
 1663EOH      O 6654   4.312   1.694   1.438 -0.0609 -0.2547 -0.0543
 1663EOH      C 6655   4.380   1.816   1.469 -0.1729 -0.2750  0.2748
 1663EOH      C 6656   4.362   1.850   1.619  0.1576 -0.2098  0.3009
 1663EOH      H 6657   4.327   1.703   1.346  2.3100  2.0901  0.5149
 1664EOH      O 6658   3.245   0.979   1.506 -0.1688  0.0467  0.1068
 1664EOH      C 6659   3.158   1.039   1.602 -0.3394  0.1520 -0.1122
 1664EOH      C 6660   3.244   1.107   1.711  0.8027 -0.2786 -0.7308
 1664EOH      H 6661   3.267   0.892   1.536 -2.5226 -0.6349 -0.0644
 1665EOH      O 6662   1.572   5.554   4.976 -0.6201  0.0141  0.5622
 1665EOH      C 6663   1.641   5.553   5.101 -0.4695 -0.2230  0.4776
 1665EOH      C 6664   1.564   5.650   5.192  0.0901  0.6654  0.0073
 1665EOH      H 6665   1.616   5.504   4.909 -0.4870 -0.0354  0.6859
 1666EOH      O 6666   0.497   2.568   4.184 -0.0292  0.5544 -0.3413
 1666EOH      C 6667   0.393   2.612   4.271 -0.2400  0.5661 -0.6023
 1666EOH      C 6668   0.456   2.677   4.395  0.4388 -0.2221 -0.5332
 1666EOH      H 6669   0.510   2.638   4.121  1.4013 -0.7967 -1.6002
 1667EOH      O 6670   1.615   4.229   2.813  0.2872 -0.7427 -0.0270
 1667EOH      C 6671   1.572   4.309   2.702  0.4361  0.1013  0.5202
 1667EOH      C 6672   1.649   4.266   2.575  0.0263  0.3032  0.2062
 1667EOH      H 6673   1.552   4.159   2.804 -0.0549 -0.4611  0.1702
 1668EOH      O 6674   1.346   3.976   2.555 -0.1666  0.5193  0.1256
 1668EOH      C 6675   1.409   3.965   2.427  0.5304  0.3226  0.4839
 1668EOH      C 6676   1.380   4.088   2.339  0.3289 -0.3384 -0.3790
 1668EOH      H 6677   1.254   3.954   2.551  0.3449 -1.5367 -1.1062
 1669EOH      O 6678   4.688   2.481   4.558  0.4746  0.4397 -0.0558
 1669EOH      C 6679   4.771   2.590   4.601  0.1509  0.6085  0.1433
 1669EOH      C 6680   4.856   2.645   4.485  0.8036 -0.6031  0.0416
 1669EOH      H 6681   4.625   2.459   4.626  0.3859 -0.8450 -0.5513
 1670EOH      O 6682   5.661   5.031   2.594  0.0038  0.0430  0.0225
 1670EOH      C 6683   5.597   5.102   2.701  0.0586  0.5839 -0.2994
 1670EOH      C 6684   5.700   5.130   2.812 -0.0988 -0.5849  0.1481
 1670EOH      H 6685   5.595   5.003   2.533  1.1481 -0.4813 -0.9834
 1671EOH      O 6686   3.620   4.926   1.223  0.0111  0.0733  0.0291
 1671EOH      C 6687   3.594   4.824   1.319 -0.2104  0.5437  0.4693
 1671EOH      C 6688   3.721   4.816   1.406  0.0246  0.5265  0.1202
 1671EOH      H 6689   3.623   5.015   1.255  0.8459  1.1331 -2.8335
 1672EOH      O 6690   2.136   0.822   4.923  0.6455 -0.1226  0.1128
 1672EOH      C 6691   2.067   0.807   5.047 -0.1031  0.0867 -0.2730
 1672EOH      C 6692   1.961   0.697   5.027  0.1292 -0.2317  0.2151
 1672EOH      H 6693   2.204   0.887   4.935  0.3589  0.3186 -0.5946
 1673EOH      O 6694   3.870   5.644   4.173  0.0175 -0.4131 -0.3148
 1673EOH      C 6695   3.832   5.644   4.310  0.2152 -0.2569 -0.2604
 1673EOH      C 6696   3.710   5.738   4.305  0.8431  0.6117  0.4910
 1673EOH      H 6697   3.821   5.573   4.134  1.1540 -0.9567 -0.7652
 1674EOH      O 6698   0.833   2.721   5.556  0.3927 -0.1521 -0.2168
 1674EOH      C 6699   0.939   2.712   5.652  0.0758  0.2597  0.1723
 1674EOH      C 6700   0.923   2.827   5.753 -0.2849 -0.1305  0.5597
 1674EOH      H 6701   0.809   2.633   5.532  0.7898 -0.6594  1.1815
 1675EOH      O 6702   0.550   3.103   1.281 -0.1068  0.4275 -0.1595
 1675EOH      C 6703   0.625   3.004   1.210  0.3652  0.4710  0.2807
 1675EOH      C 6704   0.727   2.962   1.318  0.0495 -0.2753  0.2924
 1675EOH      H 6705   0.511   3.150   1.208 -0.5012  0.4258  0.0518
 1676EOH      O 6706   0.640   2.060   4.580  0.4602  0.0916 -0.5878
 1676EOH      C 6707   0.508   2.116   4.592  0.3826 -0.2065 -0.0285
 1676EOH      C 6708   0.495   2.183   4.730  0.2307 -0.4900  0.0961
 1676EOH      H 6709   0.701   2.133   4.582 -0.7099  1.1191 -1.7425
 1677EOH      O 6710   3.238   1.599   4.168 -0.8238 -0.1332 -0.3308
 1677EOH      C 6711   3.175   1.720   4.212 -0.1998 -0.0018  0.2086
 1677EOH      C 6712   3.132   1.801   4.088 -0.5473  0.6887  0.7767
 1677EOH      H 6713   3.238   1.542   4.244  0.1292  2.3005  1.5764
 1678EOH      O 6714   2.067   5.105   1.563 -0.0627 -0.7818 -0.4833
 1678EOH      C 6715   2.188   5.125   1.489 -0.3402 -0.5428 -0.8786
 1678EOH      C 6716   2.264   4.993   1.465  0.3449 -0.1922 -0.6562
 1678EOH      H 6717   2.006   5.177   1.557  1.3122  0.7286  2.8471
 1679EOH      O 6718   3.371   3.083   1.223  0.3420  0.1022 -0.2227
 1679EOH      C 6719   3.400   3.172   1.114  0.3962  0.4420  0.0674
 1679EOH      C 6720   3.386   3.084   0.989  0.1963 -0.0833  0.4570
 1679EOH      H 6721   3.302   3.026   1.195  0.6129 -0.4418  0.2164
 1680EOH      O 6722   0.118   4.356   0.622  0.0532 -0.2538 -0.0464
 1680EOH      C 6723   0.017   4.256   0.634  0.2549 -0.4674 -0.1136
 1680EOH      C 6724   0.016   4.158   0.515 -0.4473 -0.2932 -0.2516
 1680EOH      H 6725   0.099   4.410   0.697  2.3894  0.8744 -0.2277
 1681EOH      O 6726   5.848   5.978   0.127 -0.4026  0.0978  0.4957
 1681EOH      C 6727   5.789   6.054   0.021  0.5767  0.1347 -0.0281
 1681EOH      C 6728   5.886   6.053  -0.099  0.0833  0.0379 -0.4279
 1681EOH      H 6729   5.909   6.038   0.168 -0.7557  0.9174 -0.1729
 1682EOH      O 6730   0.534   2.559   2.353  0.1110 -0.0805  0.0952
 1682EOH      C 6731   0.403   2.510   2.322  0.0189  0.1398  0.1371
 1682EOH      C 6732   0.306   2.539   2.438  0.0895  0.1100  0.2036
 1682EOH      H 6733   0.592   2.520   2.289 -1.0987 -0.3121 -0.8758
 1683EOH      O 6734   4.856   1.332   3.903 -0.1870  0.1949  0.0377
 1683EOH      C 6735   4.973   1.344   3.984  0.2016  0.4462 -0.5548
 1683EOH      C 6736   5.097   1.265   3.938 -0.2502 -0.5224 -0.1077
 1683EOH      H 6737   4.872   1.386   3.827 -2.0782  0.2780 -0.3207
 1684EOH      O 6738   2.949   0.929   5.163  0.4928 -0.3228  0.1350
 1684EOH      C 6739   2.847   0.831   5.178  0.0700  0.0647 -0.1989
 1684EOH      C 6740   2.766   0.879   5.301  0.2148  0.0937 -0.1156
 1684EOH      H 6741   3.012   0.888   5.106 -1.1902 -0.6174 -1.5511
 1685EOH      O 6742   3.097   5.525   2.722  0.2675 -0.3654 -0.3663
 1685EOH      C 6743   3.211   5.584   2.785 -0.0771 -0.4258  0.3205
 1685EOH      C 6744   3.303   5.641   2.675 -0.5186 -0.0154  0.1630
 1685EOH      H 6745   3.101   5.431   2.725  0.2408 -0.3329  0.7430
 1686EOH      O 6746   6.200   2.776   0.696 -0.0572 -0.0390  0.2559
 1686EOH      C 6747   6.240   2.672   0.606 -0.3002 -0.1470  0.2747
 1686EOH      C 6748   6.218   2.721   0.462  0.0205 -0.1035  0.2401
 1686EOH      H 6749   6.210   2.749   0.786  1.1495  0.4124  0.2673
 1687EOH      O 6750   1.790   0.313   1.183 -0.2365 -0.1842 -0.2268
 1687EOH      C 6751   1.688   0.393   1.242  0.1704 -0.0139  0.2492
 1687EOH      C 6752   1.573   0.301   1.287  0.0736  0.0845  0.2033
 1687EOH      H 6753   1.792   0.328   1.089 -0.1314 -0.5599 -0.2874
 1688EOH      O 6754   2.702   3.388   5.972  0.5711 -0.1943 -0.1426
 1688EOH      C 6755   2.755   3.520   5.952 -0.4372  0.2498  0.1271
 1688EOH      C 6756   2.739   3.605   6.080  0.7539  0.5141  0.0976
 1688EOH      H 6757   2.730   3.337   5.897  0.3001 -0.1507 -0.2707
 1689EOH      O 6758   4.785   3.233   4.105  0.3613 -0.3878 -0.2398
 1689EOH      C 6759   4.739   3.262   3.972 -0.1461  0.1251  0.0445
 1689EOH      C 6760   4.832   3.361   3.901  0.0543 -0.2367 -0.2000
 1689EOH      H 6761   4.716   3.184   4.145  0.7128  0.0579  0.9164
 1690EOH      O 6762   3.598   5.258   4.216 -0.0695 -0.4361 -0.2200
 1690EOH      C 6763   3.456   5.245   4.230 -0.1352 -0.0985 -0.5638
 1690EOH      C 6764   3.404   5.389   4.237  0.1687  0.0004 -0.3348
 1690EOH      H 6765   3.640   5.199   4.277 -0.3435  0.9921  1.3808
 1691EOH      O 6766   0.275   0.417   5.085 -0.0916 -0.0992 -1.1846
 1691EOH      C 6767   0.194   0.533   5.104 -0.4366 -0.4826 -0.3164
 1691EOH      C 6768   0.193   0.623   4.980  0.0053  0.7036  0.5325
 1691EOH      H 6769   0.219   0.351   5.047 -1.3277 -1.0942  2.2490
 1692EOH      O 6770   4.449   5.831   3.246 -0.2030 -0.3059 -0.2389
 1692EOH      C 6771   4.534   5.931   3.190 -0.3846 -0.1340 -0.2099
 1692EOH      C 6772   4.542   5.910   3.037 -0.4823 -0.1192 -0.2172
 1692EOH      H 6773   4.504   5.756   3.230  2.4296  0.6365  3.6445
 1693EOH      O 6774   4.251   6.092   4.921 -0.6806  0.0645 -0.4855
 1693EOH      C 6775   4.237   5.952   4.947  0.0937  0.0811  0.0584
 1693EOH      C 6776   4.382   5.901   4.939  0.2672  0.6100 -0.2196
 1693EOH      H 6777   4.182   6.114   4.861 -2.1878  0.0705  1.1953
 1694EOH      O 6778   3.164   3.723   1.985 -0.0739  0.0256 -0.4789
 1694EOH      C 6779   3.115   3.728   2.119  0.4165  0.0892 -0.3038
 1694EOH      C 6780   3.224   3.703   2.225 -0.1152 -0.0105  0.2239
 1694EOH      H 6781   3.211   3.804   1.973  2.1102 -1.0819  0.4352
 1695EOH      O 6782   0.415   5.677   1.622 -0.2559  0.1329 -0.0577
 1695EOH      C 6783   0.368   5.613   1.741 -0.5189  0.3480 -0.0468
 1695EOH      C 6784   0.381   5.712   1.858  0.2366  0.3585 -0.1367
 1695EOH      H 6785   0.337   5.694   1.571  0.0454 -0.7323 -0.8387
 1696EOH      O 6786   5.609   4.876   4.839 -0.5008 -0.0715 -0.0687
 1696EOH      C 6787   5.488   4.823   4.893  0.0424 -1.1267  0.1360
 1696EOH      C 6788   5.354   4.879   4.840  0.4265  0.3740  0.7056
 1696EOH      H 6789   5.675   4.840   4.896 -0.4597 -0.4803 -0.3799
 1697EOH      O 6790   0.458   0.389   0.468 -0.2318 -0.0368  0.4443
 1697EOH      C 6791   0.565   0.448   0.542 -0.1592  0.4615 -0.0556
 1697EOH      C 6792   0.531   0.412   0.687  0.0944 -0.0444 -0.1223
 1697EOH      H 6793   0.443   0.426   0.382 -0.3279 -0.8635  0.0955
 1698EOH      O 6794   3.154   5.261   0.416  0.1751  0.0069  0.2675
 1698EOH      C 6795   3.076   5.282   0.298 -0.1382 -0.2555  0.4262
 1698EOH      C 6796   3.104   5.195   0.174  0.0765  0.4823 -0.0513
 1698EOH      H 6797   3.243   5.254   0.386 -0.8945 -0.6772 -2.8851
 1699EOH      O 6798   5.696   3.442   3.006  0.3308 -0.1689 -0.0664
 1699EOH      C 6799   5.813   3.513   2.967 -0.2199  0.6226 -0.2994
 1699EOH      C 6800   5.787   3.553   2.821 -0.4972 -0.3186 -0.5110
 1699EOH      H 6801   5.694   3.423   3.099 -2.5560 -1.1199 -0.2672
 1700EOH      O 6802   4.977   4.748   1.577  0.1311  0.3361 -0.5021
 1700EOH      C 6803   4.873   4.840   1.544 -0.2794 -0.0042 -0.1725
 1700EOH      C 6804   4.745   4.772   1.596 -0.0767  0.1176  0.4888
 1700EOH      H 6805   5.017   4.722   1.496  2.3012  2.2867 -0.0944
 1701EOH      O 6806   5.342   2.590   4.850 -0.3805  0.2691  0.1531
 1701EOH      C 6807   5.237   2.581   4.754  0.0681  0.0881 -0.3195
 1701EOH      C 6808   5.098   2.587   4.820 -0.0109 -0.3531 -0.4439
 1701EOH      H 6809   5.329   2.517   4.909 -0.1600 -0.5623 -0.8259
 1702EOH      O 6810   1.392   6.090   4.281  0.5481  0.2820  0.0200
 1702EOH      C 6811   1.316   6.096   4.159 -0.1286  0.5589  0.4545
 1702EOH      C 6812   1.188   6.174   4.192 -0.2675  0.5098  0.0255
 1702EOH      H 6813   1.324   6.100   4.346  1.1799  0.5161  0.6492
 1703EOH      O 6814   1.176   4.031   3.357 -0.3247  0.9278  0.2266
 1703EOH      C 6815   1.165   4.077   3.222 -0.1814  0.1780 -0.0403
 1703EOH      C 6816   1.064   4.000   3.135 -0.2421  0.2268 -0.0123
 1703EOH      H 6817   1.209   3.943   3.346 -1.0484  0.7103 -0.1942
 1704EOH      O 6818   1.383   4.681   3.061  0.2572  0.3102 -0.5541
 1704EOH      C 6819   1.333   4.576   2.979 -0.6125 -0.1632  0.5614
 1704EOH      C 6820   1.398   4.450   3.037  0.2667  0.1189  0.1938
 1704EOH      H 6821   1.477   4.669   3.066  0.1093 -0.8425 -0.4070
 1705EOH      O 6822   3.136   0.443   1.194  0.2728 -0.7797  0.2310
 1705EOH      C 6823   3.159   0.463   1.054 -0.5773 -0.0525  0.1922
 1705EOH      C 6824   3.280   0.558   1.042 -0.4471 -0.3410 -0.7882
 1705EOH      H 6825   3.060   0.493   1.221 -0.4347 -1.7197  0.0327
 1706EOH      O 6826   0.388   0.533   0.251 -0.3869  0.1060  0.0742
 1706EOH      C 6827   0.329   0.468   0.139  0.3843  0.4528 -0.5383
 1706EOH      C 6828   0.439   0.474   0.032  0.2189 -0.1833 -0.7470
 1706EOH      H 6829   0.426   0.619   0.240 -0.2469  0.1065  0.5496
 1707EOH      O 6830   5.878   2.478   0.023 -0.1929 -0.8043  0.2116
 1707EOH      C 6831   6.007   2.456  -0.034 -0.2011  0.3784 -0.2634
 1707EOH      C 6832   6.117   2.453   0.074 -0.4545  0.1864 -0.0135
 1707EOH      H 6833   5.819   2.504  -0.046  1.4373  1.1076 -0.5255
 1708EOH      O 6834   2.102   6.254   1.579  0.2794 -0.5502  0.0468
 1708EOH      C 6835   2.217   6.338   1.591 -0.0245 -0.2208  0.6780
 1708EOH      C 6836   2.343   6.256   1.624  0.1774 -0.0608  0.3112
 1708EOH      H 6837   2.044   6.286   1.512  1.3567 -0.7195 -0.9761
 1709EOH      O 6838   4.074   3.796   2.853 -0.2707  0.0441 -0.2162
 1709EOH      C 6839   4.156   3.887   2.926  0.1200 -0.0961 -0.4770
 1709EOH      C 6840   4.070   3.999   2.988  0.5558 -0.0441  0.0402
 1709EOH      H 6841   4.138   3.765   2.790  2.1808  2.4016  0.9876
 1710EOH      O 6842   0.063   1.304   3.309  0.6189 -0.3144  0.6613
 1710EOH      C 6843  -0.031   1.350   3.406 -0.2350 -0.0342 -0.2859
 1710EOH      C 6844  -0.165   1.282   3.375 -0.2380 -0.1826  0.0436
 1710EOH      H 6845   0.144   1.350   3.328  0.6177 -0.1368  0.2320
 1711EOH      O 6846   0.508   6.082   4.794 -0.5642 -0.2993 -0.1679
 1711EOH      C 6847   0.597   5.971   4.809 -0.8240 -0.4567  0.2243
 1711EOH      C 6848   0.667   5.980   4.946 -0.4261  0.0487 -0.0096
 1711EOH      H 6849   0.516   6.124   4.710 -0.2031 -0.5597 -0.2670
 1712EOH      O 6850   1.039   1.848   4.049  0.3550  0.5151 -0.5097
 1712EOH      C 6851   0.958   1.953   4.103 -0.7093 -0.3833 -0.3519
 1712EOH      C 6852   1.041   2.039   4.200 -0.1691 -0.8906 -0.3631
 1712EOH      H 6853   0.986   1.774   4.023 -0.4983  0.7527  0.4832
 1713EOH      O 6854   2.167   3.729   2.589 -0.1510  0.9849 -0.1781
 1713EOH      C 6855   2.298   3.783   2.604  0.1939  0.0626  0.1841
 1713EOH      C 6856   2.293   3.909   2.694 -0.2762 -0.1241  0.4231
 1713EOH      H 6857   2.169   3.636   2.569 -1.8059  0.9457 -0.2640
 1714EOH      O 6858   5.059   3.699   1.343 -0.2516  0.3188  0.4252
 1714EOH      C 6859   4.928   3.650   1.313 -0.1646  0.3893 -0.0726
 1714EOH      C 6860   4.898   3.662   1.162  0.2338 -0.1312 -0.1937
 1714EOH      H 6861   5.074   3.786   1.309 -3.9872  0.6169 -0.6917
 1715EOH      O 6862   4.089   5.321   3.432 -0.0083  0.1904  0.3146
 1715EOH      C 6863   4.167   5.224   3.502  0.0768  0.1614  0.1811
 1715EOH      C 6864   4.085   5.155   3.612 -0.1375  0.5401  0.2605
 1715EOH      H 6865   4.141   5.341   3.356  0.4505  0.6208  0.7388
 1716EOH      O 6866   5.386   5.808   0.735 -0.1080  0.5450 -0.2310
 1716EOH      C 6867   5.515   5.763   0.695 -0.2062 -0.0361  0.0847
 1716EOH      C 6868   5.492   5.611   0.688  0.0938 -0.1038  0.5602
 1716EOH      H 6869   5.398   5.883   0.792  2.8387  1.0735 -1.4976
 1717EOH      O 6870   4.325   2.085   3.799  0.0017  0.4580 -0.4593
 1717EOH      C 6871   4.454   2.098   3.858  0.0480 -0.1673 -0.4174
 1717EOH      C 6872   4.496   1.981   3.950 -0.0165  0.3502  0.2799
 1717EOH      H 6873   4.336   2.121   3.713  1.1614 -1.8041 -1.3052
 1718EOH      O 6874   5.310   2.414   5.117  0.2009 -0.1043  0.3039
 1718EOH      C 6875   5.427   2.350   5.168  0.1214 -0.2832  0.2612
 1718EOH      C 6876   5.440   2.218   5.091 -0.2064  0.1069 -0.4703
 1718EOH      H 6877   5.266   2.443   5.195  0.0601  0.8883 -0.1318
 1719EOH      O 6878   5.789   2.827   1.757 -0.0229  0.0098 -0.6756
 1719EOH      C 6879   5.648   2.811   1.773 -0.0221  0.3671 -0.3238
 1719EOH      C 6880   5.588   2.815   1.631 -0.1195 -0.6814 -0.3109
 1719EOH      H 6881   5.802   2.915   1.722 -0.4487  1.1714  1.9993
 1720EOH      O 6882   5.933   2.323   4.239  0.2074  0.2072 -0.0244
 1720EOH      C 6883   5.976   2.419   4.335  0.9568 -0.2921  0.1374
 1720EOH      C 6884   5.891   2.393   4.461  0.3961  0.8224 -0.0004
 1720EOH      H 6885   5.853   2.362   4.206  0.1100 -0.7083 -0.8933
 1721EOH      O 6886   0.956   0.516   4.896 -0.4862  0.4050  0.0481
 1721EOH      C 6887   0.972   0.432   4.781  0.1008  0.5974 -0.0132
 1721EOH      C 6888   1.124   0.417   4.765  0.0147  0.1524 -0.4025
 1721EOH      H 6889   0.867   0.538   4.919 -0.2334  1.4816  0.0046
 1722EOH      O 6890   5.868   3.524   1.739  0.3065  0.2608  0.0711
 1722EOH      C 6891   5.981   3.465   1.802 -0.0071 -0.3057  0.1099
 1722EOH      C 6892   6.099   3.506   1.712 -0.1297 -0.2506 -0.0253
 1722EOH      H 6893   5.878   3.618   1.730  1.0541 -0.0154 -2.3028
 1723EOH      O 6894   3.138   1.685   6.051 -0.5075  0.1217  0.4688
 1723EOH      C 6895   3.279   1.698   6.033 -0.5167 -0.1542  0.2015
 1723EOH      C 6896   3.358   1.672   6.162 -0.4703 -0.4831  0.1066
 1723EOH      H 6897   3.094   1.713   5.972 -0.7218  0.9080  0.8648
 1724EOH      O 6898   5.433   2.874   2.528  0.1907 -0.1752  0.0951
 1724EOH      C 6899   5.368   2.924   2.645  0.0547 -0.4948  0.1568
 1724EOH      C 6900   5.337   2.800   2.732  0.4298 -0.5010  0.2844
 1724EOH      H 6901   5.468   2.944   2.476 -0.9840 -0.8596 -1.6810
 1725EOH      O 6902   2.514   4.714   3.651  0.5433  0.4008 -0.2043
 1725EOH      C 6903   2.390   4.653   3.615  0.6679 -0.1569  0.3056
 1725EOH      C 6904   2.396   4.626   3.463  0.1377 -0.0361  0.2614
 1725EOH      H 6905   2.582   4.664   3.608 -0.5366 -1.3879  0.1706
 1726EOH      O 6906   4.581   0.571   1.758 -0.3192  0.6239  0.3909
 1726EOH      C 6907   4.504   0.513   1.864 -0.0743  0.0257  0.2427
 1726EOH      C 6908   4.518   0.583   2.000 -0.1523 -0.3386  0.4380
 1726EOH      H 6909   4.564   0.523   1.679 -0.2880  1.6572 -0.2519
 1727EOH      O 6910   4.862   4.710   4.709  0.2786  0.0355  0.6601
 1727EOH      C 6911   4.947   4.617   4.641 -0.2980 -0.0682  0.0639
 1727EOH      C 6912   4.953   4.632   4.488 -0.7950  0.3797  0.0844
 1727EOH      H 6913   4.777   4.728   4.671  1.0858 -0.2351 -1.3386
 1728EOH      O 6914   5.792   5.681   6.037  0.4403  0.4916  0.3587
 1728EOH      C 6915   5.737   5.648   6.164  0.3745 -0.0734  0.1870
 1728EOH      C 6916   5.587   5.675   6.185  0.3794 -0.1154  0.2738
 1728EOH      H 6917   5.886   5.671   6.040  0.5392  0.0931 -2.4473
 1729EOH      O 6918   2.401   0.674   1.707  0.1912  0.1090  0.1100
 1729EOH      C 6919   2.450   0.541   1.730  0.3959  0.1217 -0.2400
 1729EOH      C 6920   2.552   0.557   1.844  0.0575 -0.3821  0.1346
 1729EOH      H 6921   2.325   0.650   1.655  0.8800 -0.0070 -0.8408
 1730EOH      O 6922   2.637   5.996   0.537 -0.5844  0.2552 -0.1359
 1730EOH      C 6923   2.541   5.892   0.557 -0.0203 -0.2993 -0.2947
 1730EOH      C 6924   2.575   5.781   0.658 -0.1491 -0.4178 -0.3812
 1730EOH      H 6925   2.589   6.077   0.535  1.3011  1.4643  1.4493
 1731EOH      O 6926   2.505   0.793   3.116  0.6457 -0.0056 -0.2002
 1731EOH      C 6927   2.424   0.781   3.233  0.4247  0.0981 -0.3419
 1731EOH      C 6928   2.505   0.738   3.357 -0.1261  0.6246  0.2031
 1731EOH      H 6929   2.521   0.885   3.097 -0.1260 -0.2589 -2.1583
 1732EOH      O 6930   6.076   1.205   5.416  0.2917  0.0966  0.3359
 1732EOH      C 6931   5.949   1.155   5.374  0.4264  0.3066 -0.3328
 1732EOH      C 6932   5.877   1.271   5.302  0.0842  0.1392 -0.2616
 1732EOH      H 6933   6.093   1.176   5.504  0.7304 -2.1382 -0.4700
 1733EOH      O 6934   1.114   0.435   0.542  0.3956  0.4318 -0.2909
 1733EOH      C 6935   1.101   0.474   0.679 -0.1248  0.1640 -0.2593
 1733EOH      C 6936   0.968   0.442   0.749  0.2222 -0.0568  0.3072
 1733EOH      H 6937   1.158   0.352   0.529  2.2163  1.6910 -2.6094
 1734EOH      O 6938   0.080   5.977   4.167  0.3356  0.2356  0.0637
 1734EOH      C 6939   0.023   5.962   4.298  0.5587  0.0315  0.1366
 1734EOH      C 6940   0.051   6.091   4.377  0.4737 -0.2318  0.5968
 1734EOH      H 6941   0.050   6.059   4.130  2.5131  1.2686  0.4950
 1735EOH      O 6942   4.082   3.789   1.024 -0.5039  0.3327  0.1075
 1735EOH      C 6943   4.021   3.750   1.147 -0.1700 -0.3468  0.0575
 1735EOH      C 6944   4.139   3.708   1.237  0.2918  0.1536 -0.3112
 1735EOH      H 6945   4.083   3.717   0.964 -1.6479  1.0290 -0.7672
 1736EOH      O 6946   4.701   2.855   3.433  0.1348 -0.1038  0.3601
 1736EOH      C 6947   4.584   2.874   3.513  0.0961  0.2390  0.2202
 1736EOH      C 6948   4.619   2.994   3.603  0.2541  0.0134  0.4601
 1736EOH      H 6949   4.685   2.772   3.392 -1.5281 -0.4711  1.7260
 1737EOH      O 6950   0.920   2.159   1.710 -0.5061  0.0905 -0.0483
 1737EOH      C 6951   0.821   2.065   1.753 -0.0904 -0.6015 -0.5926
 1737EOH      C 6952   0.708   2.044   1.650 -0.2379 -0.6027 -0.4303
 1737EOH      H 6953   0.979   2.170   1.783 -1.3127 -1.2703  0.8157
 1738EOH      O 6954   2.507   4.410   1.821 -0.6065  0.0589 -0.0641
 1738EOH      C 6955   2.468   4.526   1.896  0.0680  0.1319  0.1749
 1738EOH      C 6956   2.451   4.482   2.043  0.5195 -0.0947  0.1620
 1738EOH      H 6957   2.600   4.396   1.818 -0.6558 -0.2685  0.0164
 1739EOH      O 6958   0.879   5.018   4.378  0.5132  1.0439  0.4801
 1739EOH      C 6959   0.739   5.006   4.405  0.4475  0.7279  0.0086
 1739EOH      C 6960   0.659   5.017   4.274  0.2200  0.3772  0.1187
 1739EOH      H 6961   0.916   5.055   4.456 -1.3214  0.2719  1.7676
 1740EOH      O 6962   6.038   0.682   0.950  0.3503  0.1586  0.7438
 1740EOH      C 6963   6.128   0.585   1.003  0.4504 -0.0627  0.1697
 1740EOH      C 6964   6.056   0.526   1.126 -0.2279  0.1904 -0.1033
 1740EOH      H 6965   5.973   0.638   0.898 -1.2772  2.7285  0.5001
 1741EOH      O 6966   4.423   1.112   1.434  0.0423  0.0462 -0.1438
 1741EOH      C 6967   4.289   1.154   1.461  0.0817  0.2720 -0.2969
 1741EOH      C 6968   4.276   1.261   1.572  0.0019  0.0245 -0.0672
 1741EOH      H 6969   4.411   1.024   1.401  1.1370  0.1187 -0.7521
 1742EOH      O 6970   2.187   1.364   2.145 -0.3335 -0.5787 -0.0944
 1742EOH      C 6971   2.148   1.461   2.048 -0.0114  0.3227  0.6704
 1742EOH      C 6972   2.241   1.581   2.077 -0.1619  0.5700  0.1316
 1742EOH      H 6973   2.125   1.292   2.140  0.7084 -1.5118  0.1246
 1743EOH      O 6974   3.709   0.306   1.804 -0.1199  0.0227 -0.3514
 1743EOH      C 6975   3.604   0.390   1.757 -0.4308 -0.2041 -0.0643
 1743EOH      C 6976   3.593   0.378   1.604 -0.3864  0.2549 -0.1054
 1743EOH      H 6977   3.691   0.213   1.797 -0.5097  0.0767 -0.0669
 1744EOH      O 6978   1.743   5.452   1.906  0.3080  0.4187  0.0343
 1744EOH      C 6979   1.690   5.368   2.008  0.5533 -0.2507 -0.3845
 1744EOH      C 6980   1.766   5.236   2.027  0.0412 -0.5186 -0.1612
 1744EOH      H 6981   1.665   5.489   1.867 -0.6128 -1.6742 -0.1684
 1745EOH      O 6982   3.094   4.870   5.055 -0.1379  0.0415  0.0388
 1745EOH      C 6983   3.080   5.010   5.033  0.4434  0.0667 -0.1795
 1745EOH      C 6984   3.047   5.094   5.158 -0.1063 -0.3112 -0.0681
 1745EOH      H 6985   3.035   4.835   4.991  1.4882 -0.7299 -1.0689
 1746EOH      O 6986   4.649   3.861   1.515  0.4564  0.4170 -0.4693
 1746EOH      C 6987   4.679   3.960   1.613  0.1692  0.0929 -0.0556
 1746EOH      C 6988   4.550   4.042   1.638 -0.1500 -0.4820  0.1951
 1746EOH      H 6989   4.677   3.907   1.437 -1.1061 -0.6896 -1.7232
 1747EOH      O 6990   6.175   1.802   4.446 -0.2522 -0.1618  0.2642
 1747EOH      C 6991   6.231   1.672   4.422  0.0771  0.0220  0.0221
 1747EOH      C 6992   6.131   1.582   4.347 -0.0533  0.2717 -0.1056
 1747EOH      H 6993   6.161   1.857   4.370  2.8861  1.0193  0.4597
 1748EOH      O 6994   4.881   0.573   5.966 -0.5109 -0.7563  0.2871
 1748EOH      C 6995   4.775   0.514   5.890 -0.2026 -0.7233 -0.1685
 1748EOH      C 6996   4.778   0.589   5.755 -0.4140  0.1360  0.2959
 1748EOH      H 6997   4.955   0.524   5.933  2.3842  3.3693  0.3371
 1749EOH      O 6998   4.520   6.118   2.508 -0.2796 -0.0254  0.0882
 1749EOH      C 6999   4.590   5.999   2.471  0.5725  0.4530  0.1452
 1749EOH      C 7000   4.716   5.974   2.556  0.1839 -0.2210  0.5284
 1749EOH      H 7001   4.436   6.132   2.467 -0.6291 -2.1406  0.0484
 1750EOH      O 7002   5.499   2.463   6.246  0.0872  0.1733  0.0175
 1750EOH      C 7003   5.505   2.487   6.386  0.0638  0.5639 -0.0482
 1750EOH      C 7004   5.369   2.542   6.434 -0.3659 -0.6482  0.1387
 1750EOH      H 7005   5.429   2.400   6.236  0.3939 -0.2743  0.6312
 1751EOH      O 7006   4.543   4.044   0.630  0.2714 -0.2673  0.3532
 1751EOH      C 7007   4.674   4.076   0.582  0.0407  0.2173  0.0371
 1751EOH      C 7008   4.664   4.147   0.446 -0.4604  0.8672  0.4051
 1751EOH      H 7009   4.552   3.993   0.709  1.0101 -1.1154 -0.2784
 1752EOH      O 7010   2.064   3.398   4.203 -0.6767  0.5186 -0.1935
 1752EOH      C 7011   2.082   3.380   4.062 -0.2335 -0.0126 -0.0673
 1752EOH      C 7012   2.169   3.256   4.031  0.0819  0.0234  0.6504
 1752EOH      H 7013   1.972   3.395   4.223  0.1065 -0.6663  3.5407
 1753EOH      O 7014   0.863   1.759   3.405  0.0208 -0.5174  0.5819
 1753EOH      C 7015   0.928   1.632   3.389  0.3505 -0.2797  0.0392
 1753EOH      C 7016   0.851   1.536   3.481 -0.5470  0.4832  0.0908
 1753EOH      H 7017   0.804   1.765   3.331  0.2598 -2.0797  0.2322
 1754EOH      O 7018   2.136   3.862   2.196  0.5117 -0.6123  0.6034
 1754EOH      C 7019   2.089   3.753   2.116 -0.3815  0.0010  0.2795
 1754EOH      C 7020   2.144   3.621   2.175  0.0727  0.0787  0.0312
 1754EOH      H 7021   2.070   3.870   2.263 -0.8224  1.2502 -0.8584
 1755EOH      O 7022   1.876   4.769   3.514 -0.0155  0.5570 -0.5752
 1755EOH      C 7023   1.823   4.640   3.548  0.1447  0.4529 -0.7158
 1755EOH      C 7024   1.684   4.662   3.612  0.4659 -0.6020  0.3535
 1755EOH      H 7025   1.955   4.744   3.470  1.4393  0.6689  1.8891
 1756EOH      O 7026   3.061   2.711   1.137 -0.4872  0.7893  0.3059
 1756EOH      C 7027   2.984   2.627   1.223  0.3867 -0.5961 -0.2518
 1756EOH      C 7028   3.047   2.622   1.363 -0.2687 -0.2591  0.0575
 1756EOH      H 7029   3.027   2.688   1.052 -0.6532  1.3360  0.2238
 1757EOH      O 7030   4.884   1.325   0.464 -0.0657 -0.1524  0.2109
 1757EOH      C 7031   4.780   1.238   0.418 -0.1959  0.4272 -0.5947
 1757EOH      C 7032   4.842   1.106   0.369 -0.2327  0.1554  0.0943
 1757EOH      H 7033   4.832   1.388   0.513 -0.6568  0.5763 -1.3207
 1758EOH      O 7034   3.966   2.792   5.957 -0.5285 -0.0969 -0.0018
 1758EOH      C 7035   3.854   2.711   5.920 -0.0171 -0.6520 -0.3395
 1758EOH      C 7036   3.768   2.773   5.809 -0.6058  0.0486  0.5024
 1758EOH      H 7037   4.043   2.739   5.942 -0.0339  1.3507 -2.8577
 1759EOH      O 7038   6.144   2.709   0.918 -0.1582  0.0395 -0.2469
 1759EOH      C 7039   6.067   2.798   0.998  0.0616 -0.0482  0.0636
 1759EOH      C 7040   5.942   2.851   0.926 -0.0257 -0.3069  0.0276
 1759EOH      H 7041   6.139   2.620   0.950 -1.3302 -0.2442 -1.1897
 1760EOH      O 7042   1.573   2.514   1.292 -0.1385 -0.0382 -0.4929
 1760EOH      C 7043   1.454   2.576   1.341  0.1179 -0.1032  0.2187
 1760EOH      C 7044   1.370   2.470   1.413 -0.2724  0.3006  0.3602
 1760EOH      H 7045   1.610   2.471   1.367 -2.0468 -0.0519  0.4603
 1761EOH      O 7046   1.265   5.814   2.382 -0.1703  0.7794 -0.1068
 1761EOH      C 7047   1.199   5.781   2.504  0.5856 -0.2382  0.0373
 1761EOH      C 7048   1.109   5.658   2.481  0.0643  0.1819 -0.1778
 1761EOH      H 7049   1.194   5.862   2.342 -0.0948  0.0866 -1.1016
 1762EOH      O 7050   2.131   1.585   2.607  0.3941 -0.2255  0.1314
 1762EOH      C 7051   2.107   1.626   2.472 -0.0068 -0.2815  0.1869
 1762EOH      C 7052   2.009   1.513   2.434 -0.5031  0.0935  0.3529
 1762EOH      H 7053   2.080   1.646   2.657  0.2587  0.8363 -1.2680
 1763EOH      O 7054   5.945   4.025   2.254 -0.0629  0.1214 -0.0315
 1763EOH      C 7055   6.081   4.000   2.216  0.0143  0.7068 -0.1444
 1763EOH      C 7056   6.095   3.921   2.084 -0.0126  0.1917  0.1604
 1763EOH      H 7057   5.947   4.051   2.345  1.5496  1.2905 -0.3746
 1764EOH      O 7058   3.950   5.522   2.241 -0.3078  0.1518  0.4112
 1764EOH      C 7059   4.011   5.639   2.184 -0.0621  0.0478  0.4614
 1764EOH      C 7060   4.034   5.744   2.295  0.0505 -0.0348  0.5165
 1764EOH      H 7061   3.867   5.547   2.278 -1.0615  1.1046 -1.8329
 1765EOH      O 7062   4.497   6.143   4.335 -0.0624  0.5019  0.1295
 1765EOH      C 7063   4.475   6.023   4.410 -0.3117  0.3807 -0.1382
 1765EOH      C 7064   4.485   6.075   4.554  0.1586  0.4387 -0.1908
 1765EOH      H 7065   4.427   6.197   4.368 -0.4664  0.6225 -0.9286
 1766EOH      O 7066   3.642   1.145   0.272  0.3163  0.3744  0.3856
 1766EOH      C 7067   3.654   1.287   0.253 -0.1951  0.3547 -0.0911
 1766EOH      C 7068   3.519   1.354   0.224 -0.5675 -0.2848  0.1395
 1766EOH      H 7069   3.726   1.114   0.303 -1.2231 -2.3334  2.0003
 1767EOH      O 7070   3.616   3.017   3.144  0.8222  0.0020 -0.5797
 1767EOH      C 7071   3.536   3.082   3.045 -0.0291 -0.5202 -0.2401
 1767EOH      C 7072   3.620   3.204   3.003 -0.1565 -0.1755  0.4937
 1767EOH      H 7073   3.606   3.048   3.233 -0.0299  2.8290 -1.6139
 1768EOH      O 7074   2.906   2.614   5.106 -0.5171  0.0849 -0.3026
 1768EOH      C 7075   2.807   2.559   5.194 -0.2674  0.5318  0.2526
 1768EOH      C 7076   2.871   2.505   5.323  0.0082 -0.3743 -0.2577
 1768EOH      H 7077   2.979   2.554   5.105 -0.2398  0.3984  1.2749
 1769EOH      O 7078   2.651   0.652   0.953 -0.3822 -0.4469 -0.2730
 1769EOH      C 7079   2.586   0.599   1.069 -0.3968 -0.3873 -0.2541
 1769EOH      C 7080   2.456   0.678   1.097  0.0039  0.1404  0.1184
 1769EOH      H 7081   2.745   0.655   0.965 -0.3204  1.6090 -1.0759
 1770EOH      O 7082   2.990   1.069   4.314  0.2082  0.4038  0.1408
 1770EOH      C 7083   3.066   0.964   4.256 -0.5020 -0.4019  0.6510
 1770EOH      C 7084   3.002   0.923   4.122 -0.0477  0.2851  0.2191
 1770EOH      H 7085   3.023   1.153   4.286  1.1136  0.1584  0.4547
 1771EOH      O 7086   2.486   2.638   2.164  0.4515 -0.6310 -0.6288
 1771EOH      C 7087   2.420   2.700   2.053 -0.0976  0.1959  0.1469
 1771EOH      C 7088   2.310   2.601   2.011 -0.3800  0.5807 -0.0231
 1771EOH      H 7089   2.579   2.641   2.149  0.6663  1.0295  0.8290
 1772EOH      O 7090   4.062   2.525   5.133  0.4066 -0.4813  0.4317
 1772EOH      C 7091   4.205   2.529   5.123  0.3528 -0.0472 -0.1536
 1772EOH      C 7092   4.254   2.442   5.006 -0.2560  0.0508 -0.4837
 1772EOH      H 7093   4.031   2.606   5.169  0.5770  0.2451 -1.0463
 1773EOH      O 7094   1.629   3.181   4.229  0.6841 -0.3107  0.7688
 1773EOH      C 7095   1.709   3.089   4.155 -0.3951 -0.6584  0.0160
 1773EOH      C 7096   1.730   3.142   4.011 -0.2668  0.0921  0.3058
 1773EOH      H 7097   1.538   3.180   4.202  1.0090 -0.7223 -0.3316
 1774EOH      O 7098   6.160   4.769   1.771  0.2289  0.0531 -0.2369
 1774EOH      C 7099   6.267   4.723   1.687  0.4918 -0.0518  0.1564
 1774EOH      C 7100   6.291   4.818   1.569  0.1131 -0.1708 -0.0165
 1774EOH      H 7101   6.173   4.712   1.845  0.7023 -1.4777 -1.4550
 1775EOH      O 7102   3.563   5.936   4.903 -0.4856  0.4930 -0.1086
 1775EOH      C 7103   3.652   6.042   4.938 -0.1008  0.3107 -0.5261
 1775EOH      C 7104   3.697   6.131   4.821 -0.2565  0.1998 -0.6701
 1775EOH      H 7105   3.480   5.945   4.949 -1.4236  0.8260 -1.8103
 1776EOH      O 7106   1.774   3.022   3.053  0.1745 -0.4576 -0.0868
 1776EOH      C 7107   1.787   3.023   3.196  0.1340  0.0900 -0.0844
 1776EOH      C 7108   1.878   2.914   3.254 -0.2010  0.0170  0.3083
 1776EOH      H 7109   1.805   3.106   3.023 -0.7764  0.9284  2.6828
 1777EOH      O 7110   2.201   3.571   4.331  0.4115  0.0255  0.6331
 1777EOH      C 7111   2.336   3.544   4.372  0.4630 -0.2339  0.3002
 1777EOH      C 7112   2.356   3.435   4.479 -0.2110 -0.5119  0.1456
 1777EOH      H 7113   2.163   3.494   4.293  2.5326  0.1786 -1.8934
 1778EOH      O 7114   3.197   5.601   4.784 -0.0834  0.3118 -0.4730
 1778EOH      C 7115   3.075   5.542   4.738  0.0523 -0.4269  0.1011
 1778EOH      C 7116   3.039   5.410   4.809  0.0184 -0.3399  0.2453
 1778EOH      H 7117   3.223   5.655   4.711  0.6554  0.4995 -0.0696
 1779EOH      O 7118   0.745   3.388   3.679 -0.0293  0.1986 -0.0264
 1779EOH      C 7119   0.888   3.387   3.686  0.0051  0.0817 -0.6821
 1779EOH      C 7120   0.912   3.273   3.786 -0.0324  0.5614 -0.1177
 1779EOH      H 7121   0.712   3.386   3.767  0.5672  2.2436  0.2561
 1780EOH      O 7122   1.810   5.071   6.272  0.2493  0.3235  0.3138
 1780EOH      C 7123   1.705   5.071   6.370 -0.1697 -0.3101 -0.1382
 1780EOH      C 7124   1.608   5.190   6.359  0.1649 -0.0416 -0.1834
 1780EOH      H 7125   1.849   4.985   6.278 -1.9864 -0.7784 -0.3649
 1781EOH      O 7126   1.899   2.574   4.029  0.2694  0.5590  0.2698
 1781EOH      C 7127   1.996   2.476   3.990 -0.0915  0.4481 -0.3446
 1781EOH      C 7128   2.065   2.529   3.863  0.4541 -0.1621 -0.3043
 1781EOH      H 7129   1.920   2.609   4.114  1.6652 -0.6974  0.4747
 1782EOH      O 7130   5.569   4.517   0.715 -0.2226 -0.1943  0.3007
 1782EOH      C 7131   5.622   4.543   0.585 -0.1845  0.4431  0.4382
 1782EOH      C 7132   5.537   4.494   0.466 -0.4252  1.1036  0.3364
 1782EOH      H 7133   5.574   4.602   0.757  0.2617  0.0685 -0.2740
 1783EOH      O 7134   0.134   2.389   1.012 -0.2119 -0.1210 -0.1718
 1783EOH      C 7135   0.217   2.435   0.906 -0.1581 -0.1889 -0.1585
 1783EOH      C 7136   0.321   2.517   0.984  0.2466 -0.7053 -0.1481
 1783EOH      H 7137   0.048   2.428   1.019  0.5391  1.3102  2.0279
 1784EOH      O 7138   3.210   5.741   3.510  0.3918 -0.4399 -0.9362
 1784EOH      C 7139   3.220   5.631   3.418 -0.4126 -1.0980 -0.2440
 1784EOH      C 7140   3.356   5.562   3.440  0.1766  0.0675 -0.1607
 1784EOH      H 7141   3.267   5.812   3.484  0.6917  1.2461  3.8953
 1785EOH      O 7142   5.125   1.858   3.951  0.1765 -0.2308 -0.0182
 1785EOH      C 7143   5.075   1.770   4.052  0.1285  0.0728  0.2239
 1785EOH      C 7144   4.924   1.750   4.028  0.1989 -0.2421  0.0487
 1785EOH      H 7145   5.212   1.888   3.972 -0.7806  2.2067  0.6208
 1786EOH      O 7146   1.354   5.708   4.930  0.2258 -0.4751 -0.2321
 1786EOH      C 7147   1.247   5.614   4.928 -0.4080  0.2458 -0.2074
 1786EOH      C 7148   1.184   5.607   5.068  0.3218  0.2392  0.1196
 1786EOH      H 7149   1.428   5.651   4.947 -0.1723 -0.5854  1.2391
 1787EOH      O 7150   0.614   2.662   0.418 -0.2015  0.0954 -0.1257
 1787EOH      C 7151   0.518   2.585   0.492  0.2489 -0.1235  0.2354
 1787EOH      C 7152   0.460   2.680   0.599 -0.5206 -0.6791  0.3093
 1787EOH      H 7153   0.683   2.600   0.402  0.5023  0.5258  1.1396
 1788EOH      O 7154   5.221   5.021   2.607  0.2210  0.3825  0.1373
 1788EOH      C 7155   5.081   5.014   2.582  0.3000  0.3110 -0.2969
 1788EOH      C 7156   5.046   5.147   2.514 -0.2197  0.3374  0.0206
 1788EOH      H 7157   5.221   5.033   2.701  1.0562  0.4068  0.1465
 1789EOH      O 7158   4.831   4.599   0.671  0.3215  0.0596 -0.6789
 1789EOH      C 7159   4.736   4.493   0.676  0.4954 -0.0503  0.4322
 1789EOH      C 7160   4.754   4.411   0.805  0.7224 -0.6435  0.0279
 1789EOH      H 7161   4.797   4.670   0.618 -2.0149 -1.9356 -1.9387
 1790EOH      O 7162   0.353   2.699   6.060 -0.2952 -0.7142  0.4172
 1790EOH      C 7163   0.279   2.731   5.942  0.0225 -0.0522  0.3938
 1790EOH      C 7164   0.249   2.595   5.877 -0.4009  0.4739 -0.5328
 1790EOH      H 7165   0.289   2.684   6.128 -0.5977 -0.0846  0.2770
 1791EOH      O 7166   4.795   1.029   2.691  1.1313  0.3907  0.3982
 1791EOH      C 7167   4.875   0.966   2.590 -0.2125  0.0689 -0.4644
 1791EOH      C 7168   5.007   0.939   2.664 -0.0124  0.3038 -0.7334
 1791EOH      H 7169   4.810   1.121   2.679  1.5566  0.4166  1.0766
 1792EOH      O 7170   4.629   2.625   3.340  0.3261  0.3128 -0.0177
 1792EOH      C 7171   4.674   2.496   3.381 -0.4401  0.2712  0.6999
 1792EOH      C 7172   4.771   2.505   3.500  0.5489  0.3348 -0.1041
 1792EOH      H 7173   4.553   2.611   3.286  0.2789 -0.5498  0.2607
 1793EOH      O 7174   0.112   0.033   3.287 -0.0967 -0.3829 -0.1719
 1793EOH      C 7175   0.118   0.162   3.225 -0.1704 -0.2204  0.1594
 1793EOH      C 7176   0.178   0.264   3.323 -0.3350  0.0592 -0.0305
 1793EOH      H 7177   0.024   0.003   3.304  0.8535 -1.4211  3.1990
 1794EOH      O 7178   3.329   4.965   3.988 -0.1116  0.3053  0.5984
 1794EOH      C 7179   3.426   4.863   4.009 -0.0981  0.2574  0.2935
 1794EOH      C 7180   3.528   4.879   3.894 -0.2841  0.0044  0.0904
 1794EOH      H 7181   3.279   4.961   4.069 -0.7371 -2.3161  0.1275
 1795EOH      O 7182   1.472   1.626   5.650  0.1372  0.7575 -0.0931
 1795EOH      C 7183   1.345   1.594   5.593  0.0087  0.7708  0.1823
 1795EOH      C 7184   1.245   1.693   5.654 -0.4297  0.3315  0.1786
 1795EOH      H 7185   1.539   1.566   5.620 -0.1558  0.2742  0.1965
 1796EOH      O 7186   2.367   0.787   6.192 -0.3374  0.2513 -0.0313
 1796EOH      C 7187   2.462   0.704   6.260 -0.1387  0.1329 -0.4550
 1796EOH      C 7188   2.605   0.753   6.231  0.1163 -0.1372  0.3320
 1796EOH      H 7189   2.346   0.862   6.245  1.1752 -0.2019  1.2845
 1797EOH      O 7190   5.146   5.402   3.918 -0.5746  0.6803 -0.0839
 1797EOH      C 7191   5.150   5.309   3.810 -0.1355  0.2857  0.2730
 1797EOH      C 7192   5.126   5.166   3.864  0.3756  0.2294  0.3530
 1797EOH      H 7193   5.187   5.483   3.891  1.7932 -0.3044  0.4444
 1798EOH      O 7194   5.215   0.341   5.674 -0.0734  0.1808  0.3748
 1798EOH      C 7195   5.160   0.384   5.549 -0.3996 -0.2770  0.3583
 1798EOH      C 7196   5.174   0.536   5.524  0.1994 -0.4154 -0.1591
 1798EOH      H 7197   5.282   0.276   5.663  0.5377  0.9718 -0.6713
 1799EOH      O 7198   5.663   0.196   5.093 -0.1627 -0.2683 -0.8397
 1799EOH      C 7199   5.660   0.054   5.076  0.1034 -0.3512 -0.2090
 1799EOH      C 7200   5.522   0.005   5.027 -0.2174  0.1681  0.1662
 1799EOH      H 7201   5.753   0.220   5.110 -0.4144 -0.5443  1.0676
 1800EOH      O 7202   3.773   5.949   2.751  0.0747 -0.0078  0.2987
 1800EOH      C 7203   3.715   5.947   2.882 -0.3876  0.1755  0.0983
 1800EOH      C 7204   3.627   5.824   2.910  0.0911 -0.0521  0.6064
 1800EOH      H 7205   3.793   6.038   2.731  1.8088  0.1630  2.5521
 1801EOH      O 7206   3.539   4.292   4.807 -0.0069 -0.0794  0.5814
 1801EOH      C 7207   3.453   4.191   4.860  0.1622 -0.4092  0.2295
 1801EOH      C 7208   3.466   4.204   5.013 -0.2716 -0.1347  0.2460
 1801EOH      H 7209   3.521   4.299   4.715 -1.4003 -1.5189  0.7411
 1802EOH      O 7210   3.764   5.709   1.710  0.3687 -0.1159 -0.4799
 1802EOH      C 7211   3.843   5.698   1.829  0.3473 -0.3715 -0.4880
 1802EOH      C 7212   3.856   5.550   1.866 -0.4713 -0.3050  0.0747
 1802EOH      H 7213   3.822   5.727   1.637 -1.0746 -1.3325 -1.9700
 1803EOH      O 7214   3.916   2.614   4.048  0.2507 -0.3956 -0.4814
 1803EOH      C 7215   3.849   2.551   4.158  0.4666  0.2328  0.0117
 1803EOH      C 7216   3.812   2.415   4.098  0.4646  0.2917 -0.1203
 1803EOH      H 7217   3.950   2.698   4.076 -2.1863  0.5373 -0.2018
 1804EOH      O 7218   0.410   3.987   4.748 -0.2211 -0.2097 -0.2986
 1804EOH      C 7219   0.271   4.023   4.750 -0.0483  0.4294  0.3516
 1804EOH      C 7220   0.225   3.986   4.893 -0.9579 -0.3933 -0.1497
 1804EOH      H 7221   0.431   3.972   4.657 -0.7945 -1.2640 -0.2567
 1805EOH      O 7222   3.661   4.003   2.872  0.0829 -0.4671  0.3565
 1805EOH      C 7223   3.728   4.122   2.830 -0.3432 -0.2499  0.2825
 1805EOH      C 7224   3.780   4.096   2.688 -0.0770 -0.5616  0.4353
 1805EOH      H 7225   3.701   3.921   2.847 -0.4295 -0.1208 -1.7225
 1806EOH      O 7226   2.403   0.383   6.041  0.3981 -0.5556 -0.4897
 1806EOH      C 7227   2.313   0.291   5.979 -0.4990 -0.1239  0.1523
 1806EOH      C 7228   2.182   0.302   6.060 -0.4339 -0.2315  0.2708
 1806EOH      H 7229   2.353   0.463   6.051  2.6394  0.8367 -0.1907
 1807EOH      O 7230   3.397   3.734   1.403  0.2774  0.0643  0.3519
 1807EOH      C 7231   3.303   3.662   1.483  0.2592 -0.5161 -0.1910
 1807EOH      C 7232   3.243   3.752   1.591  0.4133 -0.4297 -0.1768
 1807EOH      H 7233   3.406   3.689   1.320  1.2908 -0.8727  0.9436
 1808EOH      O 7234   3.943   4.556   4.625  0.3736 -0.1976 -0.0795
 1808EOH      C 7235   3.965   4.591   4.488  0.5198 -0.5089 -0.1358
 1808EOH      C 7236   4.093   4.676   4.479  0.1352  0.0229 -0.6774
 1808EOH      H 7237   3.877   4.619   4.650 -1.4934 -1.4726 -1.6521
 1809EOH      O 7238   1.085   1.256   3.489 -0.1878  0.1656 -0.1151
 1809EOH      C 7239   1.051   1.141   3.410  0.3520 -0.0406 -0.0496
 1809EOH      C 7240   0.920   1.174   3.336  0.6777 -0.2035 -0.7064
 1809EOH      H 7241   1.052   1.254   3.577 -0.2976 -1.4022 -0.1693
 1810EOH      O 7242   3.526   4.701   1.855 -0.2771  0.1379  0.1109
 1810EOH      C 7243   3.666   4.673   1.868 -0.3048 -0.3539 -0.6427
 1810EOH      C 7244   3.754   4.795   1.900 -0.4874 -0.3789 -0.0319
 1810EOH      H 7245   3.506   4.774   1.913  0.8744 -0.2264  0.9915
 1811EOH      O 7246   5.894   2.062   1.269  0.0008 -0.0171 -0.0101
 1811EOH      C 7247   5.999   2.109   1.354  0.2399  0.4069 -0.5349
 1811EOH      C 7248   5.950   2.192   1.474  0.3478  0.1959 -0.3430
 1811EOH      H 7249   5.851   2.139   1.236  2.1944  1.5769  0.7201
 1812EOH      O 7250   2.862   4.933   0.524 -0.4296  0.6670  0.2457
 1812EOH      C 7251   2.904   4.901   0.392  0.5577  0.3462  0.6352
 1812EOH      C 7252   3.046   4.840   0.392  0.3199 -0.2168 -0.0022
 1812EOH      H 7253   2.923   4.999   0.552  1.5153 -1.9532  2.4090
 1813EOH      O 7254   1.988   3.113   1.516 -0.1688  0.6705 -0.2710
 1813EOH      C 7255   1.858   3.058   1.541  0.5541 -0.7339  0.4397
 1813EOH      C 7256   1.860   2.917   1.478  0.6337 -0.0204 -1.1646
 1813EOH      H 7257   1.999   3.130   1.424  1.4381  0.5526 -0.1192
 1814EOH      O 7258   2.910   1.922   4.520 -0.2966 -0.0621  0.5770
 1814EOH      C 7259   2.776   1.971   4.504 -0.0806  0.2621 -0.2997
 1814EOH      C 7260   2.738   2.090   4.594 -0.1917  0.0710 -0.0908
 1814EOH      H 7261   2.970   1.991   4.495  0.0644 -0.8764 -0.8398
 1815EOH      O 7262   4.809   2.788   0.767 -0.5142  0.0778  0.2219
 1815EOH      C 7263   4.881   2.903   0.723 -0.3025 -0.0530  0.2260
 1815EOH      C 7264   4.940   2.885   0.582 -0.0423 -0.1003  0.3398
 1815EOH      H 7265   4.754   2.812   0.840  0.8286  1.3308  0.8540
 1816EOH      O 7266   1.103   6.276   5.984  0.3823  0.4236 -0.5642
 1816EOH      C 7267   1.242   6.307   5.981  0.5040 -0.0340  0.0819
 1816EOH      C 7268   1.277   6.454   5.950  0.3978  0.1518  0.8330
 1816EOH      H 7269   1.090   6.206   5.922 -1.4368 -1.4228  1.7967
 1817EOH      O 7270   4.102   1.538   1.501 -0.1590 -0.1184  0.0807
 1817EOH      C 7271   4.054   1.599   1.622 -0.2640  0.1251 -0.0835
 1817EOH      C 7272   3.901   1.602   1.605 -0.2548 -0.1320 -0.2148
 1817EOH      H 7273   4.180   1.589   1.485 -1.1736  1.4433  0.0282
 1818EOH      O 7274   5.088   4.568   0.663  0.2957 -0.1037 -0.1832
 1818EOH      C 7275   5.127   4.705   0.669 -0.1763  0.0364 -0.3331
 1818EOH      C 7276   5.280   4.709   0.666 -0.1719  0.0039 -0.1229
 1818EOH      H 7277   4.994   4.574   0.657  0.4525  0.9972 -1.5423
 1819EOH      O 7278   4.601   5.347   2.164 -0.5170 -0.1562 -0.0461
 1819EOH      C 7279   4.666   5.223   2.195  0.0735 -0.0231 -0.7343
 1819EOH      C 7280   4.557   5.115   2.197 -0.4244  0.4749 -0.5405
 1819EOH      H 7281   4.634   5.376   2.080  0.0068  0.2386  0.2955
 1820EOH      O 7282   1.072   4.575   0.072 -0.3834 -0.1167  0.1578
 1820EOH      C 7283   1.156   4.480   0.007 -0.4321 -0.1402  0.1293
 1820EOH      C 7284   1.212   4.536  -0.125  0.1883  0.0332  0.4645
 1820EOH      H 7285   1.053   4.536   0.156  0.6714 -1.5251 -0.2470
 1821EOH      O 7286   4.484   0.832   0.285  0.4022 -0.0683 -0.0063
 1821EOH      C 7287   4.609   0.782   0.238  0.1982 -0.2089 -0.3994
 1821EOH      C 7288   4.629   0.630   0.252 -0.1592 -0.1963  0.2422
 1821EOH      H 7289   4.446   0.870   0.208  0.9709  0.1959 -0.1597
 1822EOH      O 7290   3.512   3.089   5.464  0.4009  0.0609 -0.1061
 1822EOH      C 7291   3.461   3.214   5.419  0.0299 -0.0173  0.0893
 1822EOH      C 7292   3.571   3.319   5.394 -0.1041  0.0095 -0.3936
 1822EOH      H 7293   3.451   3.045   5.522  0.7338  0.4925  0.5723
 1823EOH      O 7294   0.438   2.399   1.531 -0.0390  0.0258 -0.1686
 1823EOH      C 7295   0.485   2.378   1.664  0.3549  0.0773 -0.2996
 1823EOH      C 7296   0.521   2.506   1.742  0.5724 -0.0918 -0.1238
 1823EOH      H 7297   0.511   2.382   1.473 -0.7960  0.3102 -1.2165
 1824EOH      O 7298   1.387   5.900   3.173  0.6458 -0.0809 -0.3969
 1824EOH      C 7299   1.376   5.935   3.311 -0.0215 -0.0827 -0.4480
 1824EOH      C 7300   1.350   6.086   3.328 -0.0126 -0.1478  0.1661
 1824EOH      H 7301   1.318   5.932   3.118 -0.5704 -0.1007  1.0777
 1825EOH      O 7302   4.201   6.050   2.777 -0.2219  0.0775 -0.0173
 1825EOH      C 7303   4.186   5.971   2.659  0.3469 -0.0029 -0.0352
 1825EOH      C 7304   4.202   5.819   2.684  0.4512  0.0311  0.1113
 1825EOH      H 7305   4.290   6.079   2.785 -0.2225 -0.4967  2.6349
 1826EOH      O 7306   1.913   0.589   0.055 -0.1417  0.7121 -0.2408
 1826EOH      C 7307   2.022   0.594  -0.038  0.2347 -0.1017  0.1492
 1826EOH      C 7308   2.048   0.743  -0.064 -0.1758 -0.0571 -0.0097
 1826EOH      H 7309   1.889   0.499   0.071  3.0046  0.0436  1.2541
 1827EOH      O 7310   1.621   1.298   1.507  0.4178  0.2758 -0.3573
 1827EOH      C 7311   1.684   1.197   1.428 -0.2970 -0.1721 -0.3592
 1827EOH      C 7312   1.837   1.218   1.427 -0.2924 -0.1751  0.1362
 1827EOH      H 7313   1.632   1.275   1.598 -2.7707 -1.0592 -0.2616
 1828EOH      O 7314   3.988   3.635   4.179 -0.6078 -0.0385 -0.3668
 1828EOH      C 7315   3.895   3.527   4.175 -0.8695  0.1860 -0.3284
 1828EOH      C 7316   3.874   3.481   4.320 -0.3831  0.2447 -0.2404
 1828EOH      H 7317   4.027   3.650   4.094 -0.1878  1.4280  0.0522
 1829EOH      O 7318   1.215   3.370   1.590  0.4355  0.2740 -0.3560
 1829EOH      C 7319   1.233   3.501   1.643 -0.0988  0.2775 -0.1726
 1829EOH      C 7320   1.268   3.589   1.522  0.1315  0.3649 -0.0436
 1829EOH      H 7321   1.301   3.332   1.598 -0.4503 -1.5534  0.8360
 1830EOH      O 7322   0.574   6.221   4.568 -0.4024 -0.4633  0.2825
 1830EOH      C 7323   0.659   6.183   4.461  0.5233  0.1201  0.8047
 1830EOH      C 7324   0.779   6.279   4.453  0.2893  0.3250 -0.3030
 1830EOH      H 7325   0.530   6.300   4.540 -0.0141 -1.4293 -3.2190
 1831EOH      O 7326   0.708   5.877   0.480 -0.2476  0.3911 -0.1061
 1831EOH      C 7327   0.757   5.897   0.613  0.2110  0.5380 -0.2950
 1831EOH      C 7328   0.638   5.884   0.710  0.1162  0.8308 -0.3705
 1831EOH      H 7329   0.634   5.935   0.468 -0.1661  0.3470 -0.8487
 1832EOH      O 7330   0.656   5.716   1.569  0.4123  0.3214  0.3340
 1832EOH      C 7331   0.702   5.629   1.465 -0.7450  0.0222  0.0654
 1832EOH      C 7332   0.794   5.523   1.528 -0.1338  0.5135  0.0159
 1832EOH      H 7333   0.570   5.691   1.599 -0.9512  1.3399 -2.5348
 1833EOH      O 7334   2.602   5.623   0.106  0.0529  0.2135 -0.3379
 1833EOH      C 7335   2.693   5.731   0.082  0.2376  0.1694  0.1556
 1833EOH      C 7336   2.630   5.865   0.123 -0.3002 -0.0742  0.1209
 1833EOH      H 7337   2.640   5.543   0.074  3.0346  0.3010  2.7484
 1834EOH      O 7338   0.936   5.941   0.275  0.2539 -0.5052 -0.2103
 1834EOH      C 7339   0.905   5.823   0.200  0.0567 -0.6386  0.0807
 1834EOH      C 7340   0.774   5.844   0.123  0.2251 -0.7465 -0.2373
 1834EOH      H 7341   0.871   5.936   0.343  0.4155 -2.3913 -0.1487
 1835EOH      O 7342   3.585   0.011   1.006 -0.4231  0.3298  0.4543
 1835EOH      C 7343   3.514   0.045   0.887 -0.3189 -0.4106  0.1740
 1835EOH      C 7344   3.501   0.198   0.878  0.0402 -0.3612  0.4729
 1835EOH      H 7345   3.668   0.056   1.010  1.2292 -2.6450  2.1544
 1836EOH      O 7346   5.795   2.187   2.634 -0.7303 -0.0301 -0.5272
 1836EOH      C 7347   5.823   2.253   2.511 -0.1209  0.8925  0.0976
 1836EOH      C 7348   5.707   2.222   2.414  0.3810 -0.1874 -0.1672
 1836EOH      H 7349   5.802   2.249   2.705  1.9581 -0.0499 -0.7211
 1837EOH      O 7350   2.890   5.873   3.802 -0.1221  0.1792  0.4023
 1837EOH      C 7351   2.850   5.736   3.814  0.4690 -0.1506 -1.2830
 1837EOH      C 7352   2.721   5.707   3.735 -0.5425  0.2948  0.1966
 1837EOH      H 7353   2.972   5.871   3.755 -0.5742  1.7535 -0.4680
 1838EOH      O 7354   2.238   5.365   5.035 -0.0777 -0.3692 -0.1222
 1838EOH      C 7355   2.249   5.405   4.898  0.2093 -0.0502 -0.0050
 1838EOH      C 7356   2.124   5.370   4.817 -0.0927  0.4417  0.2471
 1838EOH      H 7357   2.297   5.421   5.082  2.1210 -1.3361 -1.6113
 1839EOH      O 7358   4.799   3.725   6.221 -0.1358  0.0134  0.2312
 1839EOH      C 7359   4.869   3.605   6.255  0.1086  0.0686 -0.0756
 1839EOH      C 7360   4.932   3.550   6.126  0.5849  0.2505  0.0779
 1839EOH      H 7361   4.783   3.779   6.297  3.8996  0.4433  0.8676
 1840EOH      O 7362   0.381   3.341   0.899 -0.0951 -0.3174 -0.3550
 1840EOH      C 7363   0.321   3.429   0.803 -0.3687  0.1982  0.2856
 1840EOH      C 7364   0.428   3.477   0.704 -0.9061  0.2640 -0.2626
 1840EOH      H 7365   0.408   3.262   0.855 -0.7798 -2.2126  2.4920
 1841EOH      O 7366   3.717   1.722   3.046  0.4814 -0.2227  0.0338
 1841EOH      C 7367   3.650   1.654   2.939 -0.1442  0.1233  0.2008
 1841EOH      C 7368   3.764   1.586   2.861 -0.5920  0.0394 -0.3741
 1841EOH      H 7369   3.709   1.673   3.127 -0.7264 -0.6443 -0.3222
 1842EOH      O 7370   4.418   1.728   2.904  0.8298  0.0806 -0.0621
 1842EOH      C 7371   4.495   1.701   2.787  0.2393  0.2115 -0.4819
 1842EOH      C 7372   4.646   1.729   2.797  0.2624 -0.0608 -0.0704
 1842EOH      H 7373   4.353   1.665   2.931  2.2893 -2.4364 -2.1784
 1843EOH      O 7374   1.051   1.529   3.770 -0.0079 -0.0614 -0.4762
 1843EOH      C 7375   1.174   1.591   3.731  0.3055 -0.5928 -0.3284
 1843EOH      C 7376   1.157   1.744   3.730  0.0385 -0.6224 -0.1379
 1843EOH      H 7377   0.989   1.599   3.781 -0.8554 -0.6694 -1.4279
 1844EOH      O 7378   4.732   4.765   0.497  0.1388 -0.3370  0.2865
 1844EOH      C 7379   4.691   4.899   0.526 -0.0819 -0.2352 -0.5022
 1844EOH      C 7380   4.796   4.957   0.622  0.0644 -0.7034 -0.3753
 1844EOH      H 7381   4.768   4.759   0.410  1.1847  3.9516  0.3321
 1845EOH      O 7382   3.160   3.989   4.071  0.0178 -0.3247  0.0375
 1845EOH      C 7383   3.156   4.060   4.195 -0.8168  0.0274 -0.1882
 1845EOH      C 7384   3.167   3.956   4.308  0.0492 -0.3967 -0.6578
 1845EOH      H 7385   3.246   3.952   4.059 -0.8309 -1.9386 -1.1416
 1846EOH      O 7386   4.995   1.583   0.782  0.1423  0.2978 -0.2619
 1846EOH      C 7387   5.085   1.694   0.780  0.0928  0.3441 -0.0139
 1846EOH      C 7388   5.232   1.650   0.785  0.0756  0.2270 -0.5192
 1846EOH      H 7389   4.983   1.575   0.876 -0.5302  1.5291 -0.2326
 1847EOH      O 7390   1.261   3.333   6.138  0.2304 -0.2229  0.1600
 1847EOH      C 7391   1.213   3.200   6.122  0.3478 -0.2495  0.0205
 1847EOH      C 7392   1.144   3.183   5.985  0.1396  0.1545  0.0727
 1847EOH      H 7393   1.288   3.342   6.228 -3.1117  3.1631  0.9616
 1848EOH      O 7394   1.330   2.157   3.081  0.6387  0.5530  0.0620
 1848EOH      C 7395   1.343   2.126   2.942 -0.2375 -0.0606  0.1142
 1848EOH      C 7396   1.393   1.981   2.935 -0.1415  0.0034 -0.5892
 1848EOH      H 7397   1.416   2.190   3.104  0.5999  1.1155 -0.5436
 1849EOH      O 7398   4.566   3.153   4.216  0.2350  0.4728 -0.1093
 1849EOH      C 7399   4.450   3.236   4.227 -0.3902 -0.3442 -0.4720
 1849EOH      C 7400   4.410   3.260   4.374  0.0231  0.8058 -0.5439
 1849EOH      H 7401   4.560   3.083   4.279 -2.1743 -1.1635 -2.0584
 1850EOH      O 7402   0.108   0.990   1.750 -0.7540 -0.6315  0.2877
 1850EOH      C 7403  -0.016   1.017   1.683 -0.4427  0.0259 -0.0212
 1850EOH      C 7404  -0.077   1.144   1.746 -0.2529  0.1549 -0.0973
 1850EOH      H 7405   0.153   0.917   1.711 -0.0695 -0.7743  1.3162
 1851EOH      O 7406   2.308   4.110   4.140  0.6603 -0.2444  0.3350
 1851EOH      C 7407   2.222   4.004   4.182  0.3468  0.0043  0.3281
 1851EOH      C 7408   2.127   4.049   4.295 -0.0486  0.2413 -0.0958
 1851EOH      H 7409   2.267   4.153   4.066 -2.0114  0.4284  2.1252
 1852EOH      O 7410   1.718   0.862   6.127  0.2165 -0.4466  0.1675
 1852EOH      C 7411   1.794   0.979   6.158 -0.2518 -0.1682  0.2681
 1852EOH      C 7412   1.823   1.054   6.026 -0.3305 -0.4037  0.1177
 1852EOH      H 7413   1.700   0.834   6.216  0.9745 -0.0550  0.4566
 1853EOH      O 7414   0.182   4.939   3.876  0.4073  0.0205  0.2130
 1853EOH      C 7415   0.201   4.872   3.751 -0.1000  0.0001  0.1437
 1853EOH      C 7416   0.090   4.916   3.653  0.1410  0.3101  0.0079
 1853EOH      H 7417   0.207   5.029   3.863  1.5476 -0.1547  1.1214
 1854EOH      O 7418   1.638   2.665   2.400  0.1203  0.0004 -0.5128
 1854EOH      C 7419   1.663   2.805   2.390 -0.3557  0.0827 -0.5596
 1854EOH      C 7420   1.531   2.878   2.358  0.0331  0.9805 -0.1688
 1854EOH      H 7421   1.709   2.611   2.369 -1.3113 -1.2485 -1.6297
 1855EOH      O 7422   3.527   0.387   0.480  0.3434  0.3753 -0.4449
 1855EOH      C 7423   3.565   0.499   0.560  0.3133  0.0955 -0.0406
 1855EOH      C 7424   3.490   0.630   0.532 -0.1571 -0.1949 -0.1414
 1855EOH      H 7425   3.597   0.366   0.420 -0.6094  1.7629 -2.1280
 1856EOH      O 7426   5.171   5.503   5.868  0.2701 -0.0544 -0.4562
 1856EOH      C 7427   5.242   5.569   5.973 -0.5387  0.2260 -0.0823
 1856EOH      C 7428   5.168   5.585   6.107  0.0128 -0.0045  0.2553
 1856EOH      H 7429   5.144   5.418   5.898  0.2453  0.2531  0.4080
 1857EOH      O 7430   1.927   3.182   2.914  0.2657  0.2511 -0.0861
 1857EOH      C 7431   1.951   3.083   2.813 -0.3870  0.1762 -0.1722
 1857EOH      C 7432   1.847   3.096   2.700 -0.3588 -0.3169 -0.2559
 1857EOH      H 7433   2.002   3.176   2.971 -0.6105 -1.6589  0.9429
 1858EOH      O 7434   1.024   6.240   4.816 -0.2340  0.2021  0.4913
 1858EOH      C 7435   0.881   6.245   4.815 -0.2536 -0.3753  0.3512
 1858EOH      C 7436   0.841   6.352   4.918  0.3311 -0.0646  0.2583
 1858EOH      H 7437   1.052   6.186   4.889 -0.6191  1.9562  1.9786
 1859EOH      O 7438   0.989   4.499   0.327  0.1768 -0.1644  0.3802
 1859EOH      C 7439   1.084   4.412   0.386  0.0405  0.0311  0.8868
 1859EOH      C 7440   1.227   4.466   0.368  0.2404 -0.6439  0.4388
 1859EOH      H 7441   0.901   4.479   0.357  0.3731 -0.1754  0.9476
 1860EOH      O 7442   0.225   2.481   5.135  0.4895 -0.0055  0.1172
 1860EOH      C 7443   0.122   2.437   5.046  0.2546  0.4835  0.1507
 1860EOH      C 7444   0.165   2.304   4.982  0.2496  0.3591  0.4054
 1860EOH      H 7445   0.257   2.560   5.095  0.5418 -1.3110 -2.4944
 1861EOH      O 7446   0.216   2.015   6.113 -0.4611  0.7189 -0.7289
 1861EOH      C 7447   0.240   2.083   6.236  0.3052 -0.4579 -0.2174
 1861EOH      C 7448   0.169   2.010   6.351 -0.5520 -0.5671 -0.8153
 1861EOH      H 7449   0.275   2.056   6.053  2.7124 -1.7448  0.5637
 1862EOH      O 7450   5.916   4.194   2.023 -0.1474 -0.3507 -0.4238
 1862EOH      C 7451   5.802   4.280   2.014 -0.0199 -0.1156  0.1824
 1862EOH      C 7452   5.683   4.188   2.048  0.1110 -0.2545  0.2643
 1862EOH      H 7453   5.895   4.128   2.086  0.5091 -1.6151 -1.4938
 1863EOH      O 7454   2.581   5.205   4.768 -0.5864 -0.1965  0.1294
 1863EOH      C 7455   2.568   5.237   4.907 -0.2215  0.2791  0.0573
 1863EOH      C 7456   2.698   5.289   4.970  0.1886  0.0506 -0.5940
 1863EOH      H 7457   2.516   5.145   4.735  0.9991 -1.5618 -0.6387
 1864EOH      O 7458   3.646   0.420   5.523  0.3563 -0.5456  0.2623
 1864EOH      C 7459   3.555   0.365   5.427 -0.2778  0.3557  0.3330
 1864EOH      C 7460   3.494   0.242   5.497 -0.1745  0.1978  0.1486
 1864EOH      H 7461   3.732   0.422   5.483 -0.7864  0.0963 -2.3176
 1865EOH      O 7462   1.164   3.272   4.685 -0.2473 -0.5063  0.4267
 1865EOH      C 7463   1.068   3.279   4.579 -0.0427  0.4345  0.2950
 1865EOH      C 7464   0.980   3.402   4.608 -0.1480  0.4763 -0.2073
 1865EOH      H 7465   1.234   3.216   4.656 -0.6933 -1.7559  1.7309
 1866EOH      O 7466   3.108   1.989   5.449 -0.0905  0.0189 -0.3196
 1866EOH      C 7467   3.029   1.940   5.340  0.1672 -0.5178 -0.2683
 1866EOH      C 7468   2.892   2.011   5.333  0.4412  0.0122 -0.3320
 1866EOH      H 7469   3.192   1.947   5.446 -0.5699 -1.2488  2.0839
 1867EOH      O 7470   1.405   5.137   5.609  0.3156 -0.0976  0.0017
 1867EOH      C 7471   1.356   5.035   5.522  0.3079  0.1857 -0.3287
 1867EOH      C 7472   1.444   4.908   5.525 -0.1071 -0.1006 -0.2658
 1867EOH      H 7473   1.469   5.182   5.556 -0.4499 -0.4976 -1.2842
 1868EOH      O 7474   5.264   2.330   4.028  0.4597  0.2774 -0.1173
 1868EOH      C 7475   5.188   2.214   3.991  0.7866 -0.0229  0.1491
 1868EOH      C 7476   5.037   2.215   4.022  0.6047  0.6856 -0.7136
 1868EOH      H 7477   5.228   2.407   3.987 -0.1674 -0.8433 -1.7633
 1869EOH      O 7478   0.517   0.284   4.260 -0.2933 -0.1385  0.0529
 1869EOH      C 7479   0.462   0.375   4.165  0.7148  0.1381 -0.2641
 1869EOH      C 7480   0.354   0.456   4.238  0.2546 -0.2742 -0.4827
 1869EOH      H 7481   0.579   0.227   4.217  0.1734  0.2480  0.2135
 1870EOH      O 7482   0.616   1.604   0.417  0.4623  0.0211 -0.0850
 1870EOH      C 7483   0.699   1.571   0.529 -0.1258 -0.6072  0.1728
 1870EOH      C 7484   0.646   1.621   0.665  0.4493  0.0833  0.1446
 1870EOH      H 7485   0.668   1.656   0.358 -1.1921  1.8931  0.0616
 1871EOH      O 7486   3.115   6.265   3.521 -0.1463  0.3457 -0.2437
 1871EOH      C 7487   3.011   6.197   3.592  0.4752 -0.2730  0.0785
 1871EOH      C 7488   2.953   6.075   3.518 -0.3147  0.1024  0.0779
 1871EOH      H 7489   3.081   6.291   3.436  0.1856 -0.0777 -0.5072
 1872EOH      O 7490   4.492   2.651   2.947 -0.2113  0.2195  0.4068
 1872EOH      C 7491   4.589   2.748   2.907  0.2335 -0.2547  0.3293
 1872EOH      C 7492   4.604   2.844   3.027  0.0238 -0.6186  0.6472
 1872EOH      H 7493   4.475   2.598   2.870  0.9924  0.2573  0.1032
 1873EOH      O 7494   4.839   4.457   3.862  0.0356  0.0403  0.5108
 1873EOH      C 7495   4.833   4.326   3.920 -0.1687 -0.0561  0.2770
 1873EOH      C 7496   4.700   4.312   3.996 -0.0896 -0.1346  0.3992
 1873EOH      H 7497   4.849   4.524   3.927 -1.1427  1.0668 -0.3419
 1874EOH      O 7498   6.261   0.031   6.049 -0.3765 -0.1037 -0.2633
 1874EOH      C 7499   6.204  -0.004   5.923 -0.4272 -0.3733 -0.1674
 1874EOH      C 7500   6.128   0.117   5.866  0.6698  0.2877 -0.2500
 1874EOH      H 7501   6.329  -0.027   6.080  0.1910  1.0326  0.6430
 1875EOH      O 7502   2.077   5.697   3.906 -0.1400  0.7225  0.4534
 1875EOH      C 7503   2.039   5.571   3.962 -0.2968  0.5474 -0.0416
 1875EOH      C 7504   2.077   5.455   3.869  0.5599  0.9060 -0.1436
 1875EOH      H 7505   2.004   5.757   3.908 -0.3356  0.5526 -1.2385
 1876EOH      O 7506   2.068   1.589   0.181 -0.2513  0.2090  0.0208
 1876EOH      C 7507   2.072   1.731   0.193  0.1208  0.1930  0.0865
 1876EOH      C 7508   1.960   1.799   0.275  0.0868  0.2812 -0.0338
 1876EOH      H 7509   2.004   1.584   0.112 -1.2790  1.9134  0.8123
 1877EOH      O 7510   3.319   3.920   1.955  0.6123  0.1140  0.4381
 1877EOH      C 7511   3.332   4.063   1.947 -0.2479  0.1770  0.1626
 1877EOH      C 7512   3.190   4.121   1.933 -0.4278 -0.3453 -0.2372
 1877EOH      H 7513   3.408   3.889   1.963  0.5013 -0.5442 -0.8860
 1878EOH      O 7514   1.168   2.560   6.153  0.1405 -0.0926  0.3447
 1878EOH      C 7515   1.054   2.576   6.069 -0.0301 -0.7598  0.4471
 1878EOH      C 7516   1.068   2.484   5.946 -0.0206  0.0197 -0.1387
 1878EOH      H 7517   1.160   2.638   6.206 -0.0718  1.0135 -1.3142
 1879EOH      O 7518   0.532   4.069   1.946  0.4389 -0.0037 -0.9712
 1879EOH      C 7519   0.433   4.169   1.922  0.2154  0.0395  0.1042
 1879EOH      C 7520   0.504   4.291   1.859  0.0164 -0.0488 -0.2929
 1879EOH      H 7521   0.537   4.041   2.036 -1.3830 -1.5407 -1.3063
 1880EOH      O 7522   4.227   5.406   3.225  0.2417  0.0233  0.4950
 1880EOH      C 7523   4.249   5.547   3.214 -0.3184  0.0625 -0.1289
 1880EOH      C 7524   4.254   5.574   3.063  0.7879  0.5064 -0.0156
 1880EOH      H 7525   4.200   5.372   3.141  0.6153 -1.6391  1.0128
 1881EOH      O 7526   3.253   0.380   2.219 -0.1062  0.4319  0.8224
 1881EOH      C 7527   3.313   0.372   2.090 -0.4437 -0.0674  0.6927
 1881EOH      C 7528   3.456   0.324   2.117 -0.1334  0.5556  0.1720
 1881EOH      H 7529   3.223   0.293   2.242  2.3252 -0.1115  2.1258
 1882EOH      O 7530   2.716   4.435   1.320 -0.0503  0.5073  0.2979
 1882EOH      C 7531   2.681   4.531   1.421  0.0866  0.6806  0.1822
 1882EOH      C 7532   2.551   4.606   1.390  0.0256  0.3870 -0.2940
 1882EOH      H 7533   2.800   4.402   1.348 -0.9398 -2.0504  0.0555
 1883EOH      O 7534   3.814   6.193   2.685 -0.1516  0.1311  0.4167
 1883EOH      C 7535   3.930   6.245   2.749  0.1122  0.5093 -0.3685
 1883EOH      C 7536   3.916   6.282   2.898 -0.1837  0.0794 -0.2915
 1883EOH      H 7537   3.776   6.269   2.644 -0.0956 -0.0713 -0.0073
 1884EOH      O 7538   6.038   5.848   1.632 -0.3060  0.4614 -0.5080
 1884EOH      C 7539   5.917   5.906   1.680 -0.0063  0.3868  0.3488
 1884EOH      C 7540   5.817   5.920   1.563  0.0492  1.1158  0.3830
 1884EOH      H 7541   6.051   5.763   1.671  0.6393 -0.5942 -3.0216
 1885EOH      O 7542   4.962   0.865   3.767 -0.5464 -0.3709  0.2609
 1885EOH      C 7543   5.015   0.855   3.900  0.1609  0.4673  0.0386
 1885EOH      C 7544   5.158   0.797   3.897 -0.4602 -1.1226  0.9097
 1885EOH      H 7545   4.901   0.937   3.763 -0.4498 -0.0755  3.1587
 1886EOH      O 7546   1.557   2.274   3.160  0.2650  0.3195 -0.0590
 1886EOH      C 7547   1.530   2.412   3.191 -0.1099  0.2087  0.1126
 1886EOH      C 7548   1.625   2.462   3.301  0.1325  0.5787 -0.2601
 1886EOH      H 7549   1.531   2.227   3.238 -0.6522  2.2358  0.8325
 1887EOH      O 7550   6.002   5.201   3.537 -0.5032  0.5502  0.3067
 1887EOH      C 7551   5.886   5.183   3.620 -0.5006 -0.0775  0.1752
 1887EOH      C 7552   5.892   5.054   3.704 -0.1474  0.0630  0.3650
 1887EOH      H 7553   6.059   5.257   3.588  1.4924 -1.6045  0.5079
 1888EOH      O 7554   2.324   2.498   1.405 -0.2085 -0.8551  0.3347
 1888EOH      C 7555   2.424   2.417   1.344  0.0885 -0.0994 -0.1879
 1888EOH      C 7556   2.486   2.317   1.443  0.1228 -0.0621 -0.1718
 1888EOH      H 7557   2.288   2.551   1.336  0.6854 -0.2437  0.3317
 1889EOH      O 7558   3.029   2.289   0.197 -0.7460  0.0770 -0.2734
 1889EOH      C 7559   3.084   2.247   0.072  0.0429  0.7942 -0.1751
 1889EOH      C 7560   2.971   2.288  -0.025 -0.3322 -0.2617 -0.1846
 1889EOH      H 7561   3.018   2.207   0.242  1.8696 -0.1158  0.0894
 1890EOH      O 7562   4.408   4.925   3.831 -0.4417 -0.2489 -0.0562
 1890EOH      C 7563   4.323   4.873   3.729 -0.4672 -0.3650  0.0241
 1890EOH      C 7564   4.407   4.873   3.600  0.0005 -0.2476  0.3302
 1890EOH      H 7565   4.354   4.947   3.906  1.2125 -1.4729  1.5548
 1891EOH      O 7566   4.512   5.411   3.776  0.3246  0.0960 -0.1787
 1891EOH      C 7567   4.555   5.302   3.693 -0.1520 -0.0986 -0.1724
 1891EOH      C 7568   4.702   5.278   3.733 -0.1315 -0.1523 -0.2791
 1891EOH      H 7569   4.553   5.414   3.861 -2.2500  1.1117  1.0670
 1892EOH      O 7570   5.170   2.485   5.312  0.3340  0.2529  0.1400
 1892EOH      C 7571   5.067   2.568   5.368  0.1816  0.2270 -0.1014
 1892EOH      C 7572   5.043   2.676   5.261  0.3989  0.5655  0.1901
 1892EOH      H 7573   5.215   2.429   5.373  1.0238 -2.1610 -2.5305
 1893EOH      O 7574   5.616   0.861   3.303  0.0177 -0.6046  0.1717
 1893EOH      C 7575   5.698   0.861   3.420 -0.0434  0.0330  0.2137
 1893EOH      C 7576   5.838   0.808   3.384 -0.0288  0.3556 -0.2026
 1893EOH      H 7577   5.526   0.841   3.328  0.4010 -0.4899  1.7273
 1894EOH      O 7578   2.077   0.640   5.488  0.2313  0.0915 -0.6514
 1894EOH      C 7579   2.118   0.764   5.431 -0.6505  0.7233  0.0617
 1894EOH      C 7580   2.253   0.829   5.469 -0.2419 -0.4361  0.6217
 1894EOH      H 7581   1.991   0.648   5.528  0.1603 -2.2432 -0.2442
 1895EOH      O 7582   2.493   3.211   0.672 -0.1532 -0.0031  0.2955
 1895EOH      C 7583   2.629   3.187   0.711 -0.0779  0.5022  0.3603
 1895EOH      C 7584   2.711   3.234   0.589 -0.3191  0.0897  0.0320
 1895EOH      H 7585   2.465   3.150   0.606  0.2823  0.0135  0.0923
 1896EOH      O 7586   2.660   0.040   2.486 -0.7794 -0.5200  0.3790
 1896EOH      C 7587   2.719   0.045   2.616  0.0474 -0.3292 -0.0029
 1896EOH      C 7588   2.621  -0.013   2.719  0.1021 -0.2050  0.1185
 1896EOH      H 7589   2.597   0.110   2.479 -0.2981 -0.0553  0.7358
 1897EOH      O 7590   0.273   1.472   5.611 -0.0574  0.4659 -0.2146
 1897EOH      C 7591   0.150   1.407   5.642  0.1641 -0.0456 -0.4091
 1897EOH      C 7592   0.142   1.379   5.793 -0.0648 -0.4337 -0.4932
 1897EOH      H 7593   0.295   1.448   5.522 -0.3963 -1.0376  0.1048
 1898EOH      O 7594   5.295   2.333   6.184  0.4744 -0.1210 -0.0373
 1898EOH      C 7595   5.247   2.371   6.054  0.2559 -0.1328  0.0396
 1898EOH      C 7596   5.200   2.517   6.063  0.1586 -0.1757  0.2397
 1898EOH      H 7597   5.275   2.241   6.192 -0.3925 -0.1770 -2.3181
 1899EOH      O 7598   5.567   0.023   4.439  0.4232  0.5675 -0.5384
 1899EOH      C 7599   5.590   0.045   4.579  0.2676 -0.7427 -0.3004
 1899EOH      C 7600   5.718   0.132   4.580 -0.0467 -0.2847 -0.1358
 1899EOH      H 7601   5.485  -0.023   4.433 -0.0098  0.7921  2.7105
 1900EOH      O 7602   3.815   2.162   5.614  0.1181  0.1738 -0.0255
 1900EOH      C 7603   3.834   2.035   5.551  0.4615  0.2402 -0.0583
 1900EOH      C 7604   3.898   1.957   5.667  0.0481  0.0648  0.0515
 1900EOH      H 7605   3.736   2.165   5.665 -0.2365  1.5453 -0.6136
 1901EOH      O 7606   3.516   6.108   6.295 -0.3990  0.7492 -0.5609
 1901EOH      C 7607   3.581   6.110   6.422 -0.3389  0.3339 -0.5849
 1901EOH      C 7608   3.729   6.151   6.420 -0.3234  0.3246  0.0735
 1901EOH      H 7609   3.469   6.026   6.285  1.3522 -0.7227  2.5882
 1902EOH      O 7610   5.385   3.158   0.872 -0.1700  0.0576  0.1875
 1902EOH      C 7611   5.445   3.287   0.875  0.1335 -0.0733 -0.1526
 1902EOH      C 7612   5.529   3.315   0.750  0.6904 -0.2057  0.1920
 1902EOH      H 7613   5.328   3.147   0.947 -1.0048  0.7515 -0.3470
 1903EOH      O 7614   5.498   0.783   2.540  0.2727 -0.1663 -0.1996
 1903EOH      C 7615   5.410   0.895   2.539 -0.2030 -0.5291  0.4715
 1903EOH      C 7616   5.397   0.966   2.675 -1.1763  0.6656 -0.2292
 1903EOH      H 7617   5.486   0.747   2.453  1.9140  0.3755 -0.6704
 1904EOH      O 7618   1.000   4.676   3.993 -0.0837 -0.1598  0.5496
 1904EOH      C 7619   1.076   4.718   3.879 -0.4742  0.6332  0.5789
 1904EOH      C 7620   1.225   4.721   3.917 -0.3114  0.3261 -0.0267
 1904EOH      H 7621   1.039   4.718   4.068  2.2873 -1.1867 -0.0545
 1905EOH      O 7622   0.061   4.234   4.608 -0.1716 -0.0186  0.3232
 1905EOH      C 7623   0.084   4.375   4.622  0.0663  0.0021 -0.2411
 1905EOH      C 7624   0.124   4.440   4.489  0.1545  0.6397  0.0917
 1905EOH      H 7625  -0.016   4.226   4.554  0.2709 -1.1771 -0.1366
 1906EOH      O 7626   4.750   4.197   1.299 -0.6498 -0.0177  0.2560
 1906EOH      C 7627   4.693   4.279   1.196 -0.1643 -0.2706 -0.2130
 1906EOH      C 7628   4.803   4.382   1.164 -0.5331  0.3628  0.5391
 1906EOH      H 7629   4.732   4.252   1.374  1.1248 -0.2072  0.8373
 1907EOH      O 7630   2.368   5.728   2.228 -0.3675 -0.1875  0.2226
 1907EOH      C 7631   2.462   5.621   2.230 -0.5946 -0.3890  0.1055
 1907EOH      C 7632   2.428   5.561   2.092  0.1587 -0.3256 -0.1094
 1907EOH      H 7633   2.360   5.771   2.312 -1.3564  0.6964 -0.2977
 1908EOH      O 7634   1.925   3.146   1.042  0.1461 -0.5282 -0.1639
 1908EOH      C 7635   1.795   3.096   1.009 -0.1749  0.2623 -0.0870
 1908EOH      C 7636   1.694   3.166   1.102 -0.1476  0.0739  0.0837
 1908EOH      H 7637   1.975   3.158   0.963 -0.7499  1.8799 -0.3809
 1909EOH      O 7638   6.120   5.508   5.669  0.2255 -0.1863  0.1938
 1909EOH      C 7639   6.012   5.584   5.615  0.3070 -0.2216 -0.0173
 1909EOH      C 7640   6.021   5.628   5.467  0.0570 -0.1872 -0.0230
 1909EOH      H 7641   6.097   5.484   5.758  2.2154 -0.6441  0.6200
 1910EOH      O 7642   4.191   5.893   3.309  0.3361  0.2635  0.2538
 1910EOH      C 7643   4.119   5.898   3.186  0.3341 -0.2707  0.2322
 1910EOH      C 7644   3.984   5.824   3.191  0.2389 -0.1163 -0.0072
 1910EOH      H 7645   4.281   5.869   3.297  1.0778  3.5363 -1.2058
 1911EOH      O 7646   1.425   1.495   0.590 -0.4820  0.1911 -0.6198
 1911EOH      C 7647   1.423   1.354   0.565  0.3720 -0.0074  0.4122
 1911EOH      C 7648   1.492   1.328   0.430  0.2430  0.0990  0.3257
 1911EOH      H 7649   1.512   1.531   0.589 -0.4064  0.0133 -1.9655
 1912EOH      O 7650   2.783   4.510   4.339 -0.3395 -0.0950  0.7139
 1912EOH      C 7651   2.769   4.409   4.238  0.0192 -0.2243  0.7931
 1912EOH      C 7652   2.876   4.298   4.247  0.3627  0.0237 -0.2292
 1912EOH      H 7653   2.707   4.559   4.313 -0.3872 -0.3852  0.2868
 1913EOH      O 7654   1.320   3.909   1.919 -0.1369  0.4188 -0.0002
 1913EOH      C 7655   1.232   3.800   1.950 -0.2924  0.6658  0.4294
 1913EOH      C 7656   1.130   3.827   2.063 -0.4549 -0.1248  0.4720
 1913EOH      H 7657   1.283   3.956   1.846 -2.2016 -1.5290 -0.2652
 1914EOH      O 7658   2.562   3.058   2.995 -0.0227  0.1608 -0.3689
 1914EOH      C 7659   2.619   3.073   3.126 -0.1911  0.0422 -0.2810
 1914EOH      C 7660   2.772   3.082   3.106 -0.1852  0.2515 -0.1296
 1914EOH      H 7661   2.526   2.971   2.995 -0.7668  0.4599  0.5580
 1915EOH      O 7662   1.655   4.819   6.071 -0.3828  0.7893 -0.9410
 1915EOH      C 7663   1.528   4.753   6.059  0.0489 -0.1604 -0.3485
 1915EOH      C 7664   1.553   4.602   6.046 -0.3705 -0.2727  0.1212
 1915EOH      H 7665   1.644   4.913   6.071 -0.4522  0.7828 -0.7997
 1916EOH      O 7666   0.377   0.310   5.549  0.1136  0.2016  0.6796
 1916EOH      C 7667   0.431   0.343   5.421 -0.1367  0.5951  0.6752
 1916EOH      C 7668   0.577   0.385   5.448  0.0589  0.3684 -0.0290
 1916EOH      H 7669   0.411   0.223   5.561  2.1084  0.8813  0.0726
 1917EOH      O 7670   4.435   4.199   5.400 -0.0007 -0.4069  0.0572
 1917EOH      C 7671   4.387   4.099   5.309 -0.2027 -0.0564 -0.2212
 1917EOH      C 7672   4.489   4.116   5.195 -0.4760  0.3503 -0.4052
 1917EOH      H 7673   4.435   4.285   5.362 -1.5689  0.7639  2.5809
 1918EOH      O 7674   1.519   1.872   2.202  0.5151 -0.0451 -0.3785
 1918EOH      C 7675   1.619   1.944   2.130  0.5102  0.4782  0.1298
 1918EOH      C 7676   1.589   2.089   2.172  0.3965  0.6282 -0.4628
 1918EOH      H 7677   1.552   1.784   2.205  0.7644  0.0770  0.7544
 1919EOH      O 7678   3.144   3.078   1.757  0.5653  0.0266 -0.3726
 1919EOH      C 7679   3.228   3.025   1.654  0.9450  0.1075 -0.1028
 1919EOH      C 7680   3.293   3.134   1.566  0.2397 -0.0123 -0.7718
 1919EOH      H 7681   3.081   3.011   1.778  0.8938 -0.4719 -0.9718
 1920EOH      O 7682   3.913   0.445   5.404  0.1513  0.2216 -0.0687
 1920EOH      C 7683   3.987   0.549   5.339  0.4515  0.0836  0.0586
 1920EOH      C 7684   4.020   0.527   5.190  0.1480 -0.1026  0.0185
 1920EOH      H 7685   3.962   0.365   5.397 -0.5369 -0.2024 -0.1715
 1921EOH      O 7686   2.387   2.947   6.251  0.3154  0.4736  0.2774
 1921EOH      C 7687   2.495   2.870   6.198 -0.3788 -0.3832  0.0792
 1921EOH      C 7688   2.424   2.769   6.106 -0.4041 -0.0707 -0.2437
 1921EOH      H 7689   2.420   3.025   6.292 -0.5203  0.4028  1.1073
 1922EOH      O 7690   2.336   0.344   2.752 -0.3395  0.0391 -0.1435
 1922EOH      C 7691   2.313   0.235   2.842  0.3049 -0.1528 -0.2094
 1922EOH      C 7692   2.249   0.275   2.976  0.1819 -0.7221 -0.0976
 1922EOH      H 7693   2.415   0.390   2.777 -1.1138  1.5073 -0.3417
 1923EOH      O 7694   4.891   4.344   2.651 -0.2662  0.0866  0.7235
 1923EOH      C 7695   4.939   4.448   2.567 -0.0576 -0.3293  0.3229
 1923EOH      C 7696   4.964   4.566   2.663  0.2354 -0.1458  0.0219
 1923EOH      H 7697   4.896   4.263   2.602 -0.8097 -0.3507  1.3711
 1924EOH      O 7698   0.270   6.098   6.017 -0.0678  0.3137 -0.2968
 1924EOH      C 7699   0.267   6.070   5.876 -0.2572 -0.2681 -0.1792
 1924EOH      C 7700   0.155   5.964   5.873 -0.0769 -0.4755  0.2713
 1924EOH      H 7701   0.278   6.191   6.030 -1.9042  0.2818  1.2881
 1925EOH      O 7702   3.787   1.403   5.925  0.1204 -0.5547  0.0660
 1925EOH      C 7703   3.728   1.426   5.797 -0.1356 -0.0012  0.2830
 1925EOH      C 7704   3.795   1.545   5.726  0.1326 -0.5599 -0.4066
 1925EOH      H 7705   3.771   1.315   5.957  0.2164 -0.8633 -0.7077
 1926EOH      O 7706   1.531   5.496   2.831 -0.3934  0.2052 -0.3218
 1926EOH      C 7707   1.523   5.634   2.794  0.2671  0.3095 -0.0843
 1926EOH      C 7708   1.579   5.647   2.651 -0.0480 -0.6317 -0.2916
 1926EOH      H 7709   1.451   5.455   2.801 -0.2220 -0.6048  0.3229
 1927EOH      O 7710   1.620   2.588   4.032  0.2486  0.0841 -0.0384
 1927EOH      C 7711   1.601   2.725   4.070  0.0467  0.2010 -0.5567
 1927EOH      C 7712   1.465   2.761   4.133  0.0255 -0.3167 -0.3018
 1927EOH      H 7713   1.714   2.579   4.029  0.3172  0.7488 -0.0767
 1928EOH      O 7714   5.121   5.609   4.878 -0.4719 -0.1032 -0.0635
 1928EOH      C 7715   5.244   5.576   4.812 -0.0356 -0.1998  0.7880
 1928EOH      C 7716   5.238   5.551   4.660 -0.9933  0.2318  0.7534
 1928EOH      H 7717   5.062   5.643   4.813 -0.0896  2.0599  0.6787
 1929EOH      O 7718   4.669   4.845   3.881 -0.5349  0.5153 -0.1263
 1929EOH      C 7719   4.727   4.904   3.765  0.4126  0.0989  0.1342
 1929EOH      C 7720   4.859   4.844   3.711  0.0550 -0.4295 -0.1532
 1929EOH      H 7721   4.578   4.873   3.879 -0.7200 -0.0054  0.9049
 1930EOH      O 7722   5.860   2.809   4.535  0.5760 -0.1242 -0.0091
 1930EOH      C 7723   5.794   2.866   4.422 -0.2644 -0.2277  0.4273
 1930EOH      C 7724   5.896   2.884   4.308 -0.2459 -0.4254  0.4129
 1930EOH      H 7725   5.850   2.863   4.612 -1.1562  0.3762 -0.5672
 1931EOH      O 7726   4.826   5.531   0.476  0.2310 -0.3439  0.0362
 1931EOH      C 7727   4.711   5.452   0.506 -0.0479  0.0321 -0.0405
 1931EOH      C 7728   4.732   5.300   0.489 -0.2813  0.0103 -0.1349
 1931EOH      H 7729   4.805   5.582   0.399  1.1293  0.2611  0.1808
 1932EOH      O 7730   3.732   1.584   3.269 -0.2126  0.1347  0.1417
 1932EOH      C 7731   3.634   1.481   3.284  0.2827 -0.3256  0.2298
 1932EOH      C 7732   3.499   1.556   3.286  0.2126 -0.4441 -0.0312
 1932EOH      H 7733   3.808   1.576   3.324 -0.3600  1.1048  0.4880
 1933EOH      O 7734   1.797   0.673   5.533  0.3775  0.3862  0.1642
 1933EOH      C 7735   1.749   0.683   5.667  0.3169  0.2544  0.1520
 1933EOH      C 7736   1.782   0.826   5.713 -0.0958  0.2894  0.3407
 1933EOH      H 7737   1.740   0.731   5.485  1.2235  0.4640 -0.7680
 1934EOH      O 7738   5.643   0.931   5.272 -0.1412 -0.0771 -0.6000
 1934EOH      C 7739   5.701   0.924   5.142  0.2975 -0.1769 -0.3980
 1934EOH      C 7740   5.602   0.988   5.044  0.8290  0.3556 -0.5853
 1934EOH      H 7741   5.573   0.995   5.270 -0.6491 -0.6174 -0.4109
 1935EOH      O 7742   1.447   3.305   5.136  0.1054  0.5275  0.5493
 1935EOH      C 7743   1.310   3.300   5.095  0.3239  0.3299 -0.1655
 1935EOH      C 7744   1.302   3.179   5.000 -0.1067 -0.1805  0.5285
 1935EOH      H 7745   1.465   3.262   5.218 -1.8558 -1.8239 -0.1904
 1936EOH      O 7746   3.387   5.279   0.346  0.1099 -0.5243  0.1428
 1936EOH      C 7747   3.489   5.379   0.333 -0.1536 -0.2223  0.3980
 1936EOH      C 7748   3.523   5.402   0.185 -0.3297  0.3244  0.4418
 1936EOH      H 7749   3.423   5.198   0.313 -0.3940  0.0308 -1.8826
 1937EOH      O 7750   1.431   2.531   2.333  0.2890  0.5715  0.5511
 1937EOH      C 7751   1.442   2.543   2.191  0.3163 -0.5483  0.4502
 1937EOH      C 7752   1.379   2.419   2.125  0.8558 -0.5713 -0.0291
 1937EOH      H 7753   1.500   2.583   2.369 -1.2232  0.6531  3.4468
 1938EOH      O 7754   1.761   2.935   5.483  0.8419  0.2736 -0.6586
 1938EOH      C 7755   1.699   3.049   5.422  0.0953  0.0317 -0.3690
 1938EOH      C 7756   1.817   3.147   5.405  0.3677 -0.2653 -0.1856
 1938EOH      H 7757   1.851   2.922   5.457  0.4077 -2.4011 -0.9359
 1939EOH      O 7758   2.959   1.305   1.952 -0.1692  0.3985 -0.1333
 1939EOH      C 7759   2.919   1.398   1.851  0.2060  0.3198 -0.3576
 1939EOH      C 7760   2.835   1.504   1.924  0.1428  0.0139  0.0147
 1939EOH      H 7761   2.961   1.220   1.911  0.0842  1.0120 -1.4312
 1940EOH      O 7762   4.432   2.546   3.186 -0.2704  0.2385 -0.0896
 1940EOH      C 7763   4.292   2.525   3.207 -0.2411  0.0860 -0.0357
 1940EOH      C 7764   4.267   2.586   3.347  0.1003 -0.1622  0.1324
 1940EOH      H 7765   4.444   2.584   3.101 -2.1253 -2.5197 -1.6920
 1941EOH      O 7766   4.406   0.862   1.400 -0.5168 -0.1579 -0.3036
 1941EOH      C 7767   4.275   0.808   1.389 -0.4277 -0.3625 -0.3504
 1941EOH      C 7768   4.248   0.774   1.537  0.7055 -0.2879 -0.1284
 1941EOH      H 7769   4.456   0.799   1.450  1.5522  1.7521  0.1233
 1942EOH      O 7770   4.696   0.311   5.313  0.0313 -0.7018 -0.4222
 1942EOH      C 7771   4.626   0.285   5.435 -0.0312 -0.0165 -0.3130
 1942EOH      C 7772   4.730   0.279   5.549 -0.2339  0.1448 -0.1198
 1942EOH      H 7773   4.658   0.384   5.267 -3.0089 -1.2436  1.0862
 1943EOH      O 7774   0.259   5.748   5.250 -0.3509  0.2072  0.0022
 1943EOH      C 7775   0.128   5.701   5.280 -0.2740  0.1290  0.2142
 1943EOH      C 7776   0.107   5.579   5.190 -0.9179  0.2581  0.1842
 1943EOH      H 7777   0.276   5.814   5.315  0.6463 -1.2296  1.2230
 1944EOH      O 7778   2.692   3.519   1.155  0.1100 -0.1513 -0.0377
 1944EOH      C 7779   2.577   3.447   1.108 -0.1807  0.2104  0.1185
 1944EOH      C 7780   2.617   3.306   1.062 -0.2718  0.0745  0.4554
 1944EOH      H 7781   2.674   3.609   1.133 -0.8800  0.1803  2.0215
 1945EOH      O 7782   5.974   3.589   4.514  0.6588 -0.2244 -0.7477
 1945EOH      C 7783   6.070   3.695   4.514 -0.5147  0.8618  0.1918
 1945EOH      C 7784   6.143   3.695   4.379 -0.4189 -0.1467  0.2343
 1945EOH      H 7785   6.016   3.507   4.495  1.4601 -0.3959  1.6232
 1946EOH      O 7786   3.214   3.989   3.628  0.3817 -0.7691 -0.1133
 1946EOH      C 7787   3.160   3.981   3.495 -0.3524  0.4191  0.1078
 1946EOH      C 7788   3.082   3.850   3.478  0.1245  0.1328  0.1072
 1946EOH      H 7789   3.152   3.951   3.687  0.2950 -0.6348 -0.1174
 1947EOH      O 7790   0.344   3.312   1.543 -0.3074  0.2167  0.0992
 1947EOH      C 7791   0.274   3.287   1.421 -0.1761  0.0774  0.0525
 1947EOH      C 7792   0.120   3.281   1.418 -0.1817  0.2088  0.0922
 1947EOH      H 7793   0.435   3.298   1.523  0.3288  2.3953  1.3228
 1948EOH      O 7794   3.441   4.626   1.642 -0.2540  0.4745  0.2934
 1948EOH      C 7795   3.313   4.670   1.597 -0.4043  0.0898  0.3426
 1948EOH      C 7796   3.297   4.824   1.598  0.6566  0.2089 -0.6430
 1948EOH      H 7797   3.465   4.665   1.724  1.8339  1.2180 -0.6406
 1949EOH      O 7798   2.066   4.692   3.371 -0.0441 -0.2222  0.0295
 1949EOH      C 7799   2.088   4.762   3.248 -0.4295  0.1771  0.1871
 1949EOH      C 7800   2.211   4.852   3.272 -0.5350  0.5616 -0.7127
 1949EOH      H 7801   2.086   4.601   3.354  1.6325  0.6033 -2.8113
 1950EOH      O 7802   4.438   5.493   0.981  0.3747 -0.1245  0.0705
 1950EOH      C 7803   4.560   5.483   1.056  0.2796 -0.5684  0.1716
 1950EOH      C 7804   4.660   5.558   0.966 -0.3001 -0.1967 -0.1708
 1950EOH      H 7805   4.366   5.452   1.026 -1.7823  1.5203 -1.8288
 1951EOH      O 7806   0.922   3.379   1.721 -0.4162  0.3411  0.3934
 1951EOH      C 7807   0.961   3.320   1.846 -0.2236  0.3723  0.3485
 1951EOH      C 7808   1.020   3.181   1.818 -0.7328  0.2121  0.0676
 1951EOH      H 7809   1.003   3.392   1.674 -0.5027 -0.0241  0.1341
 1952EOH      O 7810   4.867   0.026   2.608 -0.1446  0.0997 -0.2075
 1952EOH      C 7811   4.951  -0.032   2.507 -0.1293 -0.4135  0.1033
 1952EOH      C 7812   5.041  -0.149   2.553  0.3046 -0.2247 -0.2645
 1952EOH      H 7813   4.786   0.042   2.562  0.1600  1.1679 -0.3980
 1953EOH      O 7814   4.027   3.370   5.048  0.1290  0.2010 -0.0511
 1953EOH      C 7815   4.111   3.302   5.142 -0.2679 -0.0856  0.0958
 1953EOH      C 7816   4.096   3.365   5.281  0.1855  0.0470  0.0870
 1953EOH      H 7817   4.042   3.333   4.962 -1.1931 -1.1471  0.2788
 1954EOH      O 7818   1.327   5.500   1.941 -0.2586  0.0401  0.1868
 1954EOH      C 7819   1.236   5.606   1.970 -0.9601 -0.6182  0.4208
 1954EOH      C 7820   1.123   5.619   1.866  0.1388  0.6961 -0.6428
 1954EOH      H 7821   1.317   5.425   1.999  1.8195 -0.0359  0.4873
 1955EOH      O 7822   0.182   1.201   5.246  0.2178  0.6458 -0.0098
 1955EOH      C 7823   0.150   1.099   5.151  0.8845  0.5119 -0.0943
 1955EOH      C 7824   0.279   1.022   5.120  0.3879 -0.3342 -0.0823
 1955EOH      H 7825   0.104   1.239   5.285  0.1565  0.0885  0.4131
 1956EOH      O 7826   5.100   2.790   5.853  0.6026 -0.6729  0.4642
 1956EOH      C 7827   5.224   2.782   5.782  0.4196 -0.2634  0.0998
 1956EOH      C 7828   5.335   2.849   5.865 -0.0504  0.1298  0.4157
 1956EOH      H 7829   5.082   2.879   5.879 -0.8297 -1.0967  0.9534
 1957EOH      O 7830   3.297   5.693   5.012 -0.1816  0.3650  1.1098
 1957EOH      C 7831   3.352   5.582   5.083  0.4841 -0.0837 -0.0984
 1957EOH      C 7832   3.358   5.612   5.234 -0.4394 -0.2077 -0.0333
 1957EOH      H 7833   3.248   5.657   4.939  1.8827 -0.5420  0.1471
 1958EOH      O 7834   2.331   3.178   2.935 -0.1570 -0.2334  0.1296
 1958EOH      C 7835   2.348   3.292   2.850  0.1471  0.1834  0.7455
 1958EOH      C 7836   2.232   3.393   2.853  0.2978  0.3935 -0.3322
 1958EOH      H 7837   2.406   3.123   2.916  0.5037  0.8121 -0.3577
 1959EOH      O 7838   0.043   4.131   1.275 -0.4037  0.3365  0.3105
 1959EOH      C 7839   0.042   4.111   1.133 -0.5758 -0.2291  0.3874
 1959EOH      C 7840  -0.013   3.979   1.076  0.0978 -0.4067  0.1485
 1959EOH      H 7841  -0.025   4.075   1.309 -1.4997  2.0005  0.8908
 1960EOH      O 7842   2.111   5.356   5.318 -0.1495  0.2704  0.1429
 1960EOH      C 7843   2.167   5.260   5.408  0.6237  0.4859 -0.1076
 1960EOH      C 7844   2.064   5.228   5.518  0.6382  0.6724 -0.0397
 1960EOH      H 7845   2.137   5.345   5.228 -0.8814  1.6487 -0.2561
 1961EOH      O 7846   4.357   5.112   4.672  0.1727  0.5676 -0.1618
 1961EOH      C 7847   4.240   5.142   4.597 -0.0906  0.0856  0.0538
 1961EOH      C 7848   4.209   5.049   4.478  0.5567 -0.0181 -0.0328
 1961EOH      H 7849   4.415   5.184   4.692  2.2990 -0.8100 -1.1030
 1962EOH      O 7850   1.564   3.769   1.224  0.5744 -0.3501 -0.5993
 1962EOH      C 7851   1.523   3.653   1.298  0.3688 -0.0725 -0.2759
 1962EOH      C 7852   1.515   3.534   1.201  0.1541 -0.0744 -0.2553
 1962EOH      H 7853   1.629   3.814   1.276 -1.5052 -0.1279  1.9162
 1963EOH      O 7854   1.799   0.427   3.985  0.0541 -0.6168  0.0016
 1963EOH      C 7855   1.776   0.522   4.090  0.0943 -0.7469  0.1285
 1963EOH      C 7856   1.631   0.510   4.141  0.1494 -0.0371  0.4549
 1963EOH      H 7857   1.772   0.342   4.017  2.3541 -1.9648 -1.5450
 1964EOH      O 7858   1.740   2.023   4.771 -0.4081 -0.1648 -0.3720
 1964EOH      C 7859   1.613   2.023   4.836 -0.1920 -0.0028  0.0485
 1964EOH      C 7860   1.643   1.962   4.975  0.3365 -0.0479 -0.0829
 1964EOH      H 7861   1.748   1.949   4.713  0.7040  0.0362 -0.4814
 1965EOH      O 7862   3.290   5.750   5.569  0.0671  0.0127  0.6418
 1965EOH      C 7863   3.384   5.857   5.583  0.1977  0.0923 -0.7059
 1965EOH      C 7864   3.514   5.802   5.644 -0.5144 -0.4901  0.3160
 1965EOH      H 7865   3.203   5.786   5.568  0.3504  0.6887 -0.8962
 1966EOH      O 7866   1.948   4.432   0.367  0.3441  0.2247 -0.2937
 1966EOH      C 7867   1.975   4.312   0.294 -0.2137  0.2345 -0.5258
 1966EOH      C 7868   1.873   4.197   0.305  0.3534 -0.2079  0.2652
 1966EOH      H 7869   2.021   4.491   0.369  0.3071  0.2423  1.7814
 1967EOH      O 7870   6.217   0.338   5.486  0.2876 -0.5176 -0.3989
 1967EOH      C 7871   6.307   0.312   5.594  0.3528  0.2316 -0.2734
 1967EOH      C 7872   6.359   0.170   5.566 -0.8328 -0.2837  0.1162
 1967EOH      H 7873   6.189   0.428   5.485  2.2454  0.0962 -3.7803
 1968EOH      O 7874   1.831   4.535   5.295  0.2959  0.3050 -0.4434
 1968EOH      C 7875   1.774   4.665   5.315 -0.4559 -0.0786 -0.0877
 1968EOH      C 7876   1.894   4.759   5.334 -0.1288 -0.4350 -0.3898
 1968EOH      H 7877   1.898   4.548   5.230 -1.0583  1.1876 -1.7124
 1969EOH      O 7878   4.211   4.360   4.105  0.3203  0.5468 -0.1684
 1969EOH      C 7879   4.204   4.383   4.245 -0.0834  0.2388 -0.1400
 1969EOH      C 7880   4.348   4.374   4.299 -0.4671 -0.2190  0.8432
 1969EOH      H 7881   4.138   4.310   4.072  0.5315  1.2271 -1.7518
 1970EOH      O 7882   5.257   2.840   0.288  0.1243  0.3255 -0.0724
 1970EOH      C 7883   5.363   2.874   0.377 -0.0887 -0.2980  0.4208
 1970EOH      C 7884   5.330   2.996   0.464 -0.0576 -0.3096  0.4489
 1970EOH      H 7885   5.282   2.880   0.206 -1.5945 -0.3497 -0.9425
 1971EOH      O 7886   0.420   5.655   4.183 -0.3819  0.3462  0.1887
 1971EOH      C 7887   0.468   5.790   4.181 -0.1201  0.2500 -0.0364
 1971EOH      C 7888   0.463   5.849   4.323  0.2153  0.0792  0.0484
 1971EOH      H 7889   0.472   5.615   4.115  0.3584  1.3554  0.1577
 1972EOH      O 7890   3.557   3.154   3.349  0.2607 -0.0803  0.0858
 1972EOH      C 7891   3.505   3.096   3.469 -0.4143 -0.4147 -0.3672
 1972EOH      C 7892   3.596   2.976   3.499  0.3854  0.1017 -0.7056
 1972EOH      H 7893   3.505   3.228   3.322  0.3417  0.2266  0.7577
 1973EOH      O 7894   4.079   3.651   5.099 -0.1487  0.3259  0.1445
 1973EOH      C 7895   4.212   3.699   5.117 -0.1278  0.1903  0.3607
 1973EOH      C 7896   4.226   3.784   5.245  0.2813  0.0388  0.4193
 1973EOH      H 7897   4.077   3.559   5.075  0.6312 -0.4775  2.8962
 1974EOH      O 7898   2.697   4.126   4.892  0.1122  0.3301  0.0431
 1974EOH      C 7899   2.697   4.153   4.752  0.1734 -0.1903 -0.0584
 1974EOH      C 7900   2.734   4.297   4.711  0.4171 -0.2352  0.0098
 1974EOH      H 7901   2.680   4.034   4.905 -1.3092  0.1871 -2.5563
 1975EOH      O 7902   3.724   1.167   6.049  0.2037 -0.1773  0.2301
 1975EOH      C 7903   3.689   1.165   6.187  0.0643 -1.0124  0.1858
 1975EOH      C 7904   3.825   1.171   6.259 -0.2008 -0.8807  0.6858
 1975EOH      H 7905   3.645   1.143   6.002  0.6848 -0.3794 -0.4794
 1976EOH      O 7906   2.419   0.018   5.193 -0.6885 -0.6951  0.4357
 1976EOH      C 7907   2.293   0.084   5.189 -0.1803  0.2714  0.1512
 1976EOH      C 7908   2.266   0.179   5.070  0.3879  0.1792 -0.0493
 1976EOH      H 7909   2.409  -0.038   5.268  0.0015  0.0718  1.1192
 1977EOH      O 7910   4.635   0.842   4.135 -0.3262 -0.2538 -0.0229
 1977EOH      C 7911   4.552   0.753   4.210 -0.6962 -0.0187 -0.1556
 1977EOH      C 7912   4.576   0.607   4.170 -0.1241 -0.0060  0.1420
 1977EOH      H 7913   4.588   0.924   4.125  2.5219  1.2894 -1.5063
 1978EOH      O 7914   4.363   1.822   3.458 -0.0356  0.1253  0.1796
 1978EOH      C 7915   4.263   1.770   3.547 -0.1502  0.2095  0.1007
 1978EOH      C 7916   4.333   1.742   3.681 -0.0268 -0.7099 -0.1447
 1978EOH      H 7917   4.322   1.818   3.373 -1.7569 -0.4296  1.0008
 1979EOH      O 7918   0.841   2.328   5.296 -0.1311  0.0290 -0.0812
 1979EOH      C 7919   0.833   2.467   5.265 -0.3258  0.0377  0.0106
 1979EOH      C 7920   0.967   2.534   5.296 -0.0870 -0.4124 -0.0406
 1979EOH      H 7921   0.785   2.277   5.240  0.1503 -1.4980  0.9758
 1980EOH      O 7922   2.227   1.323   5.952  0.3636  0.6047 -0.1526
 1980EOH      C 7923   2.213   1.187   5.995  0.3974  0.5490 -0.3177
 1980EOH      C 7924   2.311   1.089   5.928  0.1017 -0.0363  0.0984
 1980EOH      H 7925   2.215   1.376   6.029 -1.2467  0.0728 -0.0306
 1981EOH      O 7926   0.832   1.924   1.265  0.0394  0.2418  0.4295
 1981EOH      C 7927   0.698   1.909   1.315 -0.1533 -0.0406 -0.1686
 1981EOH      C 7928   0.611   1.805   1.242  0.0636  0.1780 -0.7429
 1981EOH      H 7929   0.848   1.996   1.205  2.2301 -2.2038 -2.0097
 1982EOH      O 7930   3.913   5.376   5.169 -0.2266  0.3820  0.3540
 1982EOH      C 7931   3.802   5.329   5.092  0.3114 -0.2461 -0.0435
 1982EOH      C 7932   3.821   5.179   5.063  0.2006 -0.2468 -0.1118
 1982EOH      H 7933   3.899   5.469   5.179 -1.8542  0.4451 -2.1190
 1983EOH      O 7934   2.822   3.913   3.234  0.0698 -0.1656  0.3114
 1983EOH      C 7935   2.708   3.839   3.279 -0.0134 -0.0950  0.2148
 1983EOH      C 7936   2.697   3.851   3.432 -0.4029 -0.2850  0.2043
 1983EOH      H 7937   2.866   3.851   3.177 -0.0289  0.9919 -1.0492
 1984EOH      O 7938   0.470   6.064   5.270 -0.2500 -0.1693 -0.0751
 1984EOH      C 7939   0.603   6.113   5.287 -0.2745 -0.1100 -0.0554
 1984EOH      C 7940   0.583   6.263   5.258 -0.4494 -0.0954  0.1436
 1984EOH      H 7941   0.445   6.082   5.181 -0.0109  1.9501  0.2667
 1985EOH      O 7942   3.651   5.234   3.431 -0.1739 -0.5405  0.1043
 1985EOH      C 7943   3.648   5.145   3.543  0.3520 -0.4625  0.1807
 1985EOH      C 7944   3.594   5.215   3.669 -0.0170 -0.6169  0.1076
 1985EOH      H 7945   3.717   5.302   3.437  0.1715 -0.8381 -0.3847
 1986EOH      O 7946   2.896   1.079   1.882  0.3150 -0.4220  0.2014
 1986EOH      C 7947   2.954   0.952   1.910  1.0799 -0.1379 -0.0760
 1986EOH      C 7948   3.004   0.936   2.055  0.1039 -0.2576  0.2506
 1986EOH      H 7949   2.802   1.072   1.877  0.2843 -0.1818  0.3955
 1987EOH      O 7950   1.861   0.821   2.460  0.3691 -0.2255  0.6098
 1987EOH      C 7951   1.738   0.757   2.494  0.0765  0.1123  0.1837
 1987EOH      C 7952   1.644   0.848   2.574  0.4783  0.0958  0.6767
 1987EOH      H 7953   1.929   0.769   2.501  1.5185  0.6185 -0.2188
 1988EOH      O 7954   3.947   1.558   3.435 -0.1310 -0.2734 -0.2661
 1988EOH      C 7955   4.059   1.480   3.477 -0.3572  0.0907  1.0442
 1988EOH      C 7956   4.083   1.353   3.394  0.3012  0.1796  1.0975
 1988EOH      H 7957   3.936   1.616   3.509  1.9066 -0.6340  0.3294
 1989EOH      O 7958   4.492   1.216   1.007  0.0806 -0.3241  0.8491
 1989EOH      C 7959   4.414   1.096   1.012 -0.0472 -0.2726  0.1714
 1989EOH      C 7960   4.355   1.092   0.870  0.1706 -0.7514  0.0931
 1989EOH      H 7961   4.513   1.227   1.098  2.4949 -2.0753  0.5350
 1990EOH      O 7962   5.019   5.220   2.871 -0.1841  0.1193 -0.1654
 1990EOH      C 7963   5.098   5.338   2.852 -0.1664  0.1415  0.0454
 1990EOH      C 7964   5.230   5.330   2.931  0.1582  0.3322 -0.4732
 1990EOH      H 7965   4.935   5.220   2.828  1.0765  0.9671 -2.7827
 1991EOH      O 7966   0.112   4.162   3.313 -0.8240 -0.1105  0.3145
 1991EOH      C 7967   0.092   4.303   3.314 -0.0874 -0.0011 -0.1854
 1991EOH      C 7968  -0.058   4.334   3.326 -0.2511 -0.6261 -0.5762
 1991EOH      H 7969   0.202   4.139   3.298 -1.6478 -2.1275 -1.7271
 1992EOH      O 7970   0.269   3.316   2.825  0.7787  0.2438  0.1078
 1992EOH      C 7971   0.327   3.444   2.798  0.6370  0.2934  0.0380
 1992EOH      C 7972   0.427   3.472   2.912  0.2124  0.6649  0.3241
 1992EOH      H 7973   0.309   3.262   2.758 -2.1619  0.7939 -2.2309
 1993EOH      O 7974   5.029   0.041   2.851  0.5753  0.0811 -0.3405
 1993EOH      C 7975   4.955   0.144   2.916 -0.1567 -0.4231 -0.3673
 1993EOH      C 7976   5.009   0.154   3.060  0.0892  0.1589 -0.4956
 1993EOH      H 7977   4.987   0.025   2.768  1.7841 -0.3314 -0.8867
 1994EOH      O 7978   4.318   1.394   5.713  0.3236 -0.1950 -0.6712
 1994EOH      C 7979   4.233   1.424   5.601  0.3575 -0.0741 -0.6640
 1994EOH      C 7980   4.169   1.292   5.554  0.2659 -0.1685 -0.2778
 1994EOH      H 7981   4.273   1.328   5.763  2.1163 -1.5853 -0.8582
 1995EOH      O 7982   4.982   3.791   2.639 -0.4284  0.1997 -0.2299
 1995EOH      C 7983   5.121   3.825   2.648 -0.3940 -0.0038  0.0205
 1995EOH      C 7984   5.185   3.790   2.512 -0.5015 -0.2202  0.0252
 1995EOH      H 7985   4.933   3.839   2.705  0.2555 -1.1493  1.2986
 1996EOH      O 7986   0.660   3.325   4.594 -0.0121 -0.2181  0.1282
 1996EOH      C 7987   0.580   3.320   4.476 -0.1226 -0.4430  0.2133
 1996EOH      C 7988   0.434   3.287   4.514 -0.2553 -0.3316 -0.2094
 1996EOH      H 7989   0.615   3.384   4.653  0.5391 -0.1219  0.4629
 1997EOH      O 7990   5.753   2.865   3.471 -0.0530  0.3151 -0.4257
 1997EOH      C 7991   5.788   3.001   3.445 -0.3529  0.4721 -0.0073
 1997EOH      C 7992   5.860   3.015   3.310 -0.1407  0.2168  0.0771
 1997EOH      H 7993   5.823   2.816   3.510 -0.9678 -0.4494  0.2710
 1998EOH      O 7994   1.203   0.053   0.665 -0.4717 -0.1092  0.5097
 1998EOH      C 7995   1.084  -0.021   0.635 -0.1787 -0.4541  0.2018
 1998EOH      C 7996   1.115  -0.105   0.509  0.4862  0.4229 -0.2263
 1998EOH      H 7997   1.215   0.050   0.759  0.1895 -0.9311  0.4094
 1999EOH      O 7998   2.831   3.136   3.525  0.7183  0.2067  0.3649
 1999EOH      C 7999   2.804   3.002   3.569 -0.0282  0.0866 -0.4521
 1999EOH      C 8000   2.881   2.884   3.505 -0.6906 -0.8033  0.3946
 1999EOH      H 8001   2.749   3.180   3.514  0.3477 -0.6831 -0.5372
 2000EOH      O 8002   1.184   2.990   3.739  0.2431 -0.3010 -0.0032
 2000EOH      C 8003   1.093   2.891   3.788 -0.0412 -0.1405 -0.2116
 2000EOH      C 8004   1.171   2.826   3.903  0.1194 -0.3446 -0.4341
 2000EOH      H 8005   1.205   2.965   3.650 -0.5994 -1.7977  0.1860
 2001EOH      O 8006   3.389   3.893   4.016 -0.1861  0.0522  0.3196
 2001EOH      C 8007   3.504   3.814   4.049 -0.2356 -0.2407 -0.2011
 2001EOH      C 8008   3.536   3.816   4.199 -0.6572  0.0704 -0.1124
 2001EOH      H 8009   3.397   3.921   3.926  0.3662  1.1643  0.6997
 2002EOH      O 8010   0.894   2.955   4.503  0.0642 -0.5492  0.4464
 2002EOH      C 8011   0.801   2.899   4.410  0.4714 -0.7013  0.1356
 2002EOH      C 8012   0.778   2.989   4.287  0.4928 -0.9358 -0.0405
 2002EOH      H 8013   0.842   3.005   4.565 -1.2463  0.3465 -1.3127
 2003EOH      O 8014   1.934   5.321   1.563 -0.1693 -0.0613 -0.0713
 2003EOH      C 8015   1.930   5.425   1.466 -0.2395 -0.0364 -0.0415
 2003EOH      C 8016   1.858   5.381   1.337  0.1077  0.1229 -0.2898
 2003EOH      H 8017   1.958   5.363   1.644 -1.4013 -0.2180  0.3892
 2004EOH      O 8018   4.792   1.255   5.392  0.3439 -0.0130  0.7297
 2004EOH      C 8019   4.897   1.202   5.311  0.3589  0.3993  0.4828
 2004EOH      C 8020   5.002   1.308   5.272  0.3266  0.4871  0.6378
 2004EOH      H 8021   4.735   1.187   5.426 -0.0755  0.7802  1.6338
 2005EOH      O 8022   1.571   0.068   5.020 -0.2763 -0.5146 -0.1852
 2005EOH      C 8023   1.501   0.129   4.911  0.1946  0.2081 -0.0931
 2005EOH      C 8024   1.380   0.203   4.972  0.2709  0.2990 -0.0529
 2005EOH      H 8025   1.660   0.054   4.991 -0.2439  2.4435 -1.6971
 2006EOH      O 8026   4.528   4.476   2.170  0.2385  0.0398  0.4957
 2006EOH      C 8027   4.629   4.414   2.090  0.0008 -0.2401  0.4129
 2006EOH      C 8028   4.674   4.533   2.003 -0.4674 -0.2652  0.1330
 2006EOH      H 8029   4.568   4.487   2.255  0.4933  0.2292  0.3533
 2007EOH      O 8030   3.904   5.762   1.503 -0.3393 -0.2540 -0.2103
 2007EOH      C 8031   4.020   5.692   1.459 -0.1193  0.2546 -0.4451
 2007EOH      C 8032   4.143   5.785   1.450  0.2897 -0.2645 -0.2767
 2007EOH      H 8033   3.901   5.850   1.467  0.4616  0.8354  2.3124
 2008EOH      O 8034   5.482   4.583   4.012 -0.1452  0.1682  0.4354
 2008EOH      C 8035   5.605   4.626   4.069  0.1367 -0.2472  0.1429
 2008EOH      C 8036   5.684   4.710   3.966  0.4633 -0.1228  0.4914
 2008EOH      H 8037   5.434   4.530   4.075  0.2603  1.4239  1.8310
 2009EOH      O 8038   1.703   0.059   4.273 -0.3170 -0.3249  0.0163
 2009EOH      C 8039   1.835   0.083   4.321 -0.2221 -0.7687 -0.0206
 2009EOH      C 8040   1.835   0.190   4.433 -0.5355 -0.8923  0.0962
 2009EOH      H 8041   1.659   0.014   4.343 -0.4959  1.0737  0.8249
 2010EOH      O 8042   3.922   2.735   5.191 -0.0616 -0.0057 -0.1565
 2010EOH      C 8043   3.866   2.775   5.066 -0.3110  0.5209  0.1229
 2010EOH      C 8044   3.973   2.810   4.960  0.4361 -0.0406  0.6882
 2010EOH      H 8045   3.858   2.744   5.259 -0.9527 -0.0053 -0.9873
 2011EOH      O 8046   6.115   3.389   5.840 -0.1732  0.1485 -0.4886
 2011EOH      C 8047   6.192   3.272   5.813  0.1284  0.2846 -0.2185
 2011EOH      C 8048   6.084   3.163   5.803  0.4290 -0.1123  0.7638
 2011EOH      H 8049   6.171   3.465   5.843 -1.2452  0.9331  0.0320
 2012EOH      O 8050   5.971   0.791   4.637  0.0649  0.2713 -0.5967
 2012EOH      C 8051   5.945   0.651   4.624  0.1035  0.2239 -0.1524
 2012EOH      C 8052   5.818   0.621   4.706  0.4728 -0.3765  0.1993
 2012EOH      H 8053   6.064   0.809   4.629  0.2619  0.3372  1.5257
 2013EOH      O 8054   1.133   6.048   4.962 -0.1693 -0.2120 -0.1410
 2013EOH      C 8055   1.063   5.985   5.069 -0.6625  0.1185 -0.2642
 2013EOH      C 8056   1.017   6.095   5.167 -0.1573 -0.4284  0.6041
 2013EOH      H 8057   1.221   6.013   4.960  0.1629  0.6352 -0.9722
 2014EOH      O 8058   1.953   0.391   4.777 -0.3370 -0.0370 -0.7205
 2014EOH      C 8059   2.078   0.437   4.725 -0.1764  0.3693  0.0154
 2014EOH      C 8060   2.130   0.323   4.636 -0.0780  0.4272 -0.0007
 2014EOH      H 8061   1.888   0.452   4.745 -1.0081  0.4272  1.3769
 2015EOH      O 8062   2.866   4.581   0.142 -0.2848 -0.2187 -0.2411
 2015EOH      C 8063   2.940   4.462   0.111 -0.1509 -0.0750 -0.4697
 2015EOH      C 8064   3.092   4.476   0.094  0.0083 -0.7610  0.4224
 2015EOH      H 8065   2.802   4.548   0.203 -1.2268 -1.2235 -1.7408
 2016EOH      O 8066   4.285   1.545   3.014  0.2032 -0.0405 -0.4960
 2016EOH      C 8067   4.172   1.458   3.020  0.0889  0.1703  0.4358
 2016EOH      C 8068   4.118   1.437   2.878  0.6613 -0.2615  0.2828
 2016EOH      H 8069   4.318   1.540   3.103  0.4249 -0.0149 -0.5761
 2017EOH      O 8070   6.275   0.710   3.721 -0.0625  0.5630  0.0305
 2017EOH      C 8071   6.254   0.689   3.582  0.0389  0.4766  0.0279
 2017EOH      C 8072   6.365   0.592   3.538 -0.0568  0.4143 -0.0777
 2017EOH      H 8073   6.237   0.794   3.739  0.5159  0.9285 -0.4364
 2018EOH      O 8074   2.225   2.636   1.216  0.4405  0.1177  0.0785
 2018EOH      C 8075   2.085   2.657   1.194  0.3519  0.3082  0.8094
 2018EOH      C 8076   2.058   2.809   1.192  0.3181  0.2979  0.3097
 2018EOH      H 8077   2.272   2.718   1.208  0.2121  0.2201 -0.2442
 2019EOH      O 8078   3.217   5.504   5.607 -0.4395 -0.3220  0.1729
 2019EOH      C 8079   3.309   5.394   5.609  0.2954  0.2878  0.1524
 2019EOH      C 8080   3.221   5.275   5.653  0.0126  0.3913 -0.1317
 2019EOH      H 8081   3.267   5.582   5.591 -0.3125 -0.3074  0.6632
 2020EOH      O 8082   3.887   3.215   4.640 -0.7730  0.3750  0.0016
 2020EOH      C 8083   3.913   3.125   4.532 -0.0353  0.1591  0.3607
 2020EOH      C 8084   4.041   3.047   4.569  0.1991  0.1231 -0.5273
 2020EOH      H 8085   3.833   3.163   4.698 -1.0049 -0.1437 -0.6714
 2021EOH      O 8086   2.944   4.539   4.540 -0.9690 -0.8256 -0.2252
 2021EOH      C 8087   3.078   4.499   4.512 -0.4502  0.9572 -0.3260
 2021EOH      C 8088   3.173   4.528   4.630 -0.3115  0.3321 -0.2815
 2021EOH      H 8089   2.880   4.504   4.480 -0.9712 -1.5436  0.1858
 2022EOH      O 8090   3.127   4.483   2.242  0.0696  0.0334  0.1586
 2022EOH      C 8091   3.162   4.446   2.108 -0.5404  0.8526 -0.2296
 2022EOH      C 8092   3.313   4.445   2.077 -0.2987 -0.0515  0.9226
 2022EOH      H 8093   3.145   4.409   2.298  1.3698  0.0024 -0.2708
 2023EOH      O 8094   2.703   4.452   1.057  0.3451  0.3852  0.1043
 2023EOH      C 8095   2.650   4.573   1.002  0.1225  0.3822  0.3121
 2023EOH      C 8096   2.671   4.582   0.850  0.4465 -0.3714  0.3126
 2023EOH      H 8097   2.705   4.455   1.151 -0.9551  3.6746  0.0902
 2024EOH      O 8098   6.033   2.273   5.568  0.0352  0.3491 -0.2609
 2024EOH      C 8099   6.164   2.221   5.550 -0.1341 -0.0488 -0.3478
 2024EOH      C 8100   6.258   2.313   5.470  0.0459 -0.1215 -0.2203
 2024EOH      H 8101   5.969   2.243   5.505  3.1148  0.2851 -3.4671
 2025EOH      O 8102   1.671   3.055   1.952  0.1970  0.3475  0.3524
 2025EOH      C 8103   1.629   2.954   1.860 -0.1223  0.7598  0.0414
 2025EOH      C 8104   1.508   2.878   1.917  0.4585 -0.4958 -0.3750
 2025EOH      H 8105   1.758   3.080   1.927  0.5272 -1.6505 -0.6079
 2026EOH      O 8106   1.086   4.748   4.243 -0.0882 -0.4746 -0.0763
 2026EOH      C 8107   1.154   4.679   4.349 -0.0106 -0.0010  0.1868
 2026EOH      C 8108   1.275   4.770   4.377 -0.6007  0.6115  0.7583
 2026EOH      H 8109   1.081   4.840   4.267 -0.3721 -0.8031  1.1940
 2027EOH      O 8110   6.217   0.948   3.755  0.3818 -0.0904 -0.1212
 2027EOH      C 8111   6.074   0.960   3.754  0.4048  0.1631 -0.2229
 2027EOH      C 8112   6.021   1.057   3.647 -0.1748  0.2555  0.1515
 2027EOH      H 8113   6.257   1.029   3.782  1.3360 -0.0814 -1.5112
 2028EOH      O 8114   5.222   0.644   2.269 -0.1884 -0.0066  0.0967
 2028EOH      C 8115   5.121   0.634   2.169  0.1870  0.4088 -0.3294
 2028EOH      C 8116   5.187   0.633   2.030  0.6499 -0.0024 -0.1063
 2028EOH      H 8117   5.184   0.619   2.352  0.5300  1.0834  0.7663
 2029EOH      O 8118   1.979   4.173   3.899  0.4787  0.7749 -0.1872
 2029EOH      C 8119   1.915   4.110   3.788 -0.4167 -0.3701  0.9479
 2029EOH      C 8120   1.814   4.207   3.724  0.0625 -0.4813  0.0144
 2029EOH      H 8121   1.919   4.223   3.953 -0.2237  1.5496 -1.6794
 2030EOH      O 8122   5.094   5.814   5.516 -0.4500 -0.1511 -0.1239
 2030EOH      C 8123   5.151   5.945   5.512 -0.1665 -0.2661  0.1173
 2030EOH      C 8124   5.156   5.991   5.365 -0.1603  0.4277  0.3325
 2030EOH      H 8125   5.087   5.784   5.605 -0.5145  2.1018  0.6382
 2031EOH      O 8126   1.141   0.635   0.396  0.2982 -0.0458 -0.1296
 2031EOH      C 8127   1.137   0.590   0.261 -0.5687  0.2377 -0.1998
 2031EOH      C 8128   1.255   0.646   0.179 -0.0128  0.2005  0.5804
 2031EOH      H 8129   1.120   0.559   0.448  0.8327  0.5962  1.0600
 2032EOH      O 8130   5.117   2.017   2.749 -0.1515 -0.4921  0.3006
 2032EOH      C 8131   5.214   2.056   2.847 -0.1410 -0.3898  0.2490
 2032EOH      C 8132   5.342   2.108   2.778 -0.2057 -0.2071  0.2682
 2032EOH      H 8133   5.087   1.930   2.770 -0.4657 -0.5578 -0.4326
 2033EOH      O 8134   2.479   3.188   6.291  0.8667  0.0874 -0.4098
 2033EOH      C 8135   2.566   3.278   6.360  0.0199  0.1460  0.5925
 2033EOH      C 8136   2.537   3.279   6.512  0.4901  0.5416  0.6800
 2033EOH      H 8137   2.490   3.215   6.201  1.8848  0.4236 -0.1890
 2034EOH      O 8138   1.592   2.702   0.120 -0.1552 -0.1867  0.3066
 2034EOH      C 8139   1.625   2.635  -0.002  0.1612  0.0724  0.2480
 2034EOH      C 8140   1.720   2.725  -0.081 -0.0717  0.0168 -0.0980
 2034EOH      H 8141   1.662   2.677   0.178  1.2664 -0.7552 -1.6158
 2035EOH      O 8142   6.013   0.076   3.190  0.7321  0.1092 -0.0395
 2035EOH      C 8143   5.874   0.097   3.215  0.5401 -0.7913 -0.3448
 2035EOH      C 8144   5.799   0.110   3.081  0.1324  0.3317 -0.0182
 2035EOH      H 8145   6.045   0.134   3.123  1.8594 -2.5138 -1.8478
 2036EOH      O 8146   3.526   1.787   1.080  0.1569 -0.5008  0.6685
 2036EOH      C 8147   3.643   1.868   1.066  0.0958 -0.5945 -0.3949
 2036EOH      C 8148   3.715   1.890   1.200 -0.4489  0.5120 -0.2773
 2036EOH      H 8149   3.543   1.709   1.029  0.2817  0.3302 -0.5691
 2037EOH      O 8150   4.268   3.465   6.152  0.1903 -0.2014  0.4360
 2037EOH      C 8151   4.340   3.563   6.228  0.2171  0.2997 -0.2325
 2037EOH      C 8152   4.468   3.511   6.296 -0.2383 -0.2799  0.1823
 2037EOH      H 8153   4.332   3.419   6.100 -0.4545  0.8966 -1.4117
 2038EOH      O 8154   1.387   3.476   2.412  0.1281 -0.4385  0.1477
 2038EOH      C 8155   1.375   3.479   2.555 -0.3363 -0.6158  0.1121
 2038EOH      C 8156   1.244   3.549   2.596 -0.3136 -0.4016 -0.1742
 2038EOH      H 8157   1.477   3.456   2.390  0.0098 -0.7801 -0.0284
 2039EOH      O 8158   2.360   1.430   0.423  0.0031  0.0079  0.3214
 2039EOH      C 8159   2.406   1.295   0.431 -0.3780 -0.1173  0.4097
 2039EOH      C 8160   2.555   1.274   0.463 -0.2382  0.2712  0.0193
 2039EOH      H 8161   2.273   1.437   0.386  0.4575  0.0512 -0.7631
 2040EOH      O 8162   4.216   5.203   0.396 -0.0867  0.0986 -0.0415
 2040EOH      C 8163   4.330   5.121   0.365 -0.0827 -0.1195  0.5448
 2040EOH      C 8164   4.428   5.232   0.323  0.2559 -0.6325 -0.0194
 2040EOH      H 8165   4.156   5.152   0.448  1.0647  0.1868  1.4180
 2041EOH      O 8166   5.413   2.934   4.791  0.4419 -0.0917  0.1887
 2041EOH      C 8167   5.289   2.968   4.854  0.3695  0.0199 -0.0136
 2041EOH      C 8168   5.202   3.038   4.748  0.2762  0.0221  0.0644
 2041EOH      H 8169   5.450   2.863   4.842 -1.1955 -1.0422  0.0835
 2042EOH      O 8170   1.605   1.175   4.811 -0.3547  0.4030  0.2555
 2042EOH      C 8171   1.501   1.091   4.862 -0.0437 -0.0013  0.2292
 2042EOH      C 8172   1.530   0.940   4.850  0.2941  0.1137 -0.4481
 2042EOH      H 8173   1.584   1.262   4.840 -0.8305 -0.6719  3.3127
 2043EOH      O 8174   2.220   1.348   2.742  0.2634 -0.1479  0.2837
 2043EOH      C 8175   2.314   1.412   2.828  0.3332 -0.0048  0.0988
 2043EOH      C 8176   2.439   1.464   2.753  0.2710  0.1684  0.1150
 2043EOH      H 8177   2.200   1.414   2.678  1.0618 -1.1497 -1.0155
 2044EOH      O 8178   4.660   3.138   4.570 -0.0913  0.4058 -0.0434
 2044EOH      C 8179   4.586   3.171   4.688 -0.2259  0.1567 -0.0571
 2044EOH      C 8180   4.585   3.046   4.778 -0.3143 -0.3826 -0.8053
 2044EOH      H 8181   4.679   3.217   4.521 -0.8270  0.7444  0.2062
 2045EOH      O 8182   6.165   0.814   0.774 -0.7344  0.1200  0.1361
 2045EOH      C 8183   6.242   0.917   0.837 -0.6589 -0.1783  0.5282
 2045EOH      C 8184   6.380   0.861   0.879 -0.4473 -0.1323 -0.1073
 2045EOH      H 8185   6.126   0.763   0.843 -1.1697 -1.0724 -0.9729
 2046EOH      O 8186   3.090   1.316   4.226  0.8688  0.4381  0.1706
 2046EOH      C 8187   2.954   1.360   4.228  0.9271  0.6188  0.1914
 2046EOH      C 8188   2.890   1.341   4.088  0.4444 -0.5820  0.5690
 2046EOH      H 8189   3.140   1.377   4.279  0.5301 -0.2799  1.3305
 2047EOH      O 8190   6.160   4.628   1.974  0.2067  0.0520  0.1049
 2047EOH      C 8191   6.210   4.647   2.106  0.0376 -0.2243  0.2073
 2047EOH      C 8192   6.319   4.753   2.081 -0.3215  0.1348  0.1357
 2047EOH      H 8193   6.135   4.537   1.970  0.6560 -0.0400 -0.7784
 2048EOH      O 8194   0.106   4.845   0.064  0.1960 -0.5513 -0.7508
 2048EOH      C 8195  -0.035   4.821   0.051 -0.1020  0.2465  0.8887
 2048EOH      C 8196  -0.056   4.669   0.048  0.6871  0.1456  0.4168
 2048EOH      H 8197   0.135   4.787   0.133  1.2627 -0.6292 -1.2554
 2049EOH      O 8198   3.711   0.356   0.314  0.1063 -0.0115 -0.8563
 2049EOH      C 8199   3.850   0.332   0.294  0.2738  0.2413 -0.0249
 2049EOH      C 8200   3.903   0.222   0.389  0.2221 -0.0452 -0.3254
 2049EOH      H 8201   3.672   0.404   0.243 -0.1039  0.4785 -0.4179
 2050EOH      O 8202   6.193   5.020   2.975  0.2793  0.0060 -0.6823
 2050EOH      C 8203   6.153   5.083   2.854 -0.4083  0.7765 -0.0610
 2050EOH      C 8204   6.281   5.149   2.797  0.0646 -0.1399 -0.0683
 2050EOH      H 8205   6.207   5.093   3.033  1.2947 -1.4809  1.0260
 2051EOH      O 8206   4.576   4.686   0.156 -0.1795  0.2227  0.2548
 2051EOH      C 8207   4.472   4.655   0.249 -0.1718  0.1519  0.2400
 2051EOH      C 8208   4.511   4.538   0.342 -0.5490 -0.1696 -0.0101
 2051EOH      H 8209   4.540   4.750   0.097 -0.4333 -0.0267  0.1398
 2052EOH      O 8210   5.486   1.166   1.007 -0.0007 -0.1009  0.0316
 2052EOH      C 8211   5.501   1.282   0.924  0.3893  0.1238  0.4131
 2052EOH      C 8212   5.482   1.416   0.999 -0.7656  0.0145  0.3280
 2052EOH      H 8213   5.559   1.159   1.066 -0.5640  0.7384  0.8476
 2053EOH      O 8214   2.104   1.579   5.737  0.3516  0.0564  0.1269
 2053EOH      C 8215   2.113   1.675   5.632  0.0750 -0.2181 -0.1502
 2053EOH      C 8216   2.002   1.782   5.636  0.0276 -0.2664 -0.1574
 2053EOH      H 8217   2.184   1.528   5.740 -0.8318 -1.8924 -0.4871
 2054EOH      O 8218   6.141   0.876   0.543 -0.0010 -0.0607 -0.8601
 2054EOH      C 8219   6.098   1.011   0.525 -0.4958 -0.0802  0.1402
 2054EOH      C 8220   6.167   1.072   0.401 -0.8366 -0.4995 -0.2582
 2054EOH      H 8221   6.139   0.852   0.634 -2.0261  0.5274 -0.7157
 2055EOH      O 8222   3.125   3.869   3.848 -0.1597 -0.4290 -0.0261
 2055EOH      C 8223   3.107   3.734   3.890  0.7306 -0.5820 -0.1405
 2055EOH      C 8224   3.000   3.684   3.791  0.0294 -0.1067  0.3779
 2055EOH      H 8225   3.122   3.925   3.925 -0.5136 -0.2608 -0.1614
 2056EOH      O 8226   5.118   4.060   4.406 -0.1367  0.0637 -0.4293
 2056EOH      C 8227   4.977   4.070   4.428 -0.0622  0.5439 -0.1620
 2056EOH      C 8228   4.919   4.213   4.427 -0.7882  0.2615  0.7584
 2056EOH      H 8229   5.135   3.980   4.358 -1.9495 -0.0451 -0.9278
 2057EOH      O 8230   1.286   5.399   1.091 -0.1258  0.5514 -0.3918
 2057EOH      C 8231   1.370   5.379   1.204 -0.3094  1.1433 -0.1505
 2057EOH      C 8232   1.507   5.323   1.161 -0.8391  0.0014 -0.3773
 2057EOH      H 8233   1.249   5.486   1.087 -1.5288 -0.0091  0.1254
 2058EOH      O 8234   4.863   2.805   2.503  0.9342 -0.5686 -0.2894
 2058EOH      C 8235   4.942   2.719   2.584  0.8894 -0.5267 -0.2002
 2058EOH      C 8236   4.907   2.571   2.557  0.3234 -0.4134 -0.0899
 2058EOH      H 8237   4.914   2.849   2.437  0.9806  0.6730  0.5507
 2059EOH      O 8238   0.976   5.172   4.593 -0.0099 -0.5343  0.0479
 2059EOH      C 8239   1.112   5.214   4.577 -0.0922 -0.1441  0.3729
 2059EOH      C 8240   1.182   5.077   4.567 -0.2595 -0.2091  0.0969
 2059EOH      H 8241   0.950   5.184   4.683  2.0573  0.7700  0.5039
 2060EOH      O 8242   3.333   0.743   1.560  0.4743  0.0056 -0.3585
 2060EOH      C 8243   3.328   0.628   1.475 -0.5046  0.0682 -0.3920
 2060EOH      C 8244   3.417   0.644   1.351  0.4355  0.1180  0.2865
 2060EOH      H 8245   3.422   0.746   1.590  1.3776 -0.3456 -2.8670
 2061EOH      O 8246   4.046   3.019   1.203  0.7638  0.2311  0.3382
 2061EOH      C 8247   4.153   2.936   1.157  0.3599 -0.0795 -0.0577
 2061EOH      C 8248   4.212   2.853   1.273 -0.0712  0.3166  0.4489
 2061EOH      H 8249   3.967   2.972   1.225  0.6757 -0.3798 -1.1572
 2062EOH      O 8250   4.404   0.577   4.705 -0.3582  0.5177 -0.6873
 2062EOH      C 8251   4.411   0.466   4.615  0.0405  0.0123 -0.0311
 2062EOH      C 8252   4.558   0.450   4.572  0.1090  0.5836 -0.0230
 2062EOH      H 8253   4.320   0.588   4.748  0.8127 -2.2890  2.5009
 2063EOH      O 8254   5.099   5.826   3.871 -0.2906  0.2016 -0.0052
 2063EOH      C 8255   5.049   5.917   3.970 -0.5580 -0.0478  0.0910
 2063EOH      C 8256   5.097   6.061   3.944 -0.0564 -0.2839 -0.3042
 2063EOH      H 8257   5.042   5.820   3.796  0.8127  1.1746 -0.9339
 2064EOH      O 8258   0.350   4.459   0.517  0.1732 -0.0494 -0.2551
 2064EOH      C 8259   0.414   4.500   0.638 -0.0203 -0.2062 -0.0992
 2064EOH      C 8260   0.335   4.623   0.687 -0.0020 -0.2287 -0.0137
 2064EOH      H 8261   0.264   4.426   0.537  0.7754  0.0810  2.8165
 2065EOH      O 8262   4.501   1.075   4.116  0.1724  1.0644 -0.1029
 2065EOH      C 8263   4.365   1.105   4.147  0.0688  0.1795  0.3240
 2065EOH      C 8264   4.274   1.062   4.030  0.3476  0.5934 -0.0487
 2065EOH      H 8265   4.535   1.145   4.062  1.1244 -0.3294 -1.3396
 2066EOH      O 8266   0.488   1.591   5.731  0.3332  0.2892  0.2427
 2066EOH      C 8267   0.579   1.626   5.626  0.5126  0.0851  0.3305
 2066EOH      C 8268   0.530   1.750   5.548  0.1244  0.0563  0.5260
 2066EOH      H 8269   0.417   1.558   5.678 -1.3959  0.4727  2.3871
 2067EOH      O 8270   4.367   6.185   0.837  0.5884  0.0705 -0.2500
 2067EOH      C 8271   4.319   6.194   0.702  0.5142  0.2221 -0.2131
 2067EOH      C 8272   4.244   6.328   0.703  0.3374  0.1236  0.7762
 2067EOH      H 8273   4.406   6.099   0.839 -1.4837 -0.9018  2.8586
 2068EOH      O 8274   0.286   5.448   2.233 -0.1345 -0.1190 -0.0224
 2068EOH      C 8275   0.406   5.523   2.216 -0.0597 -0.3603 -0.5860
 2068EOH      C 8276   0.416   5.657   2.292 -0.3640 -0.6325 -0.0618
 2068EOH      H 8277   0.292   5.416   2.322 -0.5076  1.2216  0.4939
 2069EOH      O 8278   4.091   3.207   1.361 -0.6739 -0.0387  0.0574
 2069EOH      C 8279   4.129   3.333   1.306 -0.2100 -0.1497  0.1221
 2069EOH      C 8280   4.265   3.316   1.235 -0.2367  0.3085 -0.0375
 2069EOH      H 8281   4.080   3.140   1.294 -1.6193  2.2523 -2.1478
 2070EOH      O 8282   1.876   5.678   4.638 -0.2687 -0.2948 -0.4456
 2070EOH      C 8283   1.981   5.775   4.636 -0.7162  0.1943 -0.3196
 2070EOH      C 8284   1.964   5.847   4.772 -0.4616  0.0305 -0.2011
 2070EOH      H 8285   1.868   5.647   4.549 -0.7962  0.1128 -0.5410
 2071EOH      O 8286   1.874   4.245   3.237  0.0712 -0.6863 -0.3632
 2071EOH      C 8287   1.742   4.236   3.290  0.3259  0.0805  0.4141
 2071EOH      C 8288   1.704   4.088   3.309 -0.2230  0.1683  0.0229
 2071EOH      H 8289   1.874   4.235   3.143  0.8083 -2.0617 -0.2219
 2072EOH      O 8290   0.252   5.007   0.316  0.0559  0.5440  0.1936
 2072EOH      C 8291   0.365   5.090   0.290  0.3759 -0.0008 -0.1608
 2072EOH      C 8292   0.495   5.047   0.361  0.3762 -0.6493 -0.5472
 2072EOH      H 8293   0.169   5.051   0.308 -1.4061 -2.2718 -0.8735
 2073EOH      O 8294   6.252   3.609   5.823 -0.0561  0.4036 -0.2578
 2073EOH      C 8295   6.287   3.683   5.940  0.3137 -0.0193 -0.1002
 2073EOH      C 8296   6.291   3.833   5.905 -0.1996  0.1368  0.4906
 2073EOH      H 8297   6.315   3.635   5.758  2.4692 -2.5079  0.8924
 2074EOH      O 8298   3.761   0.708   4.355  0.4980  0.0157  0.8487
 2074EOH      C 8299   3.672   0.758   4.454 -0.4025  0.3245 -0.1103
 2074EOH      C 8300   3.547   0.822   4.390 -0.5813  0.1860  0.0991
 2074EOH      H 8301   3.804   0.785   4.321  0.8688 -0.3250  0.5465
 2075EOH      O 8302   4.845   6.304   4.625  0.6718  0.3271  0.0912
 2075EOH      C 8303   4.729   6.382   4.654  0.3027 -0.1659 -0.0328
 2075EOH      C 8304   4.774   6.520   4.707 -0.2036  0.0052 -0.0443
 2075EOH      H 8305   4.827   6.259   4.544  0.5251  1.2469 -0.3915
 2076EOH      O 8306   0.300   3.591   3.893  0.1721 -0.5498  0.3419
 2076EOH      C 8307   0.240   3.660   4.003  0.2349 -0.3391  0.2442
 2076EOH      C 8308   0.171   3.562   4.101 -0.6751  0.2381  0.1888
 2076EOH      H 8309   0.374   3.639   3.860  0.4448 -0.2269  1.3954
 2077EOH      O 8310   4.985   1.261   0.944  0.5811  0.2946  0.3979
 2077EOH      C 8311   4.958   1.249   0.804 -0.0452  0.6046  0.4892
 2077EOH      C 8312   4.806   1.224   0.801  0.0596 -0.0472  0.5457
 2077EOH      H 8313   5.069   1.219   0.936 -0.0338 -0.7800 -0.5329
 2078EOH      O 8314   3.363   2.078   3.689 -0.1022 -0.0268  0.2327
 2078EOH      C 8315   3.419   2.171   3.782  0.1783 -0.3890  0.4296
 2078EOH      C 8316   3.566   2.200   3.747 -0.0297  0.3404  0.1470
 2078EOH      H 8317   3.379   2.123   3.607  3.4052 -0.4518  0.6165
 2079EOH      O 8318   0.427   4.045   5.903 -0.3859 -0.0429  0.7181
 2079EOH      C 8319   0.327   3.993   5.813 -0.4081  0.5586  0.3895
 2079EOH      C 8320   0.331   4.058   5.674 -0.9357  0.4644  0.3324
 2079EOH      H 8321   0.399   4.023   5.990  1.5832 -0.1822  1.3148
 2080EOH      O 8322   0.352   3.468   1.933 -0.1362  0.4820  0.3979
 2080EOH      C 8323   0.470   3.476   1.853 -0.1798 -0.1401  0.2761
 2080EOH      C 8324   0.503   3.624   1.829 -0.1183 -0.1869  0.0691
 2080EOH      H 8325   0.315   3.382   1.930  0.9058  0.0125  0.7077
 2081EOH      O 8326   2.585   0.555   4.691  0.1478 -0.0336  0.1416
 2081EOH      C 8327   2.510   0.632   4.785 -0.3241  0.5230 -0.6828
 2081EOH      C 8328   2.443   0.546   4.894  0.1144  0.3083 -0.5815
 2081EOH      H 8329   2.539   0.558   4.608  0.0539 -0.6724  0.1681
 2082EOH      O 8330   0.876   4.076   0.963  0.0067 -0.4408 -0.7447
 2082EOH      C 8331   0.856   3.944   1.015  0.3658 -0.2587 -0.1398
 2082EOH      C 8332   0.757   3.962   1.131  0.4651 -0.5975 -0.0045
 2082EOH      H 8333   0.962   4.103   0.991  0.4994 -2.3609 -0.3710
 2083EOH      O 8334   1.508   4.757   0.950  0.4746  0.2211 -0.3577
 2083EOH      C 8335   1.470   4.877   0.882 -0.0964  0.2259 -0.0342
 2083EOH      C 8336   1.472   4.979   0.997 -0.0770 -0.2503  0.3874
 2083EOH      H 8337   1.517   4.682   0.893 -0.7829 -1.1855  1.2085
 2084EOH      O 8338   3.153   0.431   5.893 -0.0240 -0.3567  0.1803
 2084EOH      C 8339   3.149   0.302   5.954 -0.6168 -0.2770  0.3160
 2084EOH      C 8340   3.199   0.320   6.099 -0.0650 -0.0091  0.0907
 2084EOH      H 8341   3.093   0.426   5.820 -0.1116  0.1708  0.2110
 2085EOH      O 8342   2.117   1.451   0.397 -0.0550  0.4128 -0.2620
 2085EOH      C 8343   2.007   1.411   0.481 -0.1000  0.0463 -0.4965
 2085EOH      C 8344   2.055   1.332   0.604 -0.0954  0.2797 -0.3490
 2085EOH      H 8345   2.072   1.488   0.323 -0.6841 -1.2789 -0.7609
 2086EOH      O 8346   0.162   3.465   3.708  0.0793 -0.0209  0.4454
 2086EOH      C 8347   0.020   3.479   3.712  0.0676 -0.0837  0.2378
 2086EOH      C 8348  -0.000   3.624   3.664  0.0512 -0.0841  0.2446
 2086EOH      H 8349   0.193   3.500   3.790 -1.4663  0.8400  0.6741
 2087EOH      O 8350   2.061   5.686   5.600 -0.2470  0.3276 -0.2297
 2087EOH      C 8351   2.193   5.643   5.632 -0.2097  0.3112 -0.4074
 2087EOH      C 8352   2.240   5.736   5.746  0.6728  0.2196 -0.6891
 2087EOH      H 8353   2.053   5.660   5.509  1.0404  1.6844 -0.7592
 2088EOH      O 8354   3.883   2.901   2.856  0.1632 -0.1292  0.3918
 2088EOH      C 8355   4.008   2.904   2.788  0.0730  1.0073  0.2803
 2088EOH      C 8356   4.077   2.777   2.841 -0.5647  0.2971 -0.5857
 2088EOH      H 8357   3.897   2.910   2.949  2.5077 -0.8043  0.1382
 2089EOH      O 8358   0.236   4.403   5.232  0.8393  0.2247  0.0173
 2089EOH      C 8359   0.225   4.261   5.240  0.1954  0.2770  0.0983
 2089EOH      C 8360   0.368   4.210   5.213  0.2724  0.1268  0.7994
 2089EOH      H 8361   0.284   4.442   5.304  0.1016 -0.8176  1.0978
 2090EOH      O 8362   4.621   2.005   6.249  0.6700 -0.2251  0.1309
 2090EOH      C 8363   4.516   1.908   6.251  0.0850  0.3995 -0.1038
 2090EOH      C 8364   4.459   1.921   6.393 -0.6966 -0.8452 -0.2943
 2090EOH      H 8365   4.665   2.003   6.165  1.4465  0.3804  0.5274
 2091EOH      O 8366   4.496   1.263   2.331  0.1320 -0.3172 -0.6028
 2091EOH      C 8367   4.596   1.192   2.405 -0.4023  0.1988  0.6158
 2091EOH      C 8368   4.588   1.047   2.355  0.0905  0.4468 -0.1818
 2091EOH      H 8369   4.538   1.304   2.257  1.6240 -0.0530  0.3843
 2092EOH      O 8370   5.420   3.891   6.023 -0.0799 -0.1122 -0.3566
 2092EOH      C 8371   5.542   3.817   6.011  0.1203  0.2523 -0.5919
 2092EOH      C 8372   5.508   3.668   5.996  0.4904 -0.0038  0.9592
 2092EOH      H 8373   5.444   3.978   6.051 -0.9496 -0.4451  1.5122
 2093EOH      O 8374   6.099   2.715   5.327 -0.3419 -0.4530 -0.1768
 2093EOH      C 8375   6.156   2.752   5.202 -0.1118 -0.6975 -0.1439
 2093EOH      C 8376   6.053   2.698   5.101 -0.1044  0.1912 -0.6325
 2093EOH      H 8377   6.126   2.780   5.391  1.8356  0.1141 -1.6214
 2094EOH      O 8378   4.063   3.349   0.220  0.3824  0.1673 -0.3745
 2094EOH      C 8379   4.148   3.453   0.269  0.5936 -0.0705 -0.2366
 2094EOH      C 8380   4.165   3.450   0.422  0.4731 -0.2130 -0.2260
 2094EOH      H 8381   4.057   3.370   0.128  0.5664  0.7371 -0.2589
 2095EOH      O 8382   0.088   3.649   5.647 -0.5557 -0.2860 -0.0603
 2095EOH      C 8383   0.089   3.681   5.507 -0.3511 -0.1127 -0.0196
 2095EOH      C 8384  -0.002   3.581   5.434 -0.5007  0.3378 -0.4537
 2095EOH      H 8385   0.169   3.607   5.670  0.4978  0.9173 -1.4519
 2096EOH      O 8386   1.175   3.768   5.126  0.3966  0.1645  0.0937
 2096EOH      C 8387   1.264   3.679   5.195 -0.5060 -0.2881  0.6724
 2096EOH      C 8388   1.297   3.728   5.337  0.2137 -0.3145  0.5160
 2096EOH      H 8389   1.151   3.731   5.042 -2.0489  2.0060 -0.0558
 2097EOH      O 8390   3.607   4.009   4.581 -0.2979  0.0464  0.3292
 2097EOH      C 8391   3.527   3.895   4.551  0.4262 -0.4192  0.1542
 2097EOH      C 8392   3.392   3.889   4.625  0.1108  0.8412 -0.3068
 2097EOH      H 8393   3.693   3.971   4.572 -1.5197 -3.3148  2.0838
 2098EOH      O 8394   3.636   0.677   5.242  0.2619 -0.4275 -0.6179
 2098EOH      C 8395   3.658   0.711   5.379 -0.4287 -0.3744 -0.5161
 2098EOH      C 8396   3.583   0.842   5.406  0.1350 -0.1271 -0.1251
 2098EOH      H 8397   3.672   0.592   5.220 -2.6299 -2.4995  2.1958
 2099EOH      O 8398   5.454   2.254   0.745 -0.0487 -0.8082  0.3468
 2099EOH      C 8399   5.367   2.325   0.834 -0.6556 -0.4599 -0.5215
 2099EOH      C 8400   5.338   2.456   0.758 -0.0965 -0.0752 -0.0730
 2099EOH      H 8401   5.470   2.169   0.782  1.8315 -0.9408 -0.7162
 2100EOH      O 8402   5.856   1.208   4.737 -0.1815 -0.0134  0.0756
 2100EOH      C 8403   5.841   1.234   4.876  0.1112 -0.2233  0.1479
 2100EOH      C 8404   5.959   1.173   4.954  0.1420  0.4069  0.5994
 2100EOH      H 8405   5.795   1.146   4.699  0.2451 -0.5824  0.3083
 2101EOH      O 8406   5.139   0.368   0.064  0.5400 -0.0245 -0.3255
 2101EOH      C 8407   5.116   0.336   0.201  0.3554  0.4590 -0.2414
 2101EOH      C 8408   4.969   0.295   0.216  0.3766  0.3711 -0.2716
 2101EOH      H 8409   5.222   0.413   0.057 -0.8891  2.6603 -0.5425
 2102EOH      O 8410   5.317   1.382   4.398 -0.2071 -0.0531  0.3652
 2102EOH      C 8411   5.393   1.297   4.484  0.3187 -0.1706 -0.2125
 2102EOH      C 8412   5.541   1.340   4.488  0.3459 -0.2365 -0.4865
 2102EOH      H 8413   5.232   1.396   4.437 -0.3892  2.6202 -0.8854
 2103EOH      O 8414   1.397   0.814   1.298  0.2621  0.1098 -0.0525
 2103EOH      C 8415   1.520   0.741   1.289  0.0867 -0.1747 -0.1454
 2103EOH      C 8416   1.640   0.833   1.319 -0.0153 -0.0710 -0.0530
 2103EOH      H 8417   1.377   0.860   1.218 -0.5925 -0.9386 -0.4561
 2104EOH      O 8418   0.244   1.822   1.845  0.0090  0.4481  0.3325
 2104EOH      C 8419   0.229   1.964   1.841  0.1124  0.4524  0.0950
 2104EOH      C 8420   0.292   2.019   1.712 -0.1780  0.0699 -0.2096
 2104EOH      H 8421   0.174   1.787   1.898  0.2717 -0.1076  0.3233
 2105EOH      O 8422   0.263   3.371   0.249  0.3969 -0.3092 -0.1626
 2105EOH      C 8423   0.211   3.349   0.380 -0.0300  0.0254 -0.2729
 2105EOH      C 8424   0.082   3.431   0.395  0.0956  0.1755 -0.0069
 2105EOH      H 8425   0.198   3.336   0.189 -0.2161  2.0474 -0.9354
 2106EOH      O 8426   0.377   3.131   1.719 -0.0972 -0.0221 -0.2110
 2106EOH      C 8427   0.410   3.002   1.668  0.3159 -0.0625  0.1536
 2106EOH      C 8428   0.359   2.904   1.775  1.2436 -0.2970  0.3886
 2106EOH      H 8429   0.366   3.187   1.644 -0.0303 -1.4266 -1.2795
 2107EOH      O 8430   5.889   5.462   1.819 -0.2849  0.0842 -0.2969
 2107EOH      C 8431   5.760   5.496   1.870 -0.4677 -0.3396 -0.4664
 2107EOH      C 8432   5.714   5.393   1.974 -0.3509  0.1334  0.0556
 2107EOH      H 8433   5.894   5.370   1.797  2.1430  0.3268 -0.9191
 2108EOH      O 8434   5.338   5.837   1.067  0.4061  0.3057 -0.0128
 2108EOH      C 8435   5.386   5.771   1.185  0.1845 -0.1470 -0.1768
 2108EOH      C 8436   5.483   5.873   1.246 -0.2112  0.5543 -0.7106
 2108EOH      H 8437   5.289   5.769   1.023  2.6308 -1.1405 -0.3388
 2109EOH      O 8438   3.879   1.158   0.415 -0.2401  0.7947 -0.1508
 2109EOH      C 8439   3.958   1.131   0.531  0.2989  0.2331 -0.6406
 2109EOH      C 8440   4.073   1.034   0.500  0.2972 -0.0563  0.2278
 2109EOH      H 8441   3.921   1.237   0.385  2.0671 -0.3037  0.0695
 2110EOH      O 8442   4.495   3.774   3.558 -0.3620 -0.3275  0.5002
 2110EOH      C 8443   4.621   3.833   3.524 -0.6060 -0.0010  0.1421
 2110EOH      C 8444   4.710   3.850   3.649 -0.3186 -0.4056 -0.0058
 2110EOH      H 8445   4.447   3.760   3.477  1.2710  1.8099 -0.8990
 2111EOH      O 8446   4.003   0.603   3.370 -0.1940 -0.5467  0.7385
 2111EOH      C 8447   3.991   0.704   3.471  0.3782  0.0988  0.1683
 2111EOH      C 8448   4.115   0.794   3.479  0.2098  0.3763 -0.3356
 2111EOH      H 8449   3.999   0.520   3.415  1.9393 -0.3458  1.3633
 2112EOH      O 8450   4.076   1.400   2.361 -0.2145  0.4073 -0.3384
 2112EOH      C 8451   3.937   1.379   2.385 -0.1048 -0.3511 -0.3448
 2112EOH      C 8452   3.891   1.248   2.319 -0.2827  0.0506 -1.0253
 2112EOH      H 8453   4.106   1.336   2.299  0.0374  0.9285 -0.7578
 2113EOH      O 8454   3.545   2.533   0.187 -0.3245 -0.3881  0.4593
 2113EOH      C 8455   3.667   2.460   0.206  0.0572  0.1752  0.1629
 2113EOH      C 8456   3.645   2.322   0.270  0.0383 -0.0113 -0.2416
 2113EOH      H 8457   3.529   2.591   0.260 -0.7665  0.4478 -0.2944
 2114EOH      O 8458   6.313   4.073   3.089  0.4939 -0.1321 -0.0382
 2114EOH      C 8459   6.201   3.984   3.087  0.3397  0.0670 -0.2058
 2114EOH      C 8460   6.071   4.062   3.114  0.0755 -0.4376 -0.0137
 2114EOH      H 8461   6.305   4.126   3.167 -0.6791  1.1287 -1.0260
 2115EOH      O 8462   1.744   3.873   1.373 -0.6213  0.1201  0.1461
 2115EOH      C 8463   1.785   4.008   1.394 -0.1323 -0.0940  0.5809
 2115EOH      C 8464   1.667   4.096   1.350  0.0093  0.1904  0.7663
 2115EOH      H 8465   1.784   3.817   1.439  0.3848 -1.8625 -2.0615
 2116EOH      O 8466   5.819   2.990   4.721  0.0167 -0.3890  0.2317
 2116EOH      C 8467   5.919   2.972   4.822  0.1895  0.4545  0.2192
 2116EOH      C 8468   5.897   3.071   4.937  0.2533  0.1138  0.5255
 2116EOH      H 8469   5.750   3.051   4.744  0.5593  1.2467 -2.2231
 2117EOH      O 8470   5.716   5.799   5.827  0.3099 -0.0234  0.7055
 2117EOH      C 8471   5.573   5.785   5.827  0.3050 -0.0037  0.2454
 2117EOH      C 8472   5.495   5.904   5.768  0.1406  0.0484  0.5667
 2117EOH      H 8473   5.754   5.747   5.896  2.0628  0.4209  0.0964
 2118EOH      O 8474   3.834   5.884   3.499 -0.0539 -0.3061 -0.2314
 2118EOH      C 8475   3.769   5.924   3.621 -0.3779 -0.3079 -0.4028
 2118EOH      C 8476   3.753   5.798   3.709 -0.5980 -0.3824 -0.5496
 2118EOH      H 8477   3.927   5.879   3.513 -0.1473 -1.0863  0.1290
 2119EOH      O 8478   1.034   0.077   3.593  0.0701 -0.0393 -0.0626
 2119EOH      C 8479   0.970  -0.043   3.638 -0.0119 -0.0459 -0.1984
 2119EOH      C 8480   0.983  -0.157   3.535 -0.5121 -0.1614 -0.1332
 2119EOH      H 8481   1.113   0.063   3.544  1.1904 -1.3796  2.0618
 2120EOH      O 8482   4.848   3.090   1.682  0.3381 -0.0519  0.1475
 2120EOH      C 8483   4.855   3.189   1.579 -0.2118 -0.1941 -0.0328
 2120EOH      C 8484   4.824   3.134   1.439 -0.1397  0.2010 -0.2030
 2120EOH      H 8485   4.768   3.040   1.671  1.7237 -2.9755  2.5544
 2121EOH      O 8486   2.628   0.258   4.188  0.0197  0.4350 -0.0347
 2121EOH      C 8487   2.613   0.238   4.329  0.6257 -0.0024 -0.0282
 2121EOH      C 8488   2.615   0.374   4.401  0.2379  0.1100 -0.2271
 2121EOH      H 8489   2.580   0.187   4.149  1.5550  0.0352 -1.2508
 2122EOH      O 8490   4.672   3.740   5.797 -0.5198 -0.0872 -0.1711
 2122EOH      C 8491   4.592   3.827   5.717 -0.0163  0.3570 -0.1883
 2122EOH      C 8492   4.451   3.768   5.726  0.0336  0.3039  0.2474
 2122EOH      H 8493   4.633   3.744   5.883 -0.4802 -0.9686 -0.1099
 2123EOH      O 8494   5.232   1.537   3.674  0.1161  0.3562 -0.4481
 2123EOH      C 8495   5.373   1.527   3.695  0.0627 -0.4496 -0.4360
 2123EOH      C 8496   5.450   1.586   3.575  0.2059  0.2035 -0.0272
 2123EOH      H 8497   5.211   1.626   3.695  0.6934  0.4812 -0.3905
 2124EOH      O 8498   0.161   4.014   1.483 -0.3499  0.0097  0.5043
 2124EOH      C 8499   0.169   4.119   1.580  0.6665 -0.3962  0.8750
 2124EOH      C 8500   0.251   4.235   1.522 -0.0742 -0.4264 -0.2619
 2124EOH      H 8501   0.143   4.049   1.398 -3.5572 -1.3956  0.5390
 2125EOH      O 8502   1.161   2.175   4.669  0.5614 -0.5833  0.1807
 2125EOH      C 8503   1.207   2.146   4.536  0.3699 -0.2066  0.0298
 2125EOH      C 8504   1.360   2.131   4.542  0.4302  0.2945 -0.2385
 2125EOH      H 8505   1.078   2.134   4.686  0.5822 -0.7046 -0.0123
 2126EOH      O 8506   3.795   2.135   2.764  0.9167  0.1003 -0.1660
 2126EOH      C 8507   3.793   2.026   2.856 -0.4810  0.3442  0.0939
 2126EOH      C 8508   3.865   2.065   2.986  0.0501  0.1642 -0.1442
 2126EOH      H 8509   3.710   2.153   2.728  2.2876  0.4741 -3.4549
 2127EOH      O 8510   3.404   1.779   5.258  0.7262  0.4317  0.0171
 2127EOH      C 8511   3.465   1.872   5.169  0.2414  0.7474  0.0096
 2127EOH      C 8512   3.617   1.875   5.194  0.2756  0.2171 -0.1126
 2127EOH      H 8513   3.322   1.745   5.223  0.4704 -0.6718  1.6353
 2128EOH      O 8514   1.032   1.129   0.884  0.1628 -0.3777 -0.1786
 2128EOH      C 8515   0.972   1.223   0.795  0.0320  0.0036  0.3110
 2128EOH      C 8516   0.896   1.176   0.669 -0.0414  0.3301  0.2310
 2128EOH      H 8517   1.062   1.182   0.956  1.6543 -0.3251 -0.8133
 2129EOH      O 8518   0.752   0.055   2.896  0.0859 -0.3029 -0.4470
 2129EOH      C 8519   0.823   0.160   2.829  0.3108 -0.2777 -0.1701
 2129EOH      C 8520   0.722   0.271   2.795  0.1879 -0.3038  0.0992
 2129EOH      H 8521   0.682   0.031   2.838 -1.2639  0.8851  0.6355
 2130EOH      O 8522   4.392   4.569   3.200 -0.3961  0.1177  0.0626
 2130EOH      C 8523   4.352   4.705   3.222  0.4099  0.3827 -0.0952
 2130EOH      C 8524   4.320   4.792   3.099  0.0363 -0.2222 -0.4298
 2130EOH      H 8525   4.485   4.555   3.205  0.3334  2.0220 -4.7556
 2131EOH      O 8526   3.040   0.362   0.526  0.2497  0.5577 -0.0022
 2131EOH      C 8527   3.034   0.357   0.383 -0.1375  0.3319  0.0202
 2131EOH      C 8528   2.915   0.436   0.327  0.0267  0.5746  0.0094
 2131EOH      H 8529   3.101   0.297   0.559 -1.1394 -0.4992  0.5260
 2132EOH      O 8530   5.711   0.726   0.165  0.1471  0.5193 -0.7037
 2132EOH      C 8531   5.740   0.808   0.278 -0.3670 -0.3935  0.0967
 2132EOH      C 8532   5.826   0.923   0.222 -0.2207 -0.6858 -0.2774
 2132EOH      H 8533   5.792   0.697   0.127  1.9120  2.2184  1.6146
 2133EOH      O 8534   2.463   2.251   4.685  0.0112 -0.3365 -0.0361
 2133EOH      C 8535   2.338   2.186   4.659 -0.0904 -0.0636 -0.2226
 2133EOH      C 8536   2.359   2.086   4.544 -0.0824  0.1697 -0.4274
 2133EOH      H 8537   2.485   2.255   4.777  1.6931  1.2262 -0.4930
 2134EOH      O 8538   4.195   5.444   5.197  0.2018 -0.2428  0.1291
 2134EOH      C 8539   4.303   5.353   5.175 -0.2036 -0.5035 -0.8462
 2134EOH      C 8540   4.290   5.242   5.281 -0.9164 -0.5585 -0.9921
 2134EOH      H 8541   4.116   5.397   5.172  1.9026 -3.5471  0.6374
 2135EOH      O 8542   6.088   6.319   4.589  0.0855  0.1270 -0.4813
 2135EOH      C 8543   6.169   6.265   4.694 -0.2430 -0.0578 -0.3187
 2135EOH      C 8544   6.086   6.218   4.815  0.2995  0.4286  0.2495
 2135EOH      H 8545   6.032   6.247   4.565 -0.0771  0.0710  0.0518
 2136EOH      O 8546   3.592   2.876   2.223  0.2528  0.1515  0.0840
 2136EOH      C 8547   3.666   2.923   2.336  0.4066 -0.1975  0.1276
 2136EOH      C 8548   3.796   2.987   2.284  0.0288  0.4543 -0.0287
 2136EOH      H 8549   3.620   2.787   2.213 -3.5474 -1.0811 -0.3359
 2137EOH      O 8550   5.383   5.863   2.134 -0.2565 -0.5226  0.0427
 2137EOH      C 8551   5.371   5.933   2.258 -0.0654 -0.2582 -0.0874
 2137EOH      C 8552   5.235   5.881   2.311 -0.2418  0.1259 -0.1638
 2137EOH      H 8553   5.472   5.831   2.135 -0.8927 -2.3775  0.4762
 2138EOH      O 8554   2.464   5.362   3.345 -0.1592 -0.4161 -0.1693
 2138EOH      C 8555   2.404   5.334   3.472 -0.2111 -0.1288 -0.1309
 2138EOH      C 8556   2.430   5.185   3.503 -0.1160  0.0100  0.4549
 2138EOH      H 8557   2.548   5.404   3.343 -0.9622  1.1748 -1.7338
 2139EOH      O 8558   5.576   0.625   3.673 -0.1919 -0.2157  0.1473
 2139EOH      C 8559   5.454   0.669   3.612  0.3805  0.0041 -0.8623
 2139EOH      C 8560   5.373   0.545   3.567  0.4148 -0.3985  0.1659
 2139EOH      H 8561   5.603   0.548   3.624 -0.3613  1.3347 -2.5117
 2140EOH      O 8562   0.127   0.249   4.972 -0.2244 -0.0194  0.2717
 2140EOH      C 8563   0.059   0.131   5.014 -0.4948  0.1660  0.3494
 2140EOH      C 8564   0.109   0.110   5.158 -0.3462  0.4367  0.3375
 2140EOH      H 8565   0.103   0.254   4.881  0.2717  0.3185  0.1567
 2141EOH      O 8566   6.170   6.246   3.325 -0.5587  0.3292  0.0590
 2141EOH      C 8567   6.164   6.131   3.240  0.9796 -0.0147  0.4114
 2141EOH      C 8568   6.285   6.109   3.147  0.3768  0.5357 -0.5061
 2141EOH      H 8569   6.101   6.302   3.291 -0.1027  0.8858  0.0576
 2142EOH      O 8570   0.519   1.510   2.296 -0.3244 -0.2130  0.1580
 2142EOH      C 8571   0.560   1.380   2.341 -0.0954 -0.3895 -0.5379
 2142EOH      C 8572   0.712   1.389   2.319 -0.0399  0.6138  0.1716
 2142EOH      H 8573   0.441   1.536   2.342  1.0527  0.9376  1.9078
 2143EOH      O 8574   1.190   3.040   2.304  0.0128  0.9163 -0.0895
 2143EOH      C 8575   1.077   3.019   2.219  0.1644 -0.0003 -0.0754
 2143EOH      C 8576   1.114   2.915   2.112 -0.2744  0.0290 -0.2561
 2143EOH      H 8577   1.171   3.117   2.355 -1.8465  0.3652  0.1018
 2144EOH      O 8578   4.679   1.059   1.548 -0.2657  0.2341 -0.2848
 2144EOH      C 8579   4.764   1.049   1.434 -0.1086  0.3390 -0.1765
 2144EOH      C 8580   4.900   1.098   1.487 -0.1959 -0.0911  0.4540
 2144EOH      H 8581   4.589   1.054   1.518  0.3596 -1.4282 -1.9697
 2145EOH      O 8582   2.592   4.381   2.726 -0.0536  0.0545 -0.4323
 2145EOH      C 8583   2.705   4.398   2.640  0.3311  0.2267  0.1034
 2145EOH      C 8584   2.654   4.466   2.512  0.1107 -0.3288 -0.1085
 2145EOH      H 8585   2.597   4.448   2.793 -0.2049 -0.9517  0.5874
 2146EOH      O 8586   0.587   5.375   5.311  0.2373  0.3901 -0.2810
 2146EOH      C 8587   0.645   5.295   5.415  0.1522 -0.2734 -0.7367
 2146EOH      C 8588   0.797   5.317   5.421  0.0465  0.2976 -0.0393
 2146EOH      H 8589   0.584   5.464   5.342 -1.3614  0.9691 -1.9932
 2147EOH      O 8590   1.499   2.377   4.091  0.3671  0.5162  0.1339
 2147EOH      C 8591   1.571   2.303   4.190 -0.1988 -0.7089 -0.3529
 2147EOH      C 8592   1.703   2.260   4.123  0.2387  0.3384 -0.1814
 2147EOH      H 8593   1.547   2.455   4.070 -1.6475  1.8780  0.3901
 2148EOH      O 8594   4.313   6.316   4.367  0.6861 -0.2040 -0.6580
 2148EOH      C 8595   4.338   6.456   4.386 -0.2685 -0.1132 -0.0328
 2148EOH      C 8596   4.462   6.492   4.302  0.0390 -0.2125  0.3768
 2148EOH      H 8597   4.236   6.313   4.312 -2.1332 -0.4539  3.0663
 2149EOH      O 8598   0.256   5.589   1.218 -0.1696  0.2508 -0.0358
 2149EOH      C 8599   0.337   5.497   1.144  0.0528  0.0370  0.4724
 2149EOH      C 8600   0.479   5.500   1.205  0.0139 -0.6265  0.5929
 2149EOH      H 8601   0.174   5.597   1.172  0.1572  4.2639 -0.1162
 2150EOH      O 8602   1.296   2.901   3.528  0.0750  0.2049 -0.0721
 2150EOH      C 8603   1.388   2.967   3.441  0.1513 -0.2672 -0.3492
 2150EOH      C 8604   1.537   2.957   3.480  0.0633  0.2600  0.1282
 2150EOH      H 8605   1.291   2.813   3.495 -1.2140  0.3469 -0.2893
 2151EOH      O 8606   1.986   0.612   0.583  0.3897 -0.1527  0.3440
 2151EOH      C 8607   1.933   0.575   0.456 -0.3797 -0.2725  0.6949
 2151EOH      C 8608   2.063   0.577   0.373 -0.4818  0.8490  0.5510
 2151EOH      H 8609   1.949   0.697   0.603  2.2565  0.9002 -0.5349
 2152EOH      O 8610   5.029   6.048   1.669  0.1837 -0.0434 -0.1074
 2152EOH      C 8611   4.931   5.947   1.648  0.1716 -0.1040  0.2357
 2152EOH      C 8612   4.810   6.022   1.707 -0.2995 -0.3719 -0.3764
 2152EOH      H 8613   5.050   6.030   1.760 -0.2106  0.2303  0.0372
 2153EOH      O 8614   5.553   1.016   3.094 -0.2336 -0.0965  0.1062
 2153EOH      C 8615   5.659   1.010   2.999  0.2222  0.2959  0.5888
 2153EOH      C 8616   5.684   1.145   2.928 -0.0637 -0.1867 -0.4494
 2153EOH      H 8617   5.592   0.964   3.162  0.9726  1.4364  0.6028
 2154EOH      O 8618   4.738   0.403   3.467  0.0874 -0.4323  0.4402
 2154EOH      C 8619   4.854   0.354   3.399  0.2098  0.2681  0.1411
 2154EOH      C 8620   4.883   0.206   3.430 -0.1720  0.1647  0.0078
 2154EOH      H 8621   4.680   0.444   3.405  0.3977  1.1673  1.1855
 2155EOH      O 8622   6.222   2.848   5.500  0.2724  0.5756  0.4618
 2155EOH      C 8623   6.258   2.778   5.619 -0.0321 -0.2144  0.0934
 2155EOH      C 8624   6.349   2.664   5.568 -0.4929 -0.6925  0.3327
 2155EOH      H 8625   6.300   2.898   5.481 -0.2445  1.8760  1.6394
 2156EOH      O 8626   4.043   0.655   0.318 -0.0836 -0.3279  0.3291
 2156EOH      C 8627   3.909   0.703   0.319  0.0516  0.0538  0.1266
 2156EOH      C 8628   3.859   0.673   0.461  0.2173 -0.4406  0.0821
 2156EOH      H 8629   4.100   0.715   0.363 -2.8045  1.3104  1.6406
 2157EOH      O 8630   5.197   1.692   5.712 -0.0814  0.2062  0.1646
 2157EOH      C 8631   5.165   1.588   5.618  0.2030 -0.1403  0.4501
 2157EOH      C 8632   5.184   1.610   5.467  0.2366 -0.0152  0.4725
 2157EOH      H 8633   5.179   1.648   5.794 -3.5130 -1.7887 -1.5116
 2158EOH      O 8634   4.031   0.233   5.348 -0.4711 -0.7483  0.2486
 2158EOH      C 8635   4.160   0.191   5.394  0.1120  0.2488 -0.4537
 2158EOH      C 8636   4.187   0.273   5.521 -0.0498  0.0089 -0.2638
 2158EOH      H 8637   3.971   0.187   5.405 -1.3053  1.2419  1.0036
 2159EOH      O 8638   4.756   1.950   5.557  0.0149  0.1757 -0.3261
 2159EOH      C 8639   4.836   1.832   5.567 -0.6258 -0.2694 -0.4123
 2159EOH      C 8640   4.815   1.750   5.696  0.0571  0.2430  0.0262
 2159EOH      H 8641   4.815   2.018   5.528  0.1438  0.1961 -0.0144
 2160EOH      O 8642   5.114   3.188   0.078  0.3211 -0.5580  0.1497
 2160EOH      C 8643   5.035   3.296   0.128  0.5039 -0.3418 -0.0327
 2160EOH      C 8644   5.055   3.290   0.281 -0.0499 -0.2984  0.0405
 2160EOH      H 8645   5.202   3.214   0.058 -0.6049  3.2305  0.7002
 2161EOH      O 8646   1.592   5.852   3.041  0.3936  0.1295  0.7080
 2161EOH      C 8647   1.640   5.983   3.009  0.1073  0.1059  0.1723
 2161EOH      C 8648   1.793   5.965   3.009  0.0215 -0.6258  0.1323
 2161EOH      H 8649   1.506   5.859   3.079  0.2973 -0.7817  0.6535
 2162EOH      O 8650   3.440   5.260   3.273  0.1919  0.0814  0.0216
 2162EOH      C 8651   3.493   5.314   3.151  0.1359 -0.4218 -0.2294
 2162EOH      C 8652   3.376   5.334   3.053  0.2784 -0.7337 -0.4639
 2162EOH      H 8653   3.516   5.227   3.318  1.6756  0.0425 -2.3807
 2163EOH      O 8654   0.342   0.647   3.736  0.4823 -0.2863  0.3514
 2163EOH      C 8655   0.274   0.755   3.800  0.4675 -0.0077 -0.1323
 2163EOH      C 8656   0.282   0.887   3.721  0.1803 -0.0738 -0.2703
 2163EOH      H 8657   0.305   0.568   3.771 -0.5394  0.1541  0.2695
 2164EOH      O 8658   3.468   1.048   0.415 -0.0294  0.5433  0.3025
 2164EOH      C 8659   3.486   1.045   0.557  0.1389  0.2901  0.2778
 2164EOH      C 8660   3.408   1.162   0.620  0.2857  0.1405  0.7367
 2164EOH      H 8661   3.529   1.097   0.363 -0.5542  1.7327  0.8029
 2165EOH      O 8662   5.563   5.530   4.259  0.0637 -0.1148 -0.6220
 2165EOH      C 8663   5.444   5.546   4.336  0.7492  0.2127  0.3765
 2165EOH      C 8664   5.402   5.692   4.310 -0.4313 -0.1797  0.0522
 2165EOH      H 8665   5.573   5.437   4.243  0.5505 -0.0851 -0.5165
 2166EOH      O 8666   5.361   1.909   4.026  0.2967  0.2003 -0.3614
 2166EOH      C 8667   5.474   1.970   3.964  0.2493  0.8782  0.2141
 2166EOH      C 8668   5.525   1.876   3.854 -0.1645  0.1760  0.6204
 2166EOH      H 8669   5.380   1.873   4.111  0.3294 -0.5016 -0.6645
 2167EOH      O 8670   2.751   0.582   5.663  0.3464  0.2999  0.4727
 2167EOH      C 8671   2.751   0.715   5.716 -0.0360  0.2688  0.5526
 2167EOH      C 8672   2.667   0.818   5.637 -0.7386 -0.4794  0.3115
 2167EOH      H 8673   2.673   0.576   5.609  0.2269  1.1468  0.5424
 2168EOH      O 8674   4.276   0.347   5.959 -0.1241 -0.3144  0.0493
 2168EOH      C 8675   4.297   0.427   5.842 -0.4800 -0.1212  0.1151
 2168EOH      C 8676   4.421   0.366   5.774 -0.2274 -0.0401  0.4989
 2168EOH      H 8677   4.198   0.378   6.004 -1.0638 -1.5896 -0.6570
 2169EOH      O 8678   6.255   5.350   1.215  0.0194 -0.0439 -0.2246
 2169EOH      C 8679   6.303   5.352   1.350 -0.8508  0.6709  0.0814
 2169EOH      C 8680   6.279   5.210   1.405  0.5022  0.2506 -0.3989
 2169EOH      H 8681   6.176   5.300   1.222 -0.4155  0.6677  0.0154
 2170EOH      O 8682   4.473   5.572   1.739  0.5684  0.2722  0.4535
 2170EOH      C 8683   4.357   5.623   1.805  0.2228 -0.1234  0.1538
 2170EOH      C 8684   4.296   5.515   1.896  0.2408 -0.0092  0.3029
 2170EOH      H 8685   4.543   5.572   1.802  0.2504 -1.0840  0.8296
 2171EOH      O 8686   0.894   2.323   1.524 -0.0734 -0.4365  0.5207
 2171EOH      C 8687   0.999   2.411   1.563 -0.3319  0.4095 -0.6672
 2171EOH      C 8688   0.957   2.522   1.662  0.2428  0.1038 -0.0736
 2171EOH      H 8689   0.891   2.256   1.591  0.4477 -1.6727 -0.6603
 2172EOH      O 8690   2.394   3.784   5.812 -0.0340  0.2811 -0.2741
 2172EOH      C 8691   2.390   3.828   5.948 -0.6284 -0.3030 -0.0992
 2172EOH      C 8692   2.255   3.898   5.976 -0.0451  0.6830  0.2463
 2172EOH      H 8693   2.326   3.718   5.803 -1.8073  1.7515  1.8520
 2173EOH      O 8694   2.225   2.214   0.773  0.9109  0.1435 -0.1897
 2173EOH      C 8695   2.301   2.277   0.877 -0.0285 -0.0074  0.5983
 2173EOH      C 8696   2.232   2.268   1.014 -0.1505 -0.1167  0.5291
 2173EOH      H 8697   2.277   2.234   0.696  1.1716 -0.8175 -0.2719
 2174EOH      O 8698   3.698   2.912   2.681 -0.0420  0.2719 -0.2236
 2174EOH      C 8699   3.585   2.836   2.723  0.2854  0.0791  0.3195
 2174EOH      C 8700   3.461   2.902   2.660  0.1260 -0.1685  0.3723
 2174EOH      H 8701   3.755   2.923   2.756 -1.9647  1.2918  1.1330
 2175EOH      O 8702   5.324   4.119   4.870  0.3493 -0.1681  0.4053
 2175EOH      C 8703   5.257   3.998   4.906  0.2308 -0.2931 -0.2233
 2175EOH      C 8704   5.151   4.020   5.016 -0.2526 -0.8366 -0.5819
 2175EOH      H 8705   5.406   4.093   4.831 -0.1299 -1.6390  0.3549
 2176EOH      O 8706   4.537   0.915   4.950 -0.6044  0.1116  0.4481
 2176EOH      C 8707   4.668   0.936   5.005 -0.3474 -0.4654  0.0657
 2176EOH      C 8708   4.684   1.088   4.991 -0.5445 -0.5200 -0.7715
 2176EOH      H 8709   4.547   0.893   4.858  0.6964 -2.9555  1.2589
 2177EOH      O 8710   0.621   5.431   3.591 -0.6458 -0.6436  0.2220
 2177EOH      C 8711   0.672   5.557   3.635 -0.4844 -0.4439 -0.5152
 2177EOH      C 8712   0.666   5.654   3.516 -0.0409 -0.2119 -0.3502
 2177EOH      H 8713   0.660   5.408   3.507 -0.5066  0.5314 -0.0365
 2178EOH      O 8714   2.713   3.788   2.822  0.4426  0.2171  0.1858
 2178EOH      C 8715   2.706   3.912   2.750 -0.5217 -0.0790 -0.2391
 2178EOH      C 8716   2.837   3.932   2.673 -0.7602 -0.2308 -0.6817
 2178EOH      H 8717   2.646   3.792   2.889 -2.6191  0.4029 -2.7488
 2179EOH      O 8718   2.997   2.082   0.318 -0.0928 -0.0664 -0.6064
 2179EOH      C 8719   2.880   2.083   0.400  0.2502  0.1323 -0.1227
 2179EOH      C 8720   2.767   2.031   0.309 -0.1606  0.4453  0.2051
 2179EOH      H 8721   3.031   1.994   0.321  0.1483  0.0672  0.8375
 2180EOH      O 8722   2.303   1.030   4.936 -0.0124 -0.1173 -0.2438
 2180EOH      C 8723   2.427   1.038   5.007 -0.2852  0.1860  0.1980
 2180EOH      C 8724   2.441   0.912   5.095  0.5743 -0.2330 -0.5275
 2180EOH      H 8725   2.278   1.121   4.933 -0.3213 -0.1276  1.6789
 2181EOH      O 8726   4.031   2.819   4.088  0.3459  0.2036  0.3109
 2181EOH      C 8727   4.159   2.793   4.028  0.1166  0.0432 -0.1164
 2181EOH      C 8728   4.273   2.792   4.131  0.3365  0.1052 -0.3612
 2181EOH      H 8729   4.024   2.911   4.071  0.5682 -0.1029 -1.5418
 2182EOH      O 8730   3.259   0.256   1.334  0.0754  0.2873 -0.3064
 2182EOH      C 8731   3.360   0.205   1.247  0.2198  0.3969 -0.2021
 2182EOH      C 8732   3.456   0.109   1.320 -0.3240 -0.2109 -0.2808
 2182EOH      H 8733   3.211   0.325   1.291  0.9076  0.2639 -1.2764
 2183EOH      O 8734   1.791   0.032   4.968 -0.5404 -0.2639  0.4437
 2183EOH      C 8735   1.893  -0.056   5.016 -0.5062 -0.5283 -0.1112
 2183EOH      C 8736   1.888  -0.078   5.169  0.0457 -0.5966 -0.1040
 2183EOH      H 8737   1.831   0.118   4.968 -1.5420  0.2156 -0.7685
 2184EOH      O 8738   0.056   1.778   1.992 -0.1035 -0.7106  0.3389
 2184EOH      C 8739  -0.017   1.856   2.088 -0.2871 -0.4292 -0.0290
 2184EOH      C 8740   0.063   1.860   2.220  0.5091  0.4348 -0.5354
 2184EOH      H 8741  -0.006   1.771   1.921  0.9557 -0.6141 -0.6032
 2185EOH      O 8742   5.766   3.647   5.590 -0.1573 -0.8020  0.1692
 2185EOH      C 8743   5.903   3.687   5.590 -0.2378 -0.5251  0.4042
 2185EOH      C 8744   5.932   3.738   5.732  0.3757  0.4347 -0.0508
 2185EOH      H 8745   5.765   3.572   5.648  0.1689 -0.5439  0.5096
 2186EOH      O 8746   0.764   5.375   3.389 -0.2880  0.5640 -0.2316
 2186EOH      C 8747   0.740   5.321   3.259  0.2699 -0.6763  0.1703
 2186EOH      C 8748   0.756   5.168   3.257  0.0207 -0.7068  0.5969
 2186EOH      H 8749   0.858   5.386   3.392 -0.3164  0.7465 -0.0128
 2187EOH      O 8750   4.309   3.915   0.957  0.2492  0.0392 -0.2063
 2187EOH      C 8751   4.277   4.044   1.009  0.1036 -0.2831  0.5119
 2187EOH      C 8752   4.383   4.146   0.966  0.0243 -0.3488  0.1576
 2187EOH      H 8753   4.238   3.868   0.999 -0.2188  1.6362  0.8256
 2188EOH      O 8754   4.829   3.936   2.757 -0.8080  0.2922 -0.2763
 2188EOH      C 8755   4.706   3.879   2.803 -0.4000 -0.4074 -0.0493
 2188EOH      C 8756   4.702   3.835   2.951  0.0762 -0.2412  0.0137
 2188EOH      H 8757   4.851   4.013   2.808  2.8805 -2.1123  1.9624
 2189EOH      O 8758   5.579   4.831   1.728 -0.3148 -0.5929 -0.2195
 2189EOH      C 8759   5.483   4.931   1.765  0.5101 -0.1129  0.6491
 2189EOH      C 8760   5.384   4.875   1.868  0.0852  0.0574  0.3318
 2189EOH      H 8761   5.660   4.847   1.775 -0.2999  0.4670 -0.5936
 2190EOH      O 8762   3.540   4.389   5.771 -0.7367 -0.6016 -0.1285
 2190EOH      C 8763   3.642   4.351   5.678 -0.2406 -0.0288  0.1820
 2190EOH      C 8764   3.606   4.422   5.546  0.0702  0.3861  0.3191
 2190EOH      H 8765   3.538   4.325   5.840 -0.8348 -0.1037  0.3297
 2191EOH      O 8766   1.245   4.025   1.706 -0.7442  0.0425  0.3996
 2191EOH      C 8767   1.276   4.164   1.711 -0.0683 -0.0904 -0.0138
 2191EOH      C 8768   1.170   4.229   1.801  0.1711  0.2382  0.0321
 2191EOH      H 8769   1.208   4.013   1.620 -2.0495 -0.4699  1.0183
 2192EOH      O 8770   2.535   5.608   3.002  0.3189  0.3817  1.0083
 2192EOH      C 8771   2.481   5.737   2.972  0.0903  0.0323 -0.0867
 2192EOH      C 8772   2.385   5.794   3.078  0.1183 -0.0825  0.0006
 2192EOH      H 8773   2.454   5.564   3.024  0.7097 -0.6912  0.3476
 2193EOH      O 8774   3.926   1.688   3.639  0.0148  0.1650  0.3073
 2193EOH      C 8775   3.882   1.823   3.624 -0.3804  0.0104  0.0618
 2193EOH      C 8776   3.795   1.833   3.497 -0.5394 -0.1963  0.1551
 2193EOH      H 8777   3.908   1.655   3.725  2.1515  1.0558  1.1434
 2194EOH      O 8778   1.265   2.491   3.740 -0.3188  0.4763  0.2325
 2194EOH      C 8779   1.400   2.527   3.711 -0.1828 -0.2445 -0.0207
 2194EOH      C 8780   1.497   2.413   3.747  0.1084 -0.0402 -0.1540
 2194EOH      H 8781   1.272   2.465   3.831  0.2173  0.0984  0.0833
 2195EOH      O 8782   4.286   2.483   1.095 -0.4895 -0.1206 -0.2085
 2195EOH      C 8783   4.173   2.529   1.168 -0.2679  0.1510 -0.0369
 2195EOH      C 8784   4.038   2.498   1.101 -0.1978 -0.2539  0.0105
 2195EOH      H 8785   4.289   2.388   1.099 -1.7647 -0.1466  0.1717
 2196EOH      O 8786   6.100   6.194   0.921 -0.3767  0.4966 -0.3582
 2196EOH      C 8787   6.222   6.152   0.858 -0.1553 -0.1849  0.5054
 2196EOH      C 8788   6.219   6.228   0.724  0.3182 -0.1268  0.5271
 2196EOH      H 8789   6.111   6.174   1.013  0.9247  1.1616 -0.3541
 2197EOH      O 8790   2.518   6.310   5.586 -0.0843  0.1364  0.5976
 2197EOH      C 8791   2.612   6.416   5.575 -0.0295  0.0359  0.0694
 2197EOH      C 8792   2.744   6.358   5.520  0.2454  0.1464  0.6036
 2197EOH      H 8793   2.497   6.292   5.677 -0.0146  0.5023  0.6841
 2198EOH      O 8794   2.527   1.895   5.906 -0.4403  0.0846 -0.0661
 2198EOH      C 8795   2.421   1.804   5.876 -0.2045 -0.2139  0.0070
 2198EOH      C 8796   2.456   1.654   5.863 -0.3173 -0.2653  0.3059
 2198EOH      H 8797   2.501   1.974   5.860 -2.2372 -0.4696 -0.0510
 2199EOH      O 8798   0.250   1.740   1.263 -0.1495  0.3828  0.2541
 2199EOH      C 8799   0.172   1.659   1.351 -0.5380 -0.0103 -0.4465
 2199EOH      C 8800   0.217   1.513   1.366 -0.5739 -0.0072 -0.3084
 2199EOH      H 8801   0.208   1.745   1.178  0.0869 -0.8928  0.0430
 2200EOH      O 8802   3.546   2.651   0.415 -0.3617 -0.1349  0.2785
 2200EOH      C 8803   3.485   2.767   0.473  0.3581  0.2401  0.2854
 2200EOH      C 8804   3.389   2.839   0.376 -0.0153 -0.2797  0.2711
 2200EOH      H 8805   3.624   2.635   0.465  0.2352  1.8999  0.0525
 2201EOH      O 8806   4.323   4.035   0.501  0.1076 -0.0024  0.2049
 2201EOH      C 8807   4.210   4.031   0.589 -0.1746 -0.3289 -0.1699
 2201EOH      C 8808   4.105   3.929   0.541 -0.3281 -0.2187 -0.0660
 2201EOH      H 8809   4.403   4.024   0.550 -0.7668  0.1028  1.6753
 2202EOH      O 8810   1.899   3.100   1.900 -0.2469 -0.0823 -0.3245
 2202EOH      C 8811   2.012   3.099   1.988 -0.7838 -0.4305  0.3653
 2202EOH      C 8812   2.026   2.978   2.082  0.4163 -0.4210  0.2119
 2202EOH      H 8813   1.934   3.160   1.836 -0.2337 -0.2400 -0.4654
 2203EOH      O 8814   1.879   1.031   2.323  0.2289 -0.2165  0.3705
 2203EOH      C 8815   1.829   1.148   2.387  0.0977 -0.4813  0.7557
 2203EOH      C 8816   1.692   1.171   2.320  0.4726 -0.2082  0.0801
 2203EOH      H 8817   1.877   0.955   2.381  0.8823 -1.0250 -0.6465
 2204EOH      O 8818   1.001   0.626   2.746 -0.3649 -0.5589 -0.2395
 2204EOH      C 8819   0.873   0.662   2.693 -0.2361  0.2057 -0.0353
 2204EOH      C 8820   0.855   0.810   2.732  0.1373  0.2689 -0.0995
 2204EOH      H 8821   1.063   0.665   2.687 -1.2015 -1.5174 -1.7751
 2205EOH      O 8822   1.658   1.022   3.912  0.0677  0.1644 -0.6789
 2205EOH      C 8823   1.694   1.073   3.783 -0.2372  0.5444 -0.6138
 2205EOH      C 8824   1.837   1.132   3.790  0.1725 -0.4301 -0.7605
 2205EOH      H 8825   1.565   1.007   3.912 -0.0445  0.8517 -0.5860
 2206EOH      O 8826   2.330   5.155   1.027  0.1720  0.1034  0.0400
 2206EOH      C 8827   2.257   5.211   1.136 -0.1975  0.2432 -0.2782
 2206EOH      C 8828   2.320   5.347   1.169 -0.0177  0.0923  0.0045
 2206EOH      H 8829   2.293   5.076   0.991  0.9249  0.4459 -1.5369
 2207EOH      O 8830   5.509   4.441   4.763 -0.3658  0.3061 -0.1982
 2207EOH      C 8831   5.487   4.518   4.644  0.3121  0.3407 -0.2997
 2207EOH      C 8832   5.588   4.478   4.535  0.8229  0.4398  0.1302
 2207EOH      H 8833   5.434   4.452   4.821  0.0832 -0.5662  0.5501
 2208EOH      O 8834   5.935   0.450   1.643  0.0772 -0.0577 -0.1661
 2208EOH      C 8835   5.910   0.571   1.572  0.1266  0.2605  0.3581
 2208EOH      C 8836   6.043   0.606   1.503 -0.1643  0.1366 -0.2647
 2208EOH      H 8837   5.895   0.388   1.584 -0.9895 -0.6224  1.0978
 2209EOH      O 8838   2.872   6.200   5.952  0.8263  0.1859  0.4278
 2209EOH      C 8839   2.885   6.343   5.958 -0.2995  0.3081 -0.0383
 2209EOH      C 8840   2.756   6.425   5.936 -0.0718  0.7171  0.1591
 2209EOH      H 8841   2.960   6.165   5.944  0.6505 -0.1049 -0.2121
 2210EOH      O 8842   1.380   5.981   5.614  0.1046  0.0727 -0.4034
 2210EOH      C 8843   1.354   5.872   5.526 -0.1789  0.0333 -0.2713
 2210EOH      C 8844   1.317   5.916   5.383 -0.5020 -0.1974 -0.2610
 2210EOH      H 8845   1.451   6.024   5.569 -0.8768  0.1501 -1.8948
 2211EOH      O 8846   2.362   4.813   4.915 -0.1092  0.3129 -0.2399
 2211EOH      C 8847   2.505   4.814   4.910 -0.0910 -0.4089  0.1977
 2211EOH      C 8848   2.560   4.707   5.007  0.0252 -0.8207 -0.3208
 2211EOH      H 8849   2.334   4.862   4.991 -0.1884  0.1941 -0.1926
 2212EOH      O 8850   2.417   0.053   2.278  0.4170  0.5143 -0.7018
 2212EOH      C 8851   2.340  -0.013   2.177 -0.0545  0.0142 -0.0202
 2212EOH      C 8852   2.389   0.019   2.035  0.0165 -0.5335 -0.1202
 2212EOH      H 8853   2.504   0.052   2.242  0.7697 -1.3668  0.1220
 2213EOH      O 8854   1.355   2.016   5.473  0.3518 -0.3758  0.2597
 2213EOH      C 8855   1.404   2.082   5.356 -0.2184 -0.2761  0.0762
 2213EOH      C 8856   1.308   2.064   5.237 -0.2828  0.1473  0.0615
 2213EOH      H 8857   1.433   1.977   5.511 -0.2432 -1.6697  0.1873
 2214EOH      O 8858   3.267   3.554   0.943  0.0695  0.2544  0.1761
 2214EOH      C 8859   3.227   3.687   0.909 -0.1153  0.2114  0.2181
 2214EOH      C 8860   3.204   3.678   0.757  0.2693 -0.1839  0.1798
 2214EOH      H 8861   3.192   3.500   0.965 -0.9500  1.0411 -1.2777
 2215EOH      O 8862   2.644   1.031   1.853  0.0800 -0.3276  0.0173
 2215EOH      C 8863   2.547   1.006   1.955  0.1549  0.4581  0.2845
 2215EOH      C 8864   2.628   1.003   2.086 -0.2625 -0.4176  0.5258
 2215EOH      H 8865   2.609   1.006   1.769  0.0084 -1.5517  0.3980
 2216EOH      O 8866   3.601   1.245   2.088  0.4459  0.2372 -0.3081
 2216EOH      C 8867   3.624   1.115   2.031  0.3218  0.2379 -0.3598
 2216EOH      C 8868   3.682   1.127   1.889  0.7468  0.6454 -0.1545
 2216EOH      H 8869   3.568   1.237   2.176  0.3773  0.8980 -0.2730
 2217EOH      O 8870   4.498   5.231   4.172  0.2221 -0.3480 -0.1152
 2217EOH      C 8871   4.537   5.131   4.267 -0.1081  0.1551  0.5535
 2217EOH      C 8872   4.677   5.083   4.227 -0.1487  0.3234  0.2073
 2217EOH      H 8873   4.404   5.229   4.166  0.1371  2.6554 -0.6952
 2218EOH      O 8874   5.696   0.957   1.832  0.0756 -0.4596  0.4352
 2218EOH      C 8875   5.760   0.892   1.723 -0.0204 -0.0660  0.1451
 2218EOH      C 8876   5.913   0.902   1.737 -0.0355 -0.0759  0.3111
 2218EOH      H 8877   5.618   0.904   1.840 -0.0145 -0.1660  1.6701
 2219EOH      O 8878   4.637   0.886   2.810  0.0376 -0.1632 -0.0776
 2219EOH      C 8879   4.543   0.826   2.721 -0.4186  0.0386  0.2700
 2219EOH      C 8880   4.604   0.695   2.668  0.3549  0.4778  0.0760
 2219EOH      H 8881   4.695   0.942   2.761 -0.5039 -1.0379 -1.7693
 2220EOH      O 8882   0.578   2.763   4.047  0.0327  0.0887  0.0126
 2220EOH      C 8883   0.699   2.780   3.973  0.2197 -0.2503  0.2367
 2220EOH      C 8884   0.810   2.697   4.040  0.1264  0.1214  0.8477
 2220EOH      H 8885   0.510   2.792   3.989  1.2641 -0.6172 -1.8181
 2221EOH      O 8886   3.911   0.839   1.123 -0.0917 -0.4057  0.1970
 2221EOH      C 8887   4.044   0.889   1.111 -0.0346 -0.5112  0.3919
 2221EOH      C 8888   4.123   0.820   0.999  0.1361  0.0583  0.1604
 2221EOH      H 8889   3.858   0.907   1.083  2.4499  1.4391 -0.1179
 2222EOH      O 8890   2.054   3.870   0.799 -0.4854 -0.1046  0.0286
 2222EOH      C 8891   1.918   3.833   0.775 -0.3853 -0.5260  0.1004
 2222EOH      C 8892   1.839   3.844   0.907  0.3771 -0.6306  0.5665
 2222EOH      H 8893   2.098   3.886   0.717  2.2370  1.3646  1.6947
 2223EOH      O 8894   4.604   5.601   3.264 -0.2082 -0.1326 -0.0469
 2223EOH      C 8895   4.731   5.556   3.216 -0.3322 -0.1124 -0.3905
 2223EOH      C 8896   4.851   5.652   3.226 -0.2554 -0.3132  0.6098
 2223EOH      H 8897   4.600   5.595   3.358 -2.8455  1.1544 -0.0385
 2224EOH      O 8898   1.553   1.168   2.947  0.2365 -0.3713 -0.0979
 2224EOH      C 8899   1.518   1.118   2.817  0.1596 -0.3676 -0.0795
 2224EOH      C 8900   1.518   1.241   2.724 -0.2625 -0.2857  0.0311
 2224EOH      H 8901   1.556   1.093   3.004 -0.9096  1.2049  2.1159
 2225EOH      O 8902   2.466   1.022   2.814  0.2561 -0.2455 -0.2352
 2225EOH      C 8903   2.522   1.016   2.683  0.3049  0.3215 -0.2392
 2225EOH      C 8904   2.644   1.106   2.657  0.3576  0.4486  0.4410
 2225EOH      H 8905   2.373   1.034   2.801 -0.0009 -2.6110 -0.9051
 2226EOH      O 8906   0.367   6.123   4.986 -0.1084  0.1748  0.2837
 2226EOH      C 8907   0.244   6.051   4.990  0.0242 -0.0783 -0.0815
 2226EOH      C 8908   0.194   6.059   4.845 -0.1229 -0.4470 -0.0505
 2226EOH      H 8909   0.407   6.120   4.900  0.0986  0.5024  0.3670
 2227EOH      O 8910   4.528   2.979   5.254  0.0798 -0.1609 -0.4192
 2227EOH      C 8911   4.407   2.909   5.282 -0.0052  0.0739 -0.1970
 2227EOH      C 8912   4.314   2.898   5.160  0.0686  0.1039 -0.2562
 2227EOH      H 8913   4.555   3.011   5.339  3.2525  2.6945 -2.3783
 2228EOH      O 8914   5.446   3.494   2.900  0.3043  0.4420  0.2091
 2228EOH      C 8915   5.351   3.443   2.994  0.3496 -0.4074 -0.2065
 2228EOH      C 8916   5.215   3.513   2.971  0.3622 -0.5781 -0.8105
 2228EOH      H 8917   5.534   3.482   2.932 -0.1306  1.7010  1.9619
 2229EOH      O 8918   0.816   4.997   1.703  0.2982  0.3738 -0.0610
 2229EOH      C 8919   0.917   4.926   1.631  0.2728  0.1713  0.1004
 2229EOH      C 8920   1.032   4.880   1.723  0.2601  0.1114  0.0864
 2229EOH      H 8921   0.767   5.032   1.631 -0.3417 -0.4408 -0.0266
 2230EOH      O 8922   0.351   3.832   2.038 -0.0252 -0.4220  0.4816
 2230EOH      C 8923   0.226   3.874   2.095 -0.1977 -0.1627 -0.0820
 2230EOH      C 8924   0.170   3.763   2.187 -0.3287 -0.2459 -0.2616
 2230EOH      H 8925   0.413   3.877   2.094 -0.9904  3.1461 -1.1978
 2231EOH      O 8926   2.038   2.806   0.205  0.3887 -0.3447 -0.4864
 2231EOH      C 8927   2.127   2.783   0.315 -0.0453  0.2014 -0.0160
 2231EOH      C 8928   2.222   2.672   0.265  0.3043  0.3985  0.2125
 2231EOH      H 8929   2.078   2.866   0.143 -0.6068 -1.1781 -1.9321
 2232EOH      O 8930   1.832   3.412   2.889 -0.0755 -0.5448 -0.4771
 2232EOH      C 8931   1.788   3.485   2.774 -0.0614  0.4655  0.1571
 2232EOH      C 8932   1.912   3.571   2.743 -0.1540  0.1537 -1.1136
 2232EOH      H 8933   1.858   3.324   2.868 -0.6999 -0.8471  0.0135
 2233EOH      O 8934   5.137   4.391   0.847 -0.8135 -0.2546  0.1974
 2233EOH      C 8935   5.226   4.440   0.947 -0.5290  0.0694 -0.2174
 2233EOH      C 8936   5.148   4.417   1.077  0.6056  0.7289  0.5865
 2233EOH      H 8937   5.126   4.463   0.787  2.1261  1.3697  1.5384
 2234EOH      O 8938   4.273   1.824   3.219 -0.2603  0.1571 -0.0024
 2234EOH      C 8939   4.158   1.873   3.151 -0.1570  0.1302 -0.1942
 2234EOH      C 8940   4.026   1.811   3.200  0.2329 -0.2939  0.3099
 2234EOH      H 8941   4.347   1.848   3.164  0.5385  0.5541  1.2196
 2235EOH      O 8942   0.643   3.730   2.175 -0.2853  0.1058 -0.0365
 2235EOH      C 8943   0.758   3.667   2.118 -0.1600  0.1207  0.1993
 2235EOH      C 8944   0.787   3.518   2.143 -0.3962  0.0678  0.1545
 2235EOH      H 8945   0.569   3.675   2.195 -1.6690  1.7825 -0.4672
 2236EOH      O 8946   3.882   1.900   4.798 -0.3797  0.3277  0.5631
 2236EOH      C 8947   3.758   1.893   4.728  0.1799 -0.4146 -0.3763
 2236EOH      C 8948   3.752   1.799   4.607 -0.1929 -0.2014 -0.5243
 2236EOH      H 8949   3.927   1.976   4.766  0.7605 -1.1215 -1.3759
 2237EOH      O 8950   1.186   2.804   6.267  0.0308 -0.7584 -0.1405
 2237EOH      C 8951   1.096   2.841   6.372  0.1340 -0.0932 -0.2854
 2237EOH      C 8952   0.984   2.938   6.329  0.0065  0.1297  0.5393
 2237EOH      H 8953   1.270   2.818   6.308 -0.9732 -1.5773  2.3278
 2238EOH      O 8954   2.117   2.362   3.161  0.3867 -0.0523  0.1530
 2238EOH      C 8955   2.054   2.375   3.289 -0.0894 -0.6488 -0.0147
 2238EOH      C 8956   1.941   2.272   3.303 -0.2957 -0.3753  0.3462
 2238EOH      H 8957   2.051   2.343   3.097 -0.1360 -1.5275  1.0890
 2239EOH      O 8958   1.110   0.271   2.105 -0.1369  0.1333 -0.3565
 2239EOH      C 8959   1.182   0.371   2.033 -0.0825  0.4073  0.0768
 2239EOH      C 8960   1.192   0.333   1.884 -0.1245  0.5053  0.0485
 2239EOH      H 8961   1.154   0.269   2.189 -1.8881  0.5019  0.6025
 2240EOH      O 8962   2.970   5.572   5.534  0.5633  0.2540  0.7283
 2240EOH      C 8963   2.869   5.509   5.615  0.2883 -0.3114 -0.0434
 2240EOH      C 8964   2.911   5.506   5.763  0.3789  1.1075 -0.0334
 2240EOH      H 8965   3.042   5.511   5.541 -0.8595 -1.6028 -0.1071
 2241EOH      O 8966   4.161   3.356   3.154 -0.3191 -0.0295 -0.0064
 2241EOH      C 8967   4.076   3.337   3.041 -0.1457 -0.2702 -0.0983
 2241EOH      C 8968   4.101   3.418   2.913 -0.1969 -0.4052 -0.1939
 2241EOH      H 8969   4.100   3.372   3.225 -0.3747  1.9227 -0.4694
 2242EOH      O 8970   4.292   5.679   4.520 -0.0606  0.1945  0.2021
 2242EOH      C 8971   4.431   5.687   4.486 -0.0395 -0.2301  0.1864
 2242EOH      C 8972   4.487   5.544   4.478  0.0770 -0.1502 -0.4167
 2242EOH      H 8973   4.241   5.743   4.471  2.1222  0.0660 -2.3356
 2243EOH      O 8974   5.239   1.335   2.875  0.1660  0.1583  0.2733
 2243EOH      C 8975   5.369   1.392   2.863  0.1754  0.1670  0.4219
 2243EOH      C 8976   5.406   1.476   2.987 -0.5917  0.1961  0.6332
 2243EOH      H 8977   5.242   1.271   2.945  0.3932 -1.5829 -1.3159
 2244EOH      O 8978   5.256   4.779   4.199 -0.0775  0.6941  0.4282
 2244EOH      C 8979   5.355   4.861   4.262  0.5411  0.4805 -0.2538
 2244EOH      C 8980   5.334   4.848   4.414 -0.3103  0.1504 -0.3939
 2244EOH      H 8981   5.277   4.786   4.107  0.8027 -0.4670  0.5197
 2245EOH      O 8982   0.662   5.282   2.744  0.3709  0.2350 -0.0748
 2245EOH      C 8983   0.716   5.373   2.840  0.5670 -0.6259  0.6438
 2245EOH      C 8984   0.779   5.491   2.764 -0.5099 -0.5005 -0.0685
 2245EOH      H 8985   0.622   5.212   2.795 -0.9635  2.0713  1.4801
 2246EOH      O 8986   0.425   0.181   0.911 -0.0187 -0.6268  0.0064
 2246EOH      C 8987   0.354   0.071   0.969 -0.5937 -0.1799  0.1543
 2246EOH      C 8988   0.388  -0.051   0.882  0.6077  0.2836 -0.0360
 2246EOH      H 8989   0.357   0.244   0.891  1.1527  0.7896  0.4283
 2247EOH      O 8990   4.560   2.973   4.396  0.4441  0.0600 -0.2882
 2247EOH      C 8991   4.546   2.848   4.463 -0.0865  0.0535 -0.4083
 2247EOH      C 8992   4.398   2.817   4.491  0.0484 -0.3492 -0.1276
 2247EOH      H 8993   4.603   3.032   4.455 -0.3884 -0.0984  0.4855
 2248EOH      O 8994   5.437   0.354   5.071 -0.5781 -0.1577 -0.2652
 2248EOH      C 8995   5.446   0.417   4.943  0.5834 -0.6447 -0.4274
 2248EOH      C 8996   5.389   0.311   4.847 -0.3445 -0.3869 -0.1585
 2248EOH      H 8997   5.513   0.299   5.080  0.1848  0.9924  0.4602
 2249EOH      O 8998   3.201   0.165   3.127 -0.2659  1.1098  0.5661
 2249EOH      C 8999   3.332   0.187   3.179  0.1017 -0.1227  0.1866
 2249EOH      C 9000   3.349   0.311   3.270  0.5116  0.0862 -0.1704
 2249EOH      H 9001   3.192   0.198   3.039  0.2090  0.3481  0.2228
 2250EOH      O 9002   2.433   1.610   1.506 -0.3239  0.8131  0.2583
 2250EOH      C 9003   2.421   1.490   1.583 -0.1169  0.7441  0.1839
 2250EOH      C 9004   2.559   1.427   1.607 -0.3261 -0.0841 -0.7846
 2250EOH      H 9005   2.470   1.581   1.425  0.2038  0.6328  0.5610
 2251EOH      O 9006   2.938   2.545   2.723 -0.7092 -0.2930 -0.1401
 2251EOH      C 9007   2.863   2.650   2.660 -0.4654 -0.0927 -0.1006
 2251EOH      C 9008   2.772   2.704   2.771  0.2696  0.4961  0.2172
 2251EOH      H 9009   2.891   2.466   2.706  1.0855 -1.5021  0.3758
 2252EOH      O 9010   1.285   4.689   5.246 -0.2726 -0.0845 -0.0845
 2252EOH      C 9011   1.353   4.563   5.238 -0.6732 -0.3231  0.2370
 2252EOH      C 9012   1.349   4.510   5.094  0.4621  0.2819 -0.0183
 2252EOH      H 9013   1.221   4.673   5.314 -1.1017  1.1547 -0.5541
 2253EOH      O 9014   6.231   5.328   5.531  0.5004  0.3391  0.3135
 2253EOH      C 9015   6.363   5.381   5.525  0.7146 -0.2479 -0.1496
 2253EOH      C 9016   6.448   5.293   5.431 -0.0410 -0.7160 -0.3980
 2253EOH      H 9017   6.190   5.394   5.585  0.0068  0.6208 -0.4013
 2254EOH      O 9018   3.964   2.319   2.773 -0.1388 -0.0080 -0.0842
 2254EOH      C 9019   3.889   2.440   2.789  0.2569  0.2184  0.0593
 2254EOH      C 9020   3.850   2.460   2.937 -0.2552  0.1967 -0.0716
 2254EOH      H 9021   3.906   2.248   2.753  1.9807 -1.3107 -1.8030
 2255EOH      O 9022   0.374   2.801   3.932  0.2590  0.3594 -0.2936
 2255EOH      C 9023   0.270   2.884   3.983  0.0752  0.0372 -0.1417
 2255EOH      C 9024   0.158   2.906   3.880 -0.0595 -0.2472 -0.0542
 2255EOH      H 9025   0.335   2.722   3.899  1.1790  0.2227 -1.0754
 2256EOH      O 9026   0.404   1.638   1.743  0.2968  0.4009 -0.1041
 2256EOH      C 9027   0.515   1.679   1.661  0.3635 -0.2133 -0.3323
 2256EOH      C 9028   0.645   1.619   1.717  0.0135 -0.3639  0.3262
 2256EOH      H 9029   0.354   1.715   1.763 -0.5903 -1.0881  3.7920
 2257EOH      O 9030   0.184   1.780   1.018 -0.2776 -0.1714 -0.0692
 2257EOH      C 9031   0.257   1.718   0.911 -0.1941 -0.7124  0.2988
 2257EOH      C 9032   0.379   1.646   0.972  0.3518 -0.5127 -0.5601
 2257EOH      H 9033   0.147   1.860   0.985  0.8746  0.4183  0.0276
 2258EOH      O 9034   3.532   1.590   0.938 -0.0118 -0.2716  0.3625
 2258EOH      C 9035   3.491   1.458   0.973  0.0556 -0.3318  0.2170
 2258EOH      C 9036   3.438   1.479   1.116  0.0733 -0.2236  0.2077
 2258EOH      H 9037   3.474   1.617   0.868  0.1827 -0.2213  0.2178
 2259EOH      O 9038   1.610   1.648   2.930  0.2078  0.0668 -0.2412
 2259EOH      C 9039   1.478   1.625   2.881  0.0635  1.0261 -0.3087
 2259EOH      C 9040   1.484   1.591   2.731 -0.2519 -0.2860 -0.0275
 2259EOH      H 9041   1.651   1.566   2.953 -0.5484 -0.3648 -0.4104
 2260EOH      O 9042   2.673   3.878   5.019 -0.2566  0.5937 -0.4613
 2260EOH      C 9043   2.589   3.821   5.119  0.1665  0.1898 -0.3375
 2260EOH      C 9044   2.551   3.678   5.076 -0.6729  0.4315 -0.3913
 2260EOH      H 9045   2.751   3.825   5.026 -0.4397  0.4261  0.2943
 2261EOH      O 9046   5.434   5.011   2.473  0.0029  0.0827 -0.2144
 2261EOH      C 9047   5.405   5.036   2.335  0.1173 -0.0622 -0.2647
 2261EOH      C 9048   5.417   4.908   2.250 -0.5350  0.0171 -0.4805
 2261EOH      H 9049   5.348   4.992   2.509  1.0870 -1.7264  1.5701
 2262EOH      O 9050   3.958   2.806   0.450  0.5617 -0.3791  0.5892
 2262EOH      C 9051   4.024   2.787   0.324  0.0248  0.3497  0.1919
 2262EOH      C 9052   3.925   2.800   0.206  0.5792 -0.1094 -0.3238
 2262EOH      H 9053   3.971   2.893   0.484 -0.6835  0.2556 -0.4886
 2263EOH      O 9054   1.491   0.528   5.382  0.2707  0.4878  0.1947
 2263EOH      C 9055   1.490   0.451   5.262 -0.0885  0.4812  0.2023
 2263EOH      C 9056   1.600   0.343   5.271 -0.3432  0.2619  0.7357
 2263EOH      H 9057   1.462   0.466   5.447  0.3027  0.8490  0.5610
 2264EOH      O 9058   0.818   0.029   0.254 -0.0824 -0.0269 -0.3623
 2264EOH      C 9059   0.898   0.144   0.225 -0.0664  0.1792  0.4946
 2264EOH      C 9060   0.828   0.272   0.273  0.1018  0.4899 -0.0887
 2264EOH      H 9061   0.864  -0.044   0.216 -0.5956  0.1411 -1.3468
 2265EOH      O 9062   0.006   4.556   2.420  0.9921  0.8083  0.2579
 2265EOH      C 9063   0.020   4.505   2.553 -0.5822 -0.3905 -0.0136
 2265EOH      C 9064   0.170   4.478   2.575 -0.4184  0.3095 -0.2551
 2265EOH      H 9065  -0.056   4.627   2.429 -0.9593 -0.4835 -2.0581
 2266EOH      O 9066   3.969   3.881   4.308  0.0151 -0.2874 -0.1992
 2266EOH      C 9067   4.098   3.920   4.262 -0.0340  0.1028 -0.0123
 2266EOH      C 9068   4.182   3.973   4.380  0.4243 -0.3364 -0.1373
 2266EOH      H 9069   3.954   3.806   4.253 -1.2530 -1.2396  1.3843
 2267EOH      O 9070   0.079   2.986   4.469 -0.4602  0.7899  0.3907
 2267EOH      C 9071   0.187   2.996   4.376 -0.4585  0.0406  0.3121
 2267EOH      C 9072   0.183   3.123   4.290 -0.3762 -0.0708  0.1430
 2267EOH      H 9073   0.006   2.942   4.428  0.0815  0.5283 -0.2903
 2268EOH      O 9074   1.835   5.030   3.508 -0.2952  0.4286  0.0358
 2268EOH      C 9075   1.948   5.080   3.578 -0.0234  0.0810 -0.1503
 2268EOH      C 9076   1.944   5.234   3.589  0.2004  0.0964 -0.2787
 2268EOH      H 9077   1.846   4.936   3.502 -2.7437  0.0969  0.1388
 2269EOH      O 9078   4.147   6.305   4.182 -0.0148 -0.3516  0.2499
 2269EOH      C 9079   4.036   6.324   4.093  0.2965 -0.0711 -0.0804
 2269EOH      C 9080   3.948   6.415   4.181  0.9311  0.4858 -0.0168
 2269EOH      H 9081   4.215   6.294   4.117 -0.1078 -1.0610  0.2664
 2270EOH      O 9082   6.136   2.496   2.391 -0.4677  0.4710  0.1118
 2270EOH      C 9083   6.156   2.613   2.472  0.4306 -0.0855  0.7057
 2270EOH      C 9084   6.284   2.609   2.556  0.6674  1.2765  0.4249
 2270EOH      H 9085   6.079   2.516   2.319 -0.4802 -0.6855 -0.2087
 2271EOH      O 9086   5.827   5.282   5.507 -0.4246  0.7391  0.0487
 2271EOH      C 9087   5.719   5.300   5.415 -0.5839 -0.4074 -0.0045
 2271EOH      C 9088   5.665   5.160   5.382 -0.4379 -0.5722  0.4520
 2271EOH      H 9089   5.905   5.249   5.466  1.0366 -0.6583  3.7594
 2272EOH      O 9090   4.905   5.709   4.755 -0.3536 -0.0544  0.1454
 2272EOH      C 9091   4.820   5.800   4.684 -0.1278 -0.0831 -0.1653
 2272EOH      C 9092   4.778   5.906   4.787 -0.0845 -0.3032  0.0776
 2272EOH      H 9093   4.872   5.628   4.718 -2.8110  0.1480  1.8041
 2273EOH      O 9094   5.582   2.721   4.866 -0.2115  0.3733  0.1837
 2273EOH      C 9095   5.669   2.635   4.792  0.0898  0.9974 -0.1883
 2273EOH      C 9096   5.595   2.560   4.680 -0.0859 -0.0567  0.6284
 2273EOH      H 9097   5.506   2.666   4.879 -0.0021 -0.7096 -2.8469
 2274EOH      O 9098   5.637   4.897   0.644 -0.1776 -0.0022  0.5503
 2274EOH      C 9099   5.777   4.889   0.671 -0.1052  0.6413  0.3819
 2274EOH      C 9100   5.853   4.989   0.581 -0.5281  0.4527 -0.1894
 2274EOH      H 9101   5.636   4.888   0.550 -0.9348 -0.3988  0.5893
 2275EOH      O 9102   3.928   4.673   0.938  0.1086  0.4965  0.1359
 2275EOH      C 9103   3.880   4.748   1.049 -0.1430  0.1935  0.2332
 2275EOH      C 9104   3.911   4.898   1.031 -0.4597  0.2485  0.1453
 2275EOH      H 9105   3.865   4.605   0.921 -0.3489  1.3470 -1.7015
 2276EOH      O 9106   0.611   5.636   5.409  0.2442 -0.1190 -0.1470
 2276EOH      C 9107   0.602   5.744   5.316 -0.0615  0.1950  0.2456
 2276EOH      C 9108   0.699   5.713   5.200 -0.0783  0.2641  0.2138
 2276EOH      H 9109   0.641   5.664   5.494  2.8027  1.2540 -1.4493
 2277EOH      O 9110   5.598   3.993   0.448 -0.0264  0.3816  0.4524
 2277EOH      C 9111   5.487   4.061   0.507 -0.1889  0.0012  0.5816
 2277EOH      C 9112   5.515   4.093   0.655  0.3059  0.0574  0.4763
 2277EOH      H 9113   5.614   3.926   0.512 -0.1019 -0.8717 -0.8278
 2278EOH      O 9114   2.300   5.792   3.855 -0.4295  0.0506  0.0053
 2278EOH      C 9115   2.321   5.924   3.908 -0.1510  0.0989 -0.2218
 2278EOH      C 9116   2.459   5.980   3.872 -0.0185  0.2703  0.5513
 2278EOH      H 9117   2.215   5.771   3.890 -0.5542  2.4179  1.2500
 2279EOH      O 9118   0.216   1.254   3.737  0.6519  0.0930  0.5687
 2279EOH      C 9119   0.300   1.248   3.621 -0.2579 -0.2557 -0.0783
 2279EOH      C 9120   0.444   1.293   3.651 -0.1757 -0.3108 -0.3982
 2279EOH      H 9121   0.241   1.324   3.796 -0.4517  1.2956 -0.3463
 2280EOH      O 9122   4.038   1.814   4.999 -0.0535  0.4280  0.0968
 2280EOH      C 9123   4.140   1.914   5.001 -0.0162  0.3790  0.5647
 2280EOH      C 9124   4.223   1.940   4.875  0.1395 -0.2811  0.5270
 2280EOH      H 9125   3.978   1.834   4.928  0.9033  3.4635  0.0923
 2281EOH      O 9126   2.944   5.864   1.226 -0.0506  0.7057 -0.0853
 2281EOH      C 9127   2.944   5.823   1.363 -0.0165  1.0386  0.0124
 2281EOH      C 9128   3.062   5.729   1.392 -0.1835  0.7692 -0.1761
 2281EOH      H 9129   2.948   5.958   1.228  0.7818  0.6851 -0.3429
 2282EOH      O 9130   3.450   3.872   3.228  0.1135  0.8420  0.3322
 2282EOH      C 9131   3.327   3.884   3.157  0.3391 -0.1368 -0.2301
 2282EOH      C 9132   3.297   4.035   3.148  0.0048 -0.2309 -0.7243
 2282EOH      H 9133   3.504   3.946   3.205 -1.1108  1.6677  0.0939
 2283EOH      O 9134   5.935   4.417   0.855  0.2618  0.1350  0.2447
 2283EOH      C 9135   6.012   4.425   0.976 -0.1132 -0.2574  0.5155
 2283EOH      C 9136   5.996   4.572   1.021 -0.7293 -0.2070  0.1360
 2283EOH      H 9137   5.844   4.403   0.878  0.1972 -0.6573 -0.4732
 2284EOH      O 9138   4.743   6.180   4.402 -0.1096 -0.6177 -0.0952
 2284EOH      C 9139   4.866   6.148   4.336 -0.0921 -0.2111 -0.2607
 2284EOH      C 9140   4.890   6.222   4.203 -0.7327 -0.2862 -0.4194
 2284EOH      H 9141   4.668   6.156   4.349  1.7871  0.7123 -3.4844
 2285EOH      O 9142   1.369   0.669   3.992  0.1215  0.0770  0.4710
 2285EOH      C 9143   1.304   0.566   3.917  0.0082  0.3402  0.2066
 2285EOH      C 9144   1.251   0.637   3.791 -0.0433  0.9275  0.5559
 2285EOH      H 9145   1.331   0.671   4.079  1.5882  1.8529  1.1074
 2286EOH      O 9146   4.393   5.959   5.637  0.2997 -0.1405 -0.1556
 2286EOH      C 9147   4.473   5.884   5.729  0.2961  0.0303 -0.0150
 2286EOH      C 9148   4.480   5.961   5.862 -0.2806 -0.0468  0.0621
 2286EOH      H 9149   4.448   6.020   5.590 -0.6187 -0.1144 -1.2435
 2287EOH      O 9150   5.476   6.009   0.901  0.1380 -0.2020  0.2740
 2287EOH      C 9151   5.570   6.117   0.908 -0.4491  0.3721 -0.6358
 2287EOH      C 9152   5.564   6.162   1.055 -0.1912 -0.2292 -0.4415
 2287EOH      H 9153   5.442   5.981   0.985  2.9208 -0.2989  1.4071
 2288EOH      O 9154   5.208   4.220   0.681 -0.7783  0.2597  0.2499
 2288EOH      C 9155   5.198   4.280   0.552 -0.3813  0.3726  0.2702
 2288EOH      C 9156   5.056   4.264   0.493 -0.2079  0.5400 -0.1952
 2288EOH      H 9157   5.191   4.290   0.743  2.3151  0.5261  0.8571
 2289EOH      O 9158   2.205   2.828   4.949 -0.1499 -0.1047  1.0382
 2289EOH      C 9159   2.295   2.931   4.992 -0.0739  0.3303 -0.1432
 2289EOH      C 9160   2.229   3.058   4.937 -0.4156  0.0258 -0.4424
 2289EOH      H 9161   2.204   2.828   4.855  0.6903 -0.7879  1.0327
 2290EOH      O 9162   1.961   2.174   2.180  1.2240 -0.0580 -0.1294
 2290EOH      C 9163   2.001   2.111   2.058 -0.0191  0.1074 -0.6292
 2290EOH      C 9164   1.990   1.958   2.064 -0.1215  0.1438  0.2524
 2290EOH      H 9165   1.968   2.116   2.254 -0.0793 -1.2252 -0.8959
 2291EOH      O 9166   1.654   1.477   5.543  0.0714 -0.4097 -0.0106
 2291EOH      C 9167   1.639   1.507   5.404  0.3195  0.5593  0.1699
 2291EOH      C 9168   1.716   1.639   5.384  0.5097  0.3868 -0.2198
 2291EOH      H 9169   1.743   1.451   5.559 -0.1095 -1.1734 -0.2210
 2292EOH      O 9170   0.378   4.793   2.073 -0.2049 -0.0476 -0.2099
 2292EOH      C 9171   0.364   4.782   1.932  0.0431 -0.0656 -0.2332
 2292EOH      C 9172   0.483   4.849   1.860  0.4384 -0.3694  0.1438
 2292EOH      H 9173   0.352   4.713   2.116  1.7190  0.7148  2.5575
 2293EOH      O 9174   1.630   1.558   1.511 -0.6196  0.1338  0.4551
 2293EOH      C 9175   1.641   1.583   1.652  0.1809 -0.5690  0.5199
 2293EOH      C 9176   1.501   1.617   1.704 -0.1003 -0.1216 -0.5107
 2293EOH      H 9177   1.622   1.465   1.499  1.4628 -0.2693  1.8725
 2294EOH      O 9178   3.618   5.180   1.282 -0.9135  0.2044  0.0211
 2294EOH      C 9179   3.671   5.313   1.283 -0.7772  0.1482  0.5988
 2294EOH      C 9180   3.819   5.330   1.319 -0.6187  0.0399  0.0002
 2294EOH      H 9181   3.525   5.195   1.273 -0.8281  0.6706 -0.0848
 2295EOH      O 9182   5.245   2.097   6.244  0.6802 -0.1358 -0.1971
 2295EOH      C 9183   5.243   1.990   6.149  0.3795  0.1779 -0.5446
 2295EOH      C 9184   5.391   1.957   6.127  0.2763 -0.4344 -0.3182
 2295EOH      H 9185   5.263   2.061   6.329 -0.2208  1.5093  0.7212
 2296EOH      O 9186   2.145   3.946   0.567 -0.3215  0.0921 -0.1144
 2296EOH      C 9187   2.255   4.030   0.603  0.0132 -0.2626 -0.3041
 2296EOH      C 9188   2.253   4.144   0.500 -0.6997 -0.0475 -0.0525
 2296EOH      H 9189   2.165   3.904   0.485 -0.5760 -0.4795  0.1085
 2297EOH      O 9190   1.278   2.448   3.987  0.2421 -0.0303  0.2144
 2297EOH      C 9191   1.176   2.492   4.078  0.3906 -0.0388  0.3858
 2297EOH      C 9192   1.133   2.370   4.162  0.0617 -0.0086  0.2630
 2297EOH      H 9193   1.353   2.405   4.024 -1.0412 -0.0432  3.0288
 2298EOH      O 9194   5.761   2.021   0.828  0.3212  0.2201  0.7922
 2298EOH      C 9195   5.883   1.950   0.856  0.2741 -0.0339  0.3520
 2298EOH      C 9196   5.918   1.864   0.733  0.5424  0.0745  0.3525
 2298EOH      H 9197   5.788   2.100   0.784  0.3099 -0.6714 -0.8419
 2299EOH      O 9198   5.837   5.330   5.858 -0.2228  0.2352  0.1464
 2299EOH      C 9199   5.753   5.442   5.830 -0.4209 -0.1104 -0.6439
 2299EOH      C 9200   5.611   5.412   5.882 -0.2294 -0.2807 -0.2196
 2299EOH      H 9201   5.798   5.252   5.823 -1.0305  0.5847  0.2658
 2300EOH      O 9202   5.951   1.411   0.191  0.3692  0.2921 -0.8390
 2300EOH      C 9203   5.868   1.341   0.098 -0.8205  0.3258  0.1800
 2300EOH      C 9204   5.870   1.422  -0.034 -0.2410 -0.3350 -0.2221
 2300EOH      H 9205   5.888   1.434   0.257  0.7024  1.6891 -1.0104
 2301EOH      O 9206   3.960   1.857   0.512  0.3612  0.7632 -0.3815
 2301EOH      C 9207   3.895   1.976   0.557 -0.1493  0.3641 -0.0558
 2301EOH      C 9208   3.745   1.941   0.547 -0.0801 -0.0521  0.3548
 2301EOH      H 9209   3.974   1.873   0.420  0.4953  1.8476 -0.1761
 2302EOH      O 9210   1.241   5.987   5.828 -0.1839 -0.6150 -0.8358
 2302EOH      C 9211   1.222   5.855   5.879 -0.3098 -0.2207  0.1533
 2302EOH      C 9212   1.112   5.860   5.986 -0.0577 -0.1009  0.4059
 2302EOH      H 9213   1.276   5.993   5.740  1.1254 -0.3168 -0.3091
 2303EOH      O 9214   0.769   3.394   5.421  0.5563  0.4511 -0.4175
 2303EOH      C 9215   0.910   3.406   5.441  0.5078  0.0819  0.1543
 2303EOH      C 9216   0.940   3.471   5.577  0.6264  0.2951  0.0266
 2303EOH      H 9217   0.753   3.402   5.328  0.1305 -2.0585 -0.5998
 2304EOH      O 9218   0.960   1.925   0.567  0.3668 -0.2060  0.4656
 2304EOH      C 9219   0.896   1.990   0.678 -0.0706  0.4236 -0.1503
 2304EOH      C 9220   0.751   1.993   0.626  0.0198 -0.3429 -0.4578
 2304EOH      H 9221   1.013   1.856   0.604 -0.1297 -1.9200 -1.9595
 2305EOH      O 9222   4.958   1.471   3.701  0.1952 -0.6770  0.3223
 2305EOH      C 9223   4.970   1.385   3.588 -0.4555 -0.4148  0.0491
 2305EOH      C 9224   4.832   1.358   3.526 -0.6611 -0.0355  0.3406
 2305EOH      H 9225   5.042   1.502   3.731  0.3032  0.0635 -0.7038
 2306EOH      O 9226   2.891   0.753   0.965 -0.3388  0.2830 -0.5395
 2306EOH      C 9227   2.899   0.895   0.980  0.3541  0.2141 -0.2205
 2306EOH      C 9228   2.855   0.931   1.124 -0.5961  0.5250 -0.5827
 2306EOH      H 9229   2.934   0.721   0.888  0.2327 -0.5510  0.1141
 2307EOH      O 9230   5.372   1.214   5.586  0.0265  0.2523 -0.0925
 2307EOH      C 9231   5.291   1.200   5.703  0.1386  0.4628  0.0116
 2307EOH      C 9232   5.146   1.230   5.660  0.0428  0.5596  0.4026
 2307EOH      H 9233   5.459   1.216   5.623  0.3180  3.7553 -0.8015
 2308EOH      O 9234   6.282   2.488   1.482 -0.1566 -0.1855 -0.3808
 2308EOH      C 9235   6.249   2.452   1.616 -0.0100 -0.0376 -0.3051
 2308EOH      C 9236   6.109   2.509   1.643  0.2158  0.4318 -0.1171
 2308EOH      H 9237   6.376   2.494   1.477  0.0226 -0.7423  1.8020
 2309EOH      O 9238   1.833   0.350   0.113 -0.4293 -0.4627 -0.0041
 2309EOH      C 9239   1.707   0.361   0.179 -0.3716 -0.1130  0.0503
 2309EOH      C 9240   1.616   0.448   0.089 -0.1920 -0.4053 -0.4177
 2309EOH      H 9241   1.877   0.293   0.174  0.7318  0.1636 -0.2325
 2310EOH      O 9242   0.386   2.675   5.070 -0.0752  0.0212 -0.0191
 2310EOH      C 9243   0.361   2.784   5.159  0.0264 -0.1910  0.2679
 2310EOH      C 9244   0.211   2.810   5.182 -0.0053  0.0650 -0.2262
 2310EOH      H 9245   0.479   2.671   5.051 -0.3351 -0.9561 -1.1806
 2311EOH      O 9246   2.158   0.982   3.646 -0.1308  0.2727 -0.0421
 2311EOH      C 9247   2.136   0.844   3.676  0.1742  0.2458  0.0627
 2311EOH      C 9248   2.237   0.795   3.782  0.2001  0.1237 -0.0196
 2311EOH      H 9249   2.124   1.011   3.563  0.5691  0.9849 -0.0859
 2312EOH      O 9250   2.771   5.404   1.553 -0.1346  0.2205  0.0257
 2312EOH      C 9251   2.761   5.433   1.414 -0.3775 -0.5437 -0.1161
 2312EOH      C 9252   2.616   5.414   1.365 -0.6635  0.2783  0.4165
 2312EOH      H 9253   2.805   5.317   1.567 -1.3808 -0.1341  1.0282
 2313EOH      O 9254   4.491   3.643   1.517 -0.5415  0.0132 -0.2077
 2313EOH      C 9255   4.575   3.549   1.450 -0.3831 -0.1267  0.1811
 2313EOH      C 9256   4.539   3.404   1.486  0.2299 -0.4283 -0.4136
 2313EOH      H 9257   4.535   3.727   1.515  0.7219 -0.6584 -2.2522
 2314EOH      O 9258   0.581   2.642   6.189  0.3879 -0.0115 -0.5767
 2314EOH      C 9259   0.683   2.741   6.196 -0.3996  0.7656  0.0792
 2314EOH      C 9260   0.731   2.788   6.057 -0.0901  0.2589  0.0115
 2314EOH      H 9261   0.502   2.676   6.150 -0.9032 -1.2568  0.8676
 2315EOH      O 9262   5.699   1.833   2.539  0.0144 -0.4401 -0.1884
 2315EOH      C 9263   5.570   1.879   2.498  0.1285 -0.2490 -0.3361
 2315EOH      C 9264   5.467   1.771   2.535 -0.2434  0.0622 -0.4625
 2315EOH      H 9265   5.710   1.863   2.628 -2.3600 -0.0520 -0.0068
 2316EOH      O 9266   2.189   3.914   3.229 -0.4972  0.2158 -0.0944
 2316EOH      C 9267   2.238   3.918   3.363 -0.0008  0.6795 -0.2862
 2316EOH      C 9268   2.138   3.840   3.451  0.5065  0.5599  0.1906
 2316EOH      H 9269   2.259   3.948   3.175 -0.7058  0.0615 -0.4686
 2317EOH      O 9270   1.171   4.922   0.299 -0.3061 -0.2920  0.1317
 2317EOH      C 9271   1.095   4.831   0.378  0.0728 -0.3080  0.4781
 2317EOH      C 9272   1.138   4.848   0.525  1.3782 -0.5006  0.1246
 2317EOH      H 9273   1.162   4.885   0.212  2.1535 -0.8688  0.0837
 2318EOH      O 9274   1.382   0.397   5.557 -0.2128  0.2276  0.1138
 2318EOH      C 9275   1.403   0.328   5.680  0.2244 -0.1097 -0.1466
 2318EOH      C 9276   1.557   0.324   5.689  0.2268  0.0838 -0.0974
 2318EOH      H 9277   1.296   0.433   5.570 -0.1148 -0.0313  1.5623
 2319EOH      O 9278   3.219   3.148   5.573  0.0082  0.0216  0.3796
 2319EOH      C 9279   3.089   3.088   5.582 -0.5713  1.2410  0.2506
 2319EOH      C 9280   3.038   3.075   5.437  0.3887 -0.3858  0.0518
 2319EOH      H 9281   3.275   3.096   5.628  0.9113 -0.6509 -1.1332
 2320EOH      O 9282   3.836   4.615   5.949  0.5409  0.7032  0.2217
 2320EOH      C 9283   3.818   4.676   5.821  0.1802 -0.2659 -0.1931
 2320EOH      C 9284   3.958   4.707   5.766  0.0154 -0.0158 -0.4694
 2320EOH      H 9285   3.757   4.631   5.997  1.4256  3.3090  0.8692
 2321EOH      O 9286   4.569   2.441   4.339  0.1701 -0.3792  0.1081
 2321EOH      C 9287   4.665   2.386   4.248  0.3778 -0.1758  0.2054
 2321EOH      C 9288   4.604   2.282   4.153 -0.1206  0.2152  0.0979
 2321EOH      H 9289   4.618   2.469   4.415 -1.5091  2.7301  0.1330
 2322EOH      O 9290   2.876   3.034   3.928 -0.1098 -0.8040 -0.0805
 2322EOH      C 9291   2.767   3.123   3.955  0.1559 -0.3371 -0.5402
 2322EOH      C 9292   2.805   3.263   3.903 -0.4030  0.1436  0.3367
 2322EOH      H 9293   2.844   2.951   3.960 -0.8475  0.6410  3.1844
 2323EOH      O 9294   5.215   1.973   1.819 -0.5264 -0.6139 -0.2793
 2323EOH      C 9295   5.253   1.844   1.769 -0.4922 -0.6441 -0.1742
 2323EOH      C 9296   5.239   1.839   1.616 -0.1375  0.1850 -0.2408
 2323EOH      H 9297   5.265   1.988   1.898  1.1870 -0.4898 -1.3620
 2324EOH      O 9298   5.889   1.184   1.082  0.6751 -0.1603  0.4170
 2324EOH      C 9299   5.950   1.095   0.988 -0.3230 -0.3296 -0.0851
 2324EOH      C 9300   5.867   1.114   0.860 -0.0350  0.1280 -0.2073
 2324EOH      H 9301   5.951   1.197   1.151 -0.5610  0.5342  1.4297
 2325EOH      O 9302   0.146   1.017   4.793  0.0160  0.6426 -0.1680
 2325EOH      C 9303   0.286   1.035   4.770  0.0993  0.3823  0.1228
 2325EOH      C 9304   0.358   0.899   4.772 -0.4946  0.0610 -0.0252
 2325EOH      H 9305   0.108   1.101   4.777  1.7900  1.5869  0.4271
 2326EOH      O 9306   0.297   3.361   4.817  0.1903  0.0181 -0.1976
 2326EOH      C 9307   0.329   3.247   4.897  0.1049  0.1319 -0.0017
 2326EOH      C 9308   0.422   3.298   5.009  0.4300 -0.2665 -0.0917
 2326EOH      H 9309   0.214   3.349   4.775 -1.4105  0.5144  2.6824
 2327EOH      O 9310   5.238   0.680   5.163 -0.1371 -0.1324  0.2854
 2327EOH      C 9311   5.276   0.813   5.200  0.0998 -0.1138 -0.0268
 2327EOH      C 9312   5.235   0.841   5.345  0.3570  0.0739  0.0103
 2327EOH      H 9313   5.285   0.616   5.215  2.7499  0.0658 -1.9721
 2328EOH      O 9314   6.207   3.100   5.310  0.1695 -0.2631  0.0432
 2328EOH      C 9315   6.200   3.111   5.168  0.6436 -0.0486  0.0337
 2328EOH      C 9316   6.226   3.259   5.138 -0.2928  0.1541  0.2005
 2328EOH      H 9317   6.128   3.144   5.337 -0.5021 -0.3439 -1.7746
 2329EOH      O 9318   3.516   5.658   1.722 -0.2724  0.7417 -0.3688
 2329EOH      C 9319   3.425   5.693   1.617 -0.5793  0.1838 -0.2884
 2329EOH      C 9320   3.444   5.597   1.498  0.2426  0.1259 -0.1180
 2329EOH      H 9321   3.603   5.660   1.686 -0.2322  3.1993 -0.2411
 2330EOH      O 9322   6.200   6.302   1.754 -0.1207  0.2592  0.7648
 2330EOH      C 9323   6.194   6.170   1.808 -0.0672  0.1324  0.4596
 2330EOH      C 9324   6.316   6.138   1.897  0.0871 -0.1724  0.1411
 2330EOH      H 9325   6.183   6.354   1.831  2.1339  1.5230  0.4695
 2331EOH      O 9326   3.122   2.456   5.144 -0.1630  0.0751  0.2280
 2331EOH      C 9327   3.130   2.314   5.162  0.0834  0.0105 -0.3906
 2331EOH      C 9328   3.266   2.260   5.112  0.0674  0.2957 -0.7492
 2331EOH      H 9329   3.187   2.506   5.191 -0.8675  1.5235 -0.3018
 2332EOH      O 9330   5.193   0.590   2.529  0.1297  0.0283  0.4921
 2332EOH      C 9331   5.080   0.551   2.608 -0.3426  0.2589 -0.0700
 2332EOH      C 9332   4.951   0.596   2.537  0.2097  0.5945 -0.8698
 2332EOH      H 9333   5.273   0.572   2.577  0.0683 -0.8418  0.2804
 2333EOH      O 9334   2.057   0.571   0.926  0.9294  0.1557 -0.3782
 2333EOH      C 9335   2.096   0.691   0.992 -0.4459  0.4014  0.0126
 2333EOH      C 9336   2.002   0.695   1.114 -0.0528  0.3588  0.3179
 2333EOH      H 9337   2.090   0.570   0.837  0.2751  0.5655 -0.6331
 2334EOH      O 9338   0.545   4.991   2.444 -0.3111  0.2964  0.5291
 2334EOH      C 9339   0.630   4.876   2.436  0.0479  0.5590  0.5641
 2334EOH      C 9340   0.687   4.882   2.293 -0.6348  0.3277  0.2799
 2334EOH      H 9341   0.604   5.062   2.465  0.9893 -0.8713  0.9168
 2335EOH      O 9342   1.135   2.097   6.136  0.7079  0.1694 -0.5677
 2335EOH      C 9343   1.068   2.094   6.010 -0.1653  0.0199 -0.1066
 2335EOH      C 9344   1.028   1.946   5.990  0.2984 -0.1612  0.2834
 2335EOH      H 9345   1.175   2.181   6.148 -0.8138  0.7279  0.8015
 2336EOH      O 9346   2.048   3.033   4.611 -0.2852 -0.6857  0.0605
 2336EOH      C 9347   2.052   3.080   4.476  0.1110 -0.6857  0.0718
 2336EOH      C 9348   2.201   3.108   4.445  0.0269 -0.0508  0.2359
 2336EOH      H 9349   1.960   3.050   4.641 -0.6065 -1.5690 -0.3800
 2337EOH      O 9350   5.931   3.906   0.623  0.1936 -0.1558  0.0286
 2337EOH      C 9351   5.918   3.995   0.512  0.1655  0.0224  0.1754
 2337EOH      C 9352   5.948   4.139   0.558  0.1829  0.2723 -0.6160
 2337EOH      H 9353   5.841   3.885   0.642  0.4773 -0.4071  1.0995
 2338EOH      O 9354   0.953   1.840   4.794  0.3687  0.0813  0.6541
 2338EOH      C 9355   1.030   1.745   4.720 -0.3966  0.2458 -0.3575
 2338EOH      C 9356   1.001   1.776   4.572  0.5053  0.5103 -0.4795
 2338EOH      H 9357   0.908   1.798   4.866 -0.6851  0.6294  0.3362
 2339EOH      O 9358   2.667   3.969   4.020  0.0075  0.1942 -0.1129
 2339EOH      C 9359   2.715   4.042   3.908  0.1416  0.1118 -0.1104
 2339EOH      C 9360   2.694   3.944   3.791 -0.0060  0.3800 -0.3092
 2339EOH      H 9361   2.619   4.022   4.082 -0.7933 -0.4332 -0.1796
 2340EOH      O 9362   1.121   5.284   0.930 -0.0844  0.2840 -0.2337
 2340EOH      C 9363   1.103   5.143   0.909 -0.7585  0.2416  0.5916
 2340EOH      C 9364   1.024   5.128   0.778 -0.4859 -0.0116  0.4554
 2340EOH      H 9365   1.179   5.304   1.001  0.2125 -0.4219 -0.2752
 2341EOH      O 9366   6.115   4.744   2.449  0.3706 -0.2991 -0.2638
 2341EOH      C 9367   6.077   4.864   2.381  0.4452 -0.0761  0.0840
 2341EOH      C 9368   6.146   4.970   2.469  0.0339  0.4621 -0.2388
 2341EOH      H 9369   6.056   4.751   2.523 -1.9644  1.2549 -2.1773
 2342EOH      O 9370   5.309   3.858   0.054  0.4056 -0.3760 -0.7575
 2342EOH      C 9371   5.280   3.748   0.141  0.4999  0.2446  0.0651
 2342EOH      C 9372   5.350   3.772   0.276  0.3263  0.4497  0.1195
 2342EOH      H 9373   5.257   3.841  -0.023 -4.0514 -1.4864  2.3486
 2343EOH      O 9374   0.809   5.068   1.944  0.3586  0.1258  0.3813
 2343EOH      C 9375   0.736   5.180   1.993 -0.1863  0.0681 -0.2843
 2343EOH      C 9376   0.735   5.294   1.889  0.2366  0.2757 -0.0647
 2343EOH      H 9377   0.796   5.032   1.857  0.9479 -0.3372  0.4812
 2344EOH      O 9378   3.219   3.405   5.621 -0.3556 -0.3425 -0.0732
 2344EOH      C 9379   3.109   3.459   5.548 -0.0032  0.1559 -0.2327
 2344EOH      C 9380   2.982   3.480   5.632  0.5427  0.0941  0.6066
 2344EOH      H 9381   3.202   3.314   5.599  0.3376 -0.7373  0.9748
 2345EOH      O 9382   5.951   6.241   2.452  0.1430  0.6155  0.1924
 2345EOH      C 9383   5.820   6.298   2.464 -0.0610  0.1319  0.2813
 2345EOH      C 9384   5.717   6.203   2.402 -0.0439  0.4442 -0.2278
 2345EOH      H 9385   5.966   6.177   2.520 -0.9500  0.9378  0.7644
 2346EOH      O 9386   1.867   3.709   1.521  0.7323  0.2659  0.1241
 2346EOH      C 9387   1.916   3.758   1.645  0.1297  0.5822  0.2400
 2346EOH      C 9388   1.804   3.772   1.750  0.1363 -1.1765  0.4928
 2346EOH      H 9389   1.925   3.645   1.484 -0.5875 -0.3922 -0.8477
 2347EOH      O 9390   4.941   2.350   2.875  0.0706 -0.1439 -0.4056
 2347EOH      C 9391   4.816   2.380   2.938  0.2112 -0.3376 -0.0324
 2347EOH      C 9392   4.819   2.515   3.011  0.3205 -0.4232  0.1202
 2347EOH      H 9393   4.918   2.282   2.813 -1.8102 -1.0811  1.2673
 2348EOH      O 9394   2.727   4.102   5.210  0.2545 -0.2091 -0.0982
 2348EOH      C 9395   2.630   4.207   5.211  0.5037  0.0237 -0.1005
 2348EOH      C 9396   2.677   4.353   5.195 -0.4106  0.3135 -0.1854
 2348EOH      H 9397   2.701   4.052   5.135 -2.6433  0.4901  0.3871
 2349EOH      O 9398   3.465   3.249   2.492 -0.1718  0.0719 -0.3594
 2349EOH      C 9399   3.485   3.272   2.352 -0.0484 -0.2559 -0.3971
 2349EOH      C 9400   3.379   3.371   2.299 -0.0174 -0.1228 -0.2127
 2349EOH      H 9401   3.550   3.221   2.520 -0.2213  2.3333  2.1662
 2350EOH      O 9402   5.137   0.064   0.503  0.0250 -0.3374 -0.5206
 2350EOH      C 9403   5.212   0.031   0.621  0.0276  0.1017 -0.3993
 2350EOH      C 9404   5.348   0.100   0.600  0.1028  0.1521  0.2420
 2350EOH      H 9405   5.102   0.151   0.512 -0.5148 -0.6617  0.5564
 2351EOH      O 9406   3.104   5.762   2.336  0.0376 -0.5256  0.1752
 2351EOH      C 9407   3.146   5.668   2.236  0.0167  0.4389 -0.7511
 2351EOH      C 9408   3.023   5.593   2.180 -0.1748  0.1879 -0.0107
 2351EOH      H 9409   3.048   5.726   2.403  1.2461  0.6088  1.8228
 2352EOH      O 9410   4.633   4.547   6.239 -0.3538  0.0404 -0.1664
 2352EOH      C 9411   4.767   4.500   6.219 -0.4614 -0.4058  0.1481
 2352EOH      C 9412   4.784   4.353   6.261  0.1792 -0.4411 -0.2281
 2352EOH      H 9413   4.628   4.566   6.332 -2.1214 -2.5099  0.3065
 2353EOH      O 9414   3.781   1.789   0.118 -0.3845  0.3282 -0.2888
 2353EOH      C 9415   3.689   1.686   0.154 -0.5119  0.3440 -0.5626
 2353EOH      C 9416   3.567   1.755   0.218 -0.2081  0.7275 -0.3960
 2353EOH      H 9417   3.757   1.805   0.028 -0.5648 -4.6853 -1.2787
 2354EOH      O 9418   3.984   1.429   0.363 -0.0692  0.0851  0.3668
 2354EOH      C 9419   4.123   1.461   0.366 -0.0119 -0.0989 -0.2527
 2354EOH      C 9420   4.141   1.545   0.239 -0.0922  0.5533  0.1644
 2354EOH      H 9421   3.935   1.505   0.392  0.4733 -0.1618  1.9849
 2355EOH      O 9422   0.612   1.809   4.577  0.9710 -0.1336  0.3522
 2355EOH      C 9423   0.622   1.768   4.440  0.2343  0.7191  0.0363
 2355EOH      C 9424   0.489   1.781   4.364  0.0486  0.2020  0.2706
 2355EOH      H 9425   0.619   1.903   4.582 -1.1024  0.0311  0.3991
 2356EOH      O 9426   5.784   2.482   0.273  0.3623  0.1012  0.5883
 2356EOH      C 9427   5.760   2.617   0.313 -0.2995  0.1843 -0.0716
 2356EOH      C 9428   5.862   2.722   0.262 -0.0131 -0.0182  0.0822
 2356EOH      H 9429   5.831   2.488   0.191  1.8837  0.2828  1.4758
 2357EOH      O 9430   4.764   3.002   2.598  0.0790  0.1397 -0.1543
 2357EOH      C 9431   4.642   3.044   2.538  0.0548  0.3924  0.0706
 2357EOH      C 9432   4.606   3.173   2.613  0.0122  0.5228 -0.1735
 2357EOH      H 9433   4.790   2.924   2.550  1.8553  0.2639  0.5739
 2358EOH      O 9434   4.540   2.574   6.199 -0.0717  0.2860 -0.8742
 2358EOH      C 9435   4.528   2.435   6.166 -0.2651  0.1443 -0.2062
 2358EOH      C 9436   4.588   2.363   6.288 -0.1631 -0.2097 -0.4660
 2358EOH      H 9437   4.630   2.600   6.183  0.1545  1.3872  1.9499
 2359EOH      O 9438   0.867   4.409   3.245 -0.1030 -0.1706  0.0231
 2359EOH      C 9439   0.891   4.355   3.115  0.3515 -0.0108  0.0422
 2359EOH      C 9440   0.870   4.458   3.001  0.6671 -0.4621 -0.4270
 2359EOH      H 9441   0.882   4.340   3.308  0.3089  0.6477  0.8366
 2360EOH      O 9442   6.119   2.388   3.216  0.1757 -0.5750  0.2660
 2360EOH      C 9443   6.135   2.484   3.320 -0.4212 -0.0617 -0.1138
 2360EOH      C 9444   6.044   2.606   3.296  0.0707  0.2546 -0.3761
 2360EOH      H 9445   6.157   2.309   3.251 -0.3397 -1.2413 -0.6509
 2361EOH      O 9446   0.890   4.123   1.497  0.4372  0.1018  0.0159
 2361EOH      C 9447   0.869   4.246   1.567 -0.4652  0.1632 -0.3476
 2361EOH      C 9448   0.976   4.353   1.534  0.0529 -0.2676 -0.0721
 2361EOH      H 9449   0.807   4.078   1.502  0.4984 -0.4220 -2.8966
 2362EOH      O 9450   2.743   0.415   4.046  0.6452 -0.6524  0.0657
 2362EOH      C 9451   2.884   0.394   4.058  0.7338  0.1646  0.5096
 2362EOH      C 9452   2.957   0.487   3.960  0.4049  0.0772  0.1842
 2362EOH      H 9453   2.698   0.356   4.105 -3.0740  0.8098 -1.1671
 2363EOH      O 9454   1.747   1.372   4.176 -0.1828 -0.4002 -0.4732
 2363EOH      C 9455   1.623   1.441   4.158 -0.2543 -0.3728  0.1304
 2363EOH      C 9456   1.566   1.471   4.298 -0.4216  0.6070 -0.1477
 2363EOH      H 9457   1.730   1.280   4.168  0.0213 -0.4725 -0.0577
 2364EOH      O 9458   6.226   4.004   4.238 -0.0883 -0.4369 -0.1194
 2364EOH      C 9459   6.201   4.004   4.097 -0.3837 -0.5195 -0.0678
 2364EOH      C 9460   6.100   4.114   4.062  0.6323  0.2857 -0.4841
 2364EOH      H 9461   6.311   3.966   4.251  0.5693  0.7969 -0.6900
 2365EOH      O 9462   4.499   2.056   5.852 -0.3659 -0.1818  0.1057
 2365EOH      C 9463   4.377   2.131   5.855 -0.2354  0.0375 -0.1188
 2365EOH      C 9464   4.315   2.143   5.995 -0.0306 -0.3934  0.0089
 2365EOH      H 9465   4.512   2.049   5.759  0.8824  0.5542  0.2115
 2366EOH      O 9466   1.611   2.735   5.411  0.6594 -0.0085  0.6185
 2366EOH      C 9467   1.673   2.617   5.359  0.3096  0.1616 -0.1917
 2366EOH      C 9468   1.666   2.511   5.471  0.1821  0.6005  0.2196
 2366EOH      H 9469   1.675   2.793   5.451  0.8789  1.1903 -1.4175
 2367EOH      O 9470   3.643   3.276   3.897  0.0500  0.8848 -0.4704
 2367EOH      C 9471   3.628   3.418   3.909  0.7519  0.9360 -0.2186
 2367EOH      C 9472   3.595   3.491   3.778 -0.4783 -0.1333 -0.5142
 2367EOH      H 9473   3.560   3.231   3.896 -0.0593  1.0975 -1.2802
 2368EOH      O 9474   2.257   0.222   0.218 -0.0666 -0.2423 -0.4282
 2368EOH      C 9475   2.342   0.328   0.175 -0.1475  0.2135  0.5272
 2368EOH      C 9476   2.418   0.378   0.300  0.7492  0.2236 -0.0140
 2368EOH      H 9477   2.300   0.145   0.184 -0.0291 -0.6625  0.5489
 2369EOH      O 9478   4.811   1.085   3.842 -0.0135 -0.0096 -0.0179
 2369EOH      C 9479   4.683   1.021   3.834  0.0031 -0.0942  0.4251
 2369EOH      C 9480   4.629   1.094   3.710  0.0395 -0.4244  0.2166
 2369EOH      H 9481   4.808   1.167   3.888 -0.5774  0.7441 -1.3535
 2370EOH      O 9482   3.865   0.850   2.564 -0.2491 -0.0285 -0.0421
 2370EOH      C 9483   3.743   0.919   2.532 -0.0348  0.4399  0.1474
 2370EOH      C 9484   3.651   0.900   2.654 -0.2706  0.0011 -0.0981
 2370EOH      H 9485   3.936   0.910   2.549  1.1522 -1.4255  0.8443
 2371EOH      O 9486   3.028   5.826   5.535  0.2049  0.2654  0.5022
 2371EOH      C 9487   2.919   5.906   5.488 -0.0606 -0.3409  0.0870
 2371EOH      C 9488   2.891   6.011   5.597 -0.2831 -0.0539 -0.2477
 2371EOH      H 9489   2.995   5.749   5.576 -0.5076  0.9726  1.2618
 2372EOH      O 9490   5.175   5.108   1.956  0.2325 -0.2310  0.3225
 2372EOH      C 9491   5.193   5.179   2.078  0.6476  0.1080  0.0674
 2372EOH      C 9492   5.112   5.310   2.077  0.0316 -0.2793 -0.3274
 2372EOH      H 9493   5.156   5.020   1.985  2.0848 -0.3535  1.2543
 2373EOH      O 9494   0.508   0.758   0.167 -0.0620  0.2719  0.2909
 2373EOH      C 9495   0.644   0.784   0.129 -0.0302 -0.3599 -0.0378
 2373EOH      C 9496   0.643   0.883   0.011  0.0362 -0.4885 -0.1447
 2373EOH      H 9497   0.483   0.840   0.207 -0.6768 -0.3632  1.2237
 2374EOH      O 9498   5.514   2.037   0.845  0.7686 -0.2505 -0.1564
 2374EOH      C 9499   5.467   1.923   0.919  0.3641 -0.2761 -0.4480
 2374EOH      C 9500   5.560   1.887   1.036  0.1273  0.1433 -0.1327
 2374EOH      H 9501   5.602   2.004   0.833  0.2202 -3.4354  3.3762
 2375EOH      O 9502   3.432   4.944   5.325 -0.1781  0.1235  0.2217
 2375EOH      C 9503   3.393   5.077   5.359  0.4150  0.2281  0.5050
 2375EOH      C 9504   3.481   5.178   5.283  0.2866  0.0507  0.1176
 2375EOH      H 9505   3.365   4.888   5.289  0.4409 -0.9351  0.6834
 2376EOH      O 9506   5.348   0.716   4.752  0.0289 -0.5826 -0.2906
 2376EOH      C 9507   5.354   0.857   4.777 -0.2572 -0.5639 -0.3242
 2376EOH      C 9508   5.410   0.916   4.646 -0.2855  0.4464  0.1141
 2376EOH      H 9509   5.282   0.682   4.812  1.1303  0.9334  1.8611
 2377EOH      O 9510   3.805   2.934   1.270 -0.0079  0.1702  0.2923
 2377EOH      C 9511   3.726   2.854   1.181 -0.0927  0.4229  0.1425
 2377EOH      C 9512   3.727   2.916   1.040  0.5819  0.2775  0.0830
 2377EOH      H 9513   3.743   2.984   1.321 -0.8811  0.7255 -1.2977
 2378EOH      O 9514   1.944   5.041   2.633 -0.0544 -0.5061 -0.3468
 2378EOH      C 9515   1.983   5.011   2.767  0.2574  0.5454 -0.2049
 2378EOH      C 9516   1.851   4.993   2.844  0.3881 -0.3491 -0.1821
 2378EOH      H 9517   1.881   5.110   2.641 -1.0401 -1.2795 -1.2265
 2379EOH      O 9518   5.460   1.514   2.108 -0.2181 -0.1225 -0.3594
 2379EOH      C 9519   5.522   1.631   2.056 -0.8166  0.1708 -0.4168
 2379EOH      C 9520   5.532   1.641   1.903 -0.2853  0.0598 -0.3921
 2379EOH      H 9521   5.368   1.532   2.095 -0.0869  0.8880  0.1060
 2380EOH      O 9522   2.355   0.019   0.129 -0.2026  0.1498 -0.0653
 2380EOH      C 9523   2.267  -0.075   0.067  0.1776 -0.2084 -0.0668
 2380EOH      C 9524   2.325  -0.217   0.072  0.2442 -0.1910 -0.3560
 2380EOH      H 9525   2.435   0.024   0.080 -0.5923  0.0462 -0.7128
 2381EOH      O 9526   4.949   3.731   5.152  1.0022 -0.7299 -0.0951
 2381EOH      C 9527   4.853   3.758   5.255  0.6329 -0.1290 -0.5888
 2381EOH      C 9528   4.715   3.802   5.205  0.4750  0.0959  0.0365
 2381EOH      H 9529   4.898   3.683   5.089  0.0497  0.1416 -0.0131
 2382EOH      O 9530   4.598   3.775   6.070 -0.3114  0.3106 -0.2665
 2382EOH      C 9531   4.539   3.892   6.128 -0.0646  0.2676  0.0691
 2382EOH      C 9532   4.392   3.915   6.090 -0.2101 -0.0430  0.4432
 2382EOH      H 9533   4.674   3.766   6.124 -1.9709  1.0132  2.2709
 2383EOH      O 9534   1.822   5.414   2.788  0.2125 -0.7850 -0.4355
 2383EOH      C 9535   1.939   5.485   2.748 -0.0506 -0.2316 -0.2330
 2383EOH      C 9536   1.920   5.632   2.790 -0.1960 -0.3882  0.2545
 2383EOH      H 9537   1.801   5.442   2.876  1.5675  0.5240 -0.5265
 2384EOH      O 9538   3.924   0.630   2.292 -0.3176  0.3193 -0.2467
 2384EOH      C 9539   3.786   0.605   2.264 -0.3427 -0.2153  0.3377
 2384EOH      C 9540   3.777   0.537   2.126 -0.0136 -0.4189  0.4161
 2384EOH      H 9541   3.958   0.569   2.355 -0.8600  0.7256  0.4582
 2385EOH      O 9542   3.551   0.041   6.190 -0.2549  0.2507  0.0072
 2385EOH      C 9543   3.681   0.061   6.133 -0.4398  0.1338 -0.4573
 2385EOH      C 9544   3.709  -0.058   6.039  0.5835 -0.2955  0.3859
 2385EOH      H 9545   3.533  -0.050   6.207 -1.0064  0.8526  2.6960
 2386EOH      O 9546   4.420   0.042   2.036  0.7341  0.1775 -0.4604
 2386EOH      C 9547   4.506   0.130   2.108  0.4833 -0.1777  0.2805
 2386EOH      C 9548   4.648   0.071   2.122  0.3479 -0.4925  0.3317
 2386EOH      H 9549   4.435   0.049   1.943 -0.3580 -1.1815 -0.7492
 2387EOH      O 9550   4.551   2.546   2.038 -0.1099  0.2609  0.0589
 2387EOH      C 9551   4.462   2.603   2.134 -0.2433 -0.1201  0.1600
 2387EOH      C 9552   4.378   2.503   2.216 -0.5671  0.2452  0.2774
 2387EOH      H 9553   4.496   2.489   1.987 -0.8005  1.9208 -1.1076
 2388EOH      O 9554   4.040   2.771   2.128 -0.6019  0.3624 -0.0956
 2388EOH      C 9555   4.143   2.838   2.055 -0.4054  0.1910  0.0280
 2388EOH      C 9556   4.110   2.988   2.046  0.1937  0.3400  0.2647
 2388EOH      H 9557   3.987   2.728   2.062 -0.2136 -0.5778  0.2125
 2389EOH      O 9558   4.471   1.915   3.073  0.2113 -0.0952 -0.0421
 2389EOH      C 9559   4.545   2.029   3.027 -0.1446  0.1723  0.0535
 2389EOH      C 9560   4.537   2.144   3.129  0.5935 -0.3597  0.7108
 2389EOH      H 9561   4.457   1.855   3.001 -1.8258 -0.7939  0.9200
 2390EOH      O 9562   1.280   1.133   4.292  0.1454  0.4630  0.1118
 2390EOH      C 9563   1.419   1.128   4.328  0.0510 -0.7602  0.3321
 2390EOH      C 9564   1.433   1.135   4.481  0.5273  0.1568  0.2519
 2390EOH      H 9565   1.252   1.222   4.307  3.2223  1.4639  0.3310
 2391EOH      O 9566   5.991   6.038   2.645  0.1769  0.0296  0.1069
 2391EOH      C 9567   5.954   6.074   2.778 -0.8546 -0.5690 -0.0141
 2391EOH      C 9568   5.984   5.954   2.869 -0.3449 -0.0188  0.5544
 2391EOH      H 9569   6.081   6.009   2.652 -0.0640 -1.5357 -2.5762
 2392EOH      O 9570   4.395   1.575   3.236 -1.0445 -0.0355 -0.8961
 2392EOH      C 9571   4.494   1.471   3.239  0.0655  1.0368 -0.0354
 2392EOH      C 9572   4.448   1.366   3.342  0.0978  0.1909 -0.8764
 2392EOH      H 9573   4.423   1.643   3.295  0.8799 -0.7938 -0.9071
 2393EOH      O 9574   0.843   2.094   2.828  0.5404  0.2375 -0.0128
 2393EOH      C 9575   0.970   2.039   2.789  0.5968  0.0899  0.3669
 2393EOH      C 9576   0.974   1.892   2.833 -0.2251  0.1047  0.5082
 2393EOH      H 9577   0.827   2.166   2.770 -0.8323 -0.7288 -0.8532
 2394EOH      O 9578   2.546   2.249   4.922  0.5545 -0.2374 -0.2338
 2394EOH      C 9579   2.681   2.206   4.937  0.5299 -0.0403  0.5647
 2394EOH      C 9580   2.770   2.326   4.902  0.3556 -0.0887 -0.0455
 2394EOH      H 9581   2.510   2.234   5.008  1.6494 -1.6306  0.0014
 2395EOH      O 9582   1.514   2.470   5.893 -0.2440 -0.4148  0.2769
 2395EOH      C 9583   1.444   2.346   5.882 -0.4819 -0.2291 -0.3552
 2395EOH      C 9584   1.504   2.282   5.756  0.3548 -0.2070  0.0283
 2395EOH      H 9585   1.458   2.529   5.941  0.3050  0.0764  0.3283
 2396EOH      O 9586   1.504   4.524   0.822  0.4539 -0.1906 -0.0182
 2396EOH      C 9587   1.398   4.478   0.737  0.1488 -0.2543  0.3991
 2396EOH      C 9588   1.274   4.562   0.774  0.1400 -0.0382 -0.1271
 2396EOH      H 9589   1.586   4.480   0.805  0.1348 -0.5814 -0.5896
 2397EOH      O 9590   3.692   3.142   2.572 -0.1646  0.2362 -0.2742
 2397EOH      C 9591   3.814   3.196   2.624  0.1469 -0.5065 -0.2263
 2397EOH      C 9592   3.857   3.337   2.581 -0.4550 -0.3494 -0.3245
 2397EOH      H 9593   3.679   3.055   2.605  3.1586 -0.0480  0.3938
 2398EOH      O 9594   1.931   1.423   3.455 -0.2445  0.3663 -0.4391
 2398EOH      C 9595   1.792   1.445   3.431 -0.3368  0.1910 -0.0612
 2398EOH      C 9596   1.702   1.325   3.467  0.0124 -0.0627 -0.0352
 2398EOH      H 9597   1.977   1.504   3.438 -2.3563  1.0547 -3.1589
 2399EOH      O 9598   5.714   3.913   2.212  0.4444 -0.1948 -0.5595
 2399EOH      C 9599   5.635   3.939   2.328  0.5820 -0.4321 -0.4113
 2399EOH      C 9600   5.502   3.862   2.314  0.3940 -0.2811  0.5614
 2399EOH      H 9601   5.796   3.950   2.242  0.1799 -0.7248  0.8584
 2400EOH      O 9602   5.822   5.894   5.604 -0.2427 -0.0176 -0.1962
 2400EOH      C 9603   5.866   6.028   5.626 -0.0039 -0.1594  0.1999
 2400EOH      C 9604   6.019   6.008   5.634 -0.1109 -1.0547  0.0815
 2400EOH      H 9605   5.801   5.854   5.687 -2.8579  2.7556  0.5620
 2401EOH      O 9606   1.259   3.754   0.442  0.1116 -0.0207 -0.0859
 2401EOH      C 9607   1.243   3.679   0.562 -0.6838 -0.2391 -0.3257
 2401EOH      C 9608   1.172   3.543   0.546 -0.2932 -0.4257 -0.4871
 2401EOH      H 9609   1.253   3.847   0.461  0.7961 -0.3601  1.8388
 2402EOH      O 9610   2.074   4.239   1.788  0.6979 -0.1667  0.1930
 2402EOH      C 9611   2.065   4.200   1.925 -0.2920  0.2100  0.2418
 2402EOH      C 9612   2.066   4.333   2.002  0.1280  0.2080  0.2443
 2402EOH      H 9613   2.166   4.247   1.770  0.2799  0.9403 -1.6691
 2403EOH      O 9614   4.226   0.543   0.195 -0.6100 -0.4052  0.3187
 2403EOH      C 9615   4.196   0.403   0.204 -0.7076 -0.4084 -0.0532
 2403EOH      C 9616   4.330   0.328   0.205 -0.4956 -0.0368 -0.3020
 2403EOH      H 9617   4.174   0.601   0.248  2.1891  1.2144  1.4010
 2404EOH      O 9618   3.999   5.428   1.002 -0.0211  0.0806 -0.0817
 2404EOH      C 9619   3.944   5.306   0.949 -0.0133  0.0630 -0.0486
 2404EOH      C 9620   3.925   5.321   0.797  0.1851  0.4797 -0.0326
 2404EOH      H 9621   3.938   5.499   0.991 -0.4940 -0.3164 -0.0513
 2405EOH      O 9622   2.593   3.263   3.471  0.4485 -0.9976 -0.0934
 2405EOH      C 9623   2.583   3.369   3.376  0.0092 -0.4060  0.6133
 2405EOH      C 9624   2.656   3.485   3.446  0.0167 -0.4684  0.7084
 2405EOH      H 9625   2.535   3.272   3.545  0.9762  1.8136  0.0082
 2406EOH      O 9626   5.769   2.250   0.392 -0.3851 -0.3029  0.1218
 2406EOH      C 9627   5.706   2.274   0.519  0.4240  0.5041  0.3782
 2406EOH      C 9628   5.803   2.367   0.594  0.8653  0.6530 -0.3711
 2406EOH      H 9629   5.781   2.337   0.357 -1.6291  0.0424  0.5045
 2407EOH      O 9630   0.457   3.573   2.202 -0.3915 -0.0608 -0.2859
 2407EOH      C 9631   0.424   3.457   2.279 -0.0767 -0.2551 -0.4412
 2407EOH      C 9632   0.431   3.512   2.423 -0.1656 -0.0856 -0.5009
 2407EOH      H 9633   0.408   3.579   2.121 -1.8382  0.4026  0.6192
 2408EOH      O 9634   3.446   0.169   0.569  0.2504  0.2656  0.1424
 2408EOH      C 9635   3.500   0.070   0.482 -0.5840 -0.2962  0.2485
 2408EOH      C 9636   3.401   0.066   0.364 -0.3062 -0.1581  0.0068
 2408EOH      H 9637   3.476   0.251   0.535  0.3540  1.2005  2.3860
 2409EOH      O 9638   1.919   5.872   3.856 -0.2779 -0.0511  0.1770
 2409EOH      C 9639   1.920   6.003   3.913 -0.3211  0.0169  0.0236
 2409EOH      C 9640   1.981   5.996   4.055  0.6942 -0.1880 -0.4199
 2409EOH      H 9641   1.892   5.883   3.766  0.8886  1.5838 -0.0111
 2410EOH      O 9642   1.990   2.862   5.464  0.2417  0.1885 -0.2679
 2410EOH      C 9643   2.060   2.854   5.339  0.5657 -0.0837 -0.0688
 2410EOH      C 9644   2.059   2.702   5.315  0.0696 -0.1257  0.2042
 2410EOH      H 9645   2.047   2.875   5.538 -1.7737  0.4955  1.2869
 2411EOH      O 9646   2.114   2.187   5.873  0.1704  0.1523  0.0276
 2411EOH      C 9647   1.986   2.210   5.812  0.2788  0.3698 -0.1182
 2411EOH      C 9648   1.998   2.206   5.658  0.1974  0.1014 -0.1170
 2411EOH      H 9649   2.116   2.246   5.947  1.0407  0.2916 -0.1030
 2412EOH      O 9650   1.851   5.336   4.212  0.3402 -0.2335  0.2080
 2412EOH      C 9651   1.955   5.241   4.187  0.3530 -0.1625 -0.0069
 2412EOH      C 9652   2.100   5.277   4.227  0.2815 -0.3761  0.4410
 2412EOH      H 9653   1.767   5.310   4.178  0.7478 -0.2601 -0.8104
 2413EOH      O 9654   1.601   0.399   3.268  0.0388 -0.3094 -0.0370
 2413EOH      C 9655   1.492   0.475   3.214 -0.1644 -0.4335  0.1946
 2413EOH      C 9656   1.439   0.584   3.309 -0.0913 -0.2387  0.0116
 2413EOH      H 9657   1.671   0.462   3.279 -1.0366  0.8470  0.3451
 2414EOH      O 9658   0.411   2.337   5.269 -0.3627  0.2424 -0.2002
 2414EOH      C 9659   0.355   2.334   5.401 -0.4840 -0.1751 -0.2582
 2414EOH      C 9660   0.343   2.186   5.439 -0.2553 -0.2252 -0.3824
 2414EOH      H 9661   0.350   2.390   5.222 -0.2546  0.2987 -0.2774
 2415EOH      O 9662   3.463   2.894   6.274  0.6233 -0.4500  0.0051
 2415EOH      C 9663   3.583   2.971   6.271  0.6366 -0.4482  0.4799
 2415EOH      C 9664   3.650   2.967   6.132  0.4746 -0.2648  0.3965
 2415EOH      H 9665   3.482   2.802   6.266  0.3335 -0.6417  1.4195
 2416EOH      O 9666   1.179   4.834   3.122  0.1642 -0.1213 -0.4008
 2416EOH      C 9667   1.148   4.918   3.010  0.0805  0.2722 -0.0859
 2416EOH      C 9668   1.058   5.028   3.067 -0.3246 -0.0153 -0.1682
 2416EOH      H 9669   1.256   4.781   3.108  1.6461  2.3524 -1.9990
 2417EOH      O 9670   3.195   5.271   3.387  0.7046 -0.9080  0.5264
 2417EOH      C 9671   3.111   5.175   3.322 -0.0014  0.3950 -0.5173
 2417EOH      C 9672   3.006   5.238   3.228 -0.5679  0.2176 -0.0023
 2417EOH      H 9673   3.276   5.267   3.339  0.6909 -1.5500  0.5505
 2418EOH      O 9674   4.100   3.635   2.390 -0.0807  0.0107 -0.1155
 2418EOH      C 9675   4.021   3.708   2.296  0.3917  0.2596 -0.3193
 2418EOH      C 9676   4.117   3.813   2.238  0.5445  0.1447 -0.2754
 2418EOH      H 9677   4.098   3.542   2.371  1.3668 -0.0280 -0.1170
 2419EOH      O 9678   2.622   6.240   5.025 -0.4151  0.0595 -0.2582
 2419EOH      C 9679   2.710   6.139   5.074  0.0450  0.3819 -0.4147
 2419EOH      C 9680   2.824   6.123   4.972  0.4414  0.7522 -0.0289
 2419EOH      H 9681   2.553   6.252   5.089 -1.1173 -1.1479 -0.7850
 2420EOH      O 9682   1.652   4.697   1.669 -0.3546  0.1761  0.6674
 2420EOH      C 9683   1.573   4.581   1.694 -0.2332 -0.1392 -0.4215
 2420EOH      C 9684   1.438   4.610   1.626 -0.6350 -0.1640  0.3615
 2420EOH      H 9685   1.745   4.680   1.669 -0.4255 -0.2684 -0.9341
 2421EOH      O 9686   3.747   3.976   0.195 -0.2492  0.4567  0.3065
 2421EOH      C 9687   3.752   4.034   0.326  0.3791 -0.0540  0.5097
 2421EOH      C 9688   3.852   4.150   0.317  0.4177 -0.1796 -0.7641
 2421EOH      H 9689   3.828   3.991   0.149 -0.5568  0.1196 -0.3379
 2422EOH      O 9690   0.633   2.661   4.995 -0.5613 -0.0891  0.2010
 2422EOH      C 9691   0.639   2.615   4.859  0.0307  1.2786 -0.2468
 2422EOH      C 9692   0.736   2.497   4.844 -0.7731  0.4385  1.1020
 2422EOH      H 9693   0.715   2.703   5.016  0.7125 -2.4789  0.1272
 2423EOH      O 9694   0.705   0.556   4.951  0.4370  0.1230  0.2378
 2423EOH      C 9695   0.694   0.621   5.078 -0.0096  0.0105  0.2572
 2423EOH      C 9696   0.550   0.672   5.102  0.0531  0.0526  0.5364
 2423EOH      H 9697   0.623   0.510   4.937  1.5310 -2.4907  1.9869
 2424EOH      O 9698   2.688   5.449   3.349 -0.1616  0.1616  0.5210
 2424EOH      C 9699   2.788   5.465   3.451 -0.0718 -0.5072  0.5351
 2424EOH      C 9700   2.753   5.362   3.560 -0.2948 -0.5318  0.4417
 2424EOH      H 9701   2.710   5.506   3.277 -1.8292  1.8012  1.2589
 2425EOH      O 9702   3.233   6.006   1.100 -0.5143  0.6924 -0.2472
 2425EOH      C 9703   3.327   6.073   1.015  0.2813  0.1479  0.2060
 2425EOH      C 9704   3.306   6.034   0.868 -0.1793 -0.1643  0.3498
 2425EOH      H 9705   3.174   6.076   1.123 -1.6801 -0.0234 -1.0147
 2426EOH      O 9706   1.334   2.175   3.532  0.3865 -0.3827  0.1468
 2426EOH      C 9707   1.243   2.137   3.636 -0.0232  0.2214  0.0070
 2426EOH      C 9708   1.323   2.101   3.762  0.0023 -0.0639 -0.0915
 2426EOH      H 9709   1.285   2.198   3.455  1.8576 -0.1126 -0.7169
 2427EOH      O 9710   4.501   0.489   1.524 -0.1108 -0.6324 -0.1777
 2427EOH      C 9711   4.405   0.439   1.430 -0.4548 -0.4527  0.0775
 2427EOH      C 9712   4.334   0.330   1.512 -0.5546 -0.2709  0.2342
 2427EOH      H 9713   4.552   0.559   1.485  0.5517 -0.3727  1.1218
 2428EOH      O 9714   1.334   0.941   1.049  0.3998  0.3159  0.3558
 2428EOH      C 9715   1.389   1.025   0.948  0.0919  0.0814 -0.0082
 2428EOH      C 9716   1.513   1.085   1.018  0.1091  0.3406 -0.2593
 2428EOH      H 9717   1.251   0.919   1.011 -0.2514  2.8839  0.1802
 2429EOH      O 9718   3.450   5.056   0.255  0.0635 -0.5103 -0.1932
 2429EOH      C 9719   3.481   4.932   0.318 -0.2196 -0.3805  0.1992
 2429EOH      C 9720   3.419   4.811   0.245  0.0857 -0.4871  0.1132
 2429EOH      H 9721   3.490   5.056   0.169  2.0262  3.0913  0.6268
 2430EOH      O 9722   1.464   4.045   4.658 -0.3056 -0.0886 -0.0682
 2430EOH      C 9723   1.483   3.910   4.613  0.7641  0.0014  0.0979
 2430EOH      C 9724   1.467   3.890   4.461  0.0590 -0.4576  0.2271
 2430EOH      H 9725   1.474   4.037   4.752 -1.3454  1.4366  0.1902
 2431EOH      O 9726   4.610   0.563   3.298 -0.0131 -0.1797 -0.3872
 2431EOH      C 9727   4.509   0.648   3.353  0.4397  0.1372 -0.0445
 2431EOH      C 9728   4.544   0.692   3.496  0.0706  0.7727 -0.1505
 2431EOH      H 9729   4.673   0.617   3.254  2.2313 -1.0530  1.6233
 2432EOH      O 9730   1.513   6.071   2.343 -0.1232  0.1498  0.0846
 2432EOH      C 9731   1.558   6.050   2.477 -0.2013 -0.3428  0.0316
 2432EOH      C 9732   1.538   6.182   2.553  0.3133 -0.3602  0.1978
 2432EOH      H 9733   1.484   5.992   2.300 -1.9211  0.9803 -0.2738
 2433EOH      O 9734   4.886   3.025   2.117  0.0608 -0.0198  0.4190
 2433EOH      C 9735   4.761   2.973   2.072  0.0269  0.3968  0.0326
 2433EOH      C 9736   4.646   3.023   2.161 -0.2086 -0.6964  0.3542
 2433EOH      H 9737   4.936   3.042   2.038  0.1401  0.4549  0.5663
 2434EOH      O 9738   0.558   2.555   3.038  0.2650  0.0817 -0.3038
 2434EOH      C 9739   0.601   2.433   2.977 -0.1790 -0.2975  0.1363
 2434EOH      C 9740   0.617   2.444   2.824  0.0690  0.0026  0.1811
 2434EOH      H 9741   0.568   2.548   3.132  0.7023  0.5002 -0.3131
 2435EOH      O 9742   4.611   0.371   3.684  0.1005  0.4659 -0.0354
 2435EOH      C 9743   4.706   0.398   3.787  0.3819  0.4128 -0.2798
 2435EOH      C 9744   4.695   0.545   3.833 -0.0396 -0.1257  1.3668
 2435EOH      H 9745   4.654   0.397   3.604 -0.9164 -2.1160 -1.4833
 2436EOH      O 9746   6.120   6.242   3.596 -0.1357  0.3396  0.6406
 2436EOH      C 9747   6.080   6.378   3.611 -0.3715  0.3447 -0.0215
 2436EOH      C 9748   6.212   6.447   3.571 -0.1242  0.0502  0.2799
 2436EOH      H 9749   6.135   6.230   3.503 -0.7065  1.1271  0.4411
 2437EOH      O 9750   2.082   5.857   2.441  0.0050 -0.3500  0.6221
 2437EOH      C 9751   1.978   5.760   2.425 -0.3716  0.1499  0.0257
 2437EOH      C 9752   2.044   5.622   2.409  0.3529  0.4791  0.1945
 2437EOH      H 9753   2.058   5.927   2.383 -1.4251 -0.4359  1.0869
 2438EOH      O 9754   5.456   0.890   1.817  0.1046 -0.5530  0.0685
 2438EOH      C 9755   5.356   0.830   1.735  0.1445 -0.5248 -0.0012
 2438EOH      C 9756   5.394   0.856   1.588 -0.5606  0.2897 -0.0446
 2438EOH      H 9757   5.450   0.984   1.811  1.8491 -0.6047 -3.6924
 2439EOH      O 9758   2.849   5.166   1.603  0.0212  0.1302  0.0064
 2439EOH      C 9759   2.927   5.065   1.540 -0.5756 -0.3277 -0.0129
 2439EOH      C 9760   2.880   5.048   1.394  0.0643 -0.0590 -0.2546
 2439EOH      H 9761   2.774   5.122   1.641 -0.9025  0.4294 -1.4349
 2440EOH      O 9762   5.572   0.502   0.212 -0.5328 -0.1447 -0.3828
 2440EOH      C 9763   5.656   0.420   0.294 -0.8856  0.0156  0.1392
 2440EOH      C 9764   5.647   0.280   0.231  0.0518  0.4338 -0.9298
 2440EOH      H 9765   5.617   0.585   0.216  0.7751 -0.8551 -0.1031
 2441EOH      O 9766   2.579   3.524   4.771 -0.0468  0.2909 -0.2156
 2441EOH      C 9767   2.660   3.597   4.679  0.3213  0.2188  0.0505
 2441EOH      C 9768   2.796   3.591   4.750  0.1624  0.5852  0.3844
 2441EOH      H 9769   2.488   3.552   4.769  0.5387  2.2092 -2.0127
 2442EOH      O 9770   5.401   5.352   1.726 -0.1993 -0.4124  0.3877
 2442EOH      C 9771   5.450   5.365   1.592 -0.0062 -0.1492  0.4836
 2442EOH      C 9772   5.559   5.473   1.587  0.1781 -0.3808 -0.6740
 2442EOH      H 9773   5.309   5.330   1.731 -0.4819  0.7624  0.4672
 2443EOH      O 9774   6.071   2.701   4.582  0.4378 -0.4424 -0.4458
 2443EOH      C 9775   6.061   2.653   4.716  0.4234  0.2818 -0.1880
 2443EOH      C 9776   6.192   2.579   4.747  0.3774  0.3370  0.1400
 2443EOH      H 9777   5.985   2.735   4.564  0.7825  0.3282 -0.6270
 2444EOH      O 9778   5.250   3.143   1.070  0.4221  0.0972  0.2580
 2444EOH      C 9779   5.169   3.198   1.174  0.4201  0.5541  0.0193
 2444EOH      C 9780   5.153   3.350   1.158 -0.4331  0.4933  0.2319
 2444EOH      H 9781   5.286   3.065   1.109  1.0316  0.3236  0.1650
 2445EOH      O 9782   0.485   3.667   3.771 -0.1985  0.1678  0.0958
 2445EOH      C 9783   0.604   3.741   3.795  0.0563 -0.0641 -0.4347
 2445EOH      C 9784   0.729   3.688   3.722 -0.1316 -0.4477 -0.4790
 2445EOH      H 9785   0.458   3.684   3.682  1.1125  1.0004 -0.1494
 2446EOH      O 9786   6.201   3.400   2.427 -0.4024  0.6587  0.5573
 2446EOH      C 9787   6.293   3.496   2.374 -0.3873  0.0293 -0.5546
 2446EOH      C 9788   6.303   3.618   2.467 -0.5807 -0.1650 -0.2779
 2446EOH      H 9789   6.247   3.327   2.465 -0.5071 -0.2523 -1.0411
 2447EOH      O 9790   4.513   2.399   4.729  0.0088  0.2279 -0.4713
 2447EOH      C 9791   4.478   2.265   4.765  0.4894  0.3028  0.2766
 2447EOH      C 9792   4.603   2.214   4.839  0.6164 -0.2114 -0.2897
 2447EOH      H 9793   4.438   2.424   4.677 -0.2134  1.0983  0.2586
 2448EOH      O 9794   2.088   4.200   6.250  0.1483  0.2061  0.0811
 2448EOH      C 9795   2.171   4.095   6.299  0.0417 -0.0738 -0.3361
 2448EOH      C 9796   2.287   4.142   6.389  0.0064 -0.2549 -0.1965
 2448EOH      H 9797   2.004   4.159   6.238  0.4931 -0.7713  1.0188
 2449EOH      O 9798   2.987   1.241   5.398  0.3342  0.4277  0.0484
 2449EOH      C 9799   2.935   1.180   5.516 -0.1860 -0.1071 -0.4530
 2449EOH      C 9800   2.811   1.257   5.568  0.0402  0.2389 -0.4258
 2449EOH      H 9801   3.046   1.180   5.355 -1.0568 -0.4341 -0.6499
 2450EOH      O 9802   0.746   1.749   0.214 -0.2797 -0.0980 -0.3239
 2450EOH      C 9803   0.664   1.829   0.128 -0.1330  0.3388 -0.0582
 2450EOH      C 9804   0.522   1.772   0.146 -0.0470  0.2803  0.4420
 2450EOH      H 9805   0.825   1.801   0.221 -0.5659  0.4290 -0.9047
 2451EOH      O 9806   0.402   6.058   3.925  0.2589  0.3348  0.2613
 2451EOH      C 9807   0.349   6.176   3.987 -0.4313  0.1532  0.0295
 2451EOH      C 9808   0.407   6.193   4.129  0.2864 -0.5977 -0.1680
 2451EOH      H 9809   0.324   6.005   3.935 -0.4050  1.5929  1.9264
 2452EOH      O 9810   2.831   0.342   1.530  0.2114 -0.0827  0.2898
 2452EOH      C 9811   2.744   0.240   1.581  0.4688 -0.6354 -0.3694
 2452EOH      C 9812   2.621   0.225   1.490 -0.0441 -0.2057  0.2505
 2452EOH      H 9813   2.889   0.359   1.602  2.1784 -1.1772 -1.0001
 2453EOH      O 9814   3.866   1.224   4.781 -0.5997 -0.3239  0.2244
 2453EOH      C 9815   3.829   1.199   4.645  0.8177 -0.0336 -0.2214
 2453EOH      C 9816   3.759   1.317   4.574  0.5732 -0.0314  0.0223
 2453EOH      H 9817   3.920   1.301   4.782 -0.5851 -0.3383  2.3543
 2454EOH      O 9818   5.889   2.151   5.754  0.2556 -0.7034 -0.3134
 2454EOH      C 9819   5.888   2.185   5.893 -0.2080  0.0493 -0.4980
 2454EOH      C 9820   5.747   2.236   5.929  0.0658  0.3112  0.2043
 2454EOH      H 9821   5.948   2.211   5.711 -0.7925  1.0076  0.5684
 2455EOH      O 9822   4.714   5.119   5.772 -0.5824  0.5772  0.2592
 2455EOH      C 9823   4.649   5.012   5.841  0.4070 -0.0264  0.2748
 2455EOH      C 9824   4.740   4.955   5.951  0.0618 -0.1453  0.4985
 2455EOH      H 9825   4.668   5.138   5.692  1.1427 -1.0698 -1.1787
 2456EOH      O 9826   4.564   1.961   3.510 -0.1050  0.5141 -0.3863
 2456EOH      C 9827   4.693   1.921   3.466  0.0229  0.3584  0.1213
 2456EOH      C 9828   4.707   1.771   3.495 -0.1897  0.3349  0.1032
 2456EOH      H 9829   4.501   1.892   3.497 -0.8900  1.2048 -0.3764
 2457EOH      O 9830   5.866   3.039   1.643 -0.5336  0.3105  0.6392
 2457EOH      C 9831   5.988   3.099   1.688 -0.2653  0.0714  0.2327
 2457EOH      C 9832   6.065   2.996   1.772  0.2179  0.1044 -0.1637
 2457EOH      H 9833   5.839   3.089   1.567  2.6130 -0.4727 -1.1071
 2458EOH      O 9834   1.430   3.804   5.732 -0.3647 -0.2839 -0.3090
 2458EOH      C 9835   1.526   3.782   5.628  0.1120 -0.3093  0.1319
 2458EOH      C 9836   1.646   3.711   5.694  0.0630 -0.2038  0.3353
 2458EOH      H 9837   1.379   3.726   5.745 -1.2855  0.1341 -1.3826
 2459EOH      O 9838   5.420   3.411   2.667 -0.2674  0.1830 -0.1723
 2459EOH      C 9839   5.306   3.435   2.584 -0.1082  0.4952 -0.3023
 2459EOH      C 9840   5.330   3.395   2.438  0.0432  0.1020 -0.1704
 2459EOH      H 9841   5.398   3.458   2.746  0.8386  0.0286  0.2376
 2460EOH      O 9842   3.312   5.784   0.275 -0.9496 -0.6045  0.1140
 2460EOH      C 9843   3.435   5.820   0.339 -0.8872  0.0774 -0.3893
 2460EOH      C 9844   3.424   5.955   0.412  0.0411  0.0805 -0.2461
 2460EOH      H 9845   3.234   5.794   0.327 -1.9780 -1.5218 -1.2055
 2461EOH      O 9846   4.595   4.538   2.410 -0.3030 -0.3052  0.4501
 2461EOH      C 9847   4.636   4.656   2.481  0.2019  0.1108 -0.5239
 2461EOH      C 9848   4.700   4.747   2.375 -0.0460  0.5313 -0.3128
 2461EOH      H 9849   4.535   4.492   2.466  1.1741 -3.6390 -0.5479
 2462EOH      O 9850   5.375   0.473   0.049 -0.1402  0.4235  0.2410
 2462EOH      C 9851   5.334   0.603   0.005  0.1024  0.4693  0.1476
 2462EOH      C 9852   5.413   0.621  -0.126  0.2704 -0.1291  0.1642
 2462EOH      H 9853   5.455   0.483   0.097 -0.3388  3.7084 -0.0238
 2463EOH      O 9854   3.904   3.834   3.394 -0.4707 -0.2523  0.5843
 2463EOH      C 9855   3.975   3.718   3.350 -0.1149  0.2431 -0.1558
 2463EOH      C 9856   3.950   3.733   3.199 -0.3091 -0.4623 -0.1969
 2463EOH      H 9857   3.813   3.817   3.413 -0.7095 -0.3775 -0.6225
 2464EOH      O 9858   2.745   3.233   5.784  0.5956 -0.2658 -0.0887
 2464EOH      C 9859   2.702   3.177   5.659  0.1443  0.0566 -0.0796
 2464EOH      C 9860   2.551   3.194   5.635  0.1496  0.4339  0.1568
 2464EOH      H 9861   2.753   3.159   5.842  1.3232  1.2165  1.7525
 2465EOH      O 9862   4.624   4.664   5.858  0.7950 -0.3334 -0.0709
 2465EOH      C 9863   4.564   4.650   5.729  0.1658 -0.1688  0.1979
 2465EOH      C 9864   4.441   4.740   5.710 -0.1442 -0.5657  0.3316
 2465EOH      H 9865   4.569   4.616   5.918  0.0648 -2.0347 -2.0692
 2466EOH      O 9866   5.834   2.331   2.848 -0.1223  0.3564  0.3394
 2466EOH      C 9867   5.950   2.297   2.924  0.2060  0.1006 -0.2777
 2466EOH      C 9868   6.076   2.339   2.845  0.2352 -0.1964 -0.3888
 2466EOH      H 9869   5.783   2.397   2.893  0.4292 -0.8422  2.8329
 2467EOH      O 9870   1.135   3.004   1.441  0.0150  0.4663 -0.4806
 2467EOH      C 9871   1.048   2.947   1.539  0.6450  0.5150  0.1073
 2467EOH      C 9872   1.123   2.864   1.645  0.5252  0.0171 -0.1942
 2467EOH      H 9873   1.109   3.092   1.417  2.3668  0.4741 -3.2355
 2468EOH      O 9874   6.012   4.956   0.245  0.7729  0.0909 -0.3805
 2468EOH      C 9875   5.925   4.855   0.195  0.6500 -0.0321  0.0752
 2468EOH      C 9876   5.892   4.884   0.047 -0.3588 -0.2892  0.2455
 2468EOH      H 9877   5.962   5.037   0.249 -2.8179 -2.0971  2.4964
 2469EOH      O 9878   3.066   3.415   0.984 -0.0139  0.2308  0.1526
 2469EOH      C 9879   2.988   3.359   0.878  0.1266  0.1649  0.0824
 2469EOH      C 9880   3.066   3.254   0.797 -0.2299  0.4052 -0.5768
 2469EOH      H 9881   3.028   3.396   1.068  0.6215  1.0568  0.6384
 2470EOH      O 9882   1.248   1.409   3.347 -0.7316 -0.2469  0.1194
 2470EOH      C 9883   1.296   1.339   3.232  0.0251 -0.0487  0.3097
 2470EOH      C 9884   1.447   1.367   3.219 -0.0031  0.0799  0.2578
 2470EOH      H 9885   1.190   1.352   3.393  0.1731 -0.8623  0.5120
 2471EOH      O 9886   5.180   3.667   3.375  0.0126  0.1811 -0.0740
 2471EOH      C 9887   5.193   3.759   3.267 -0.1201  0.2852 -0.0029
 2471EOH      C 9888   5.234   3.899   3.317  0.3793  0.1406 -0.0071
 2471EOH      H 9889   5.124   3.594   3.353 -1.9587  1.9085 -1.0180
 2472EOH      O 9890   3.948   0.426   1.817  0.6527 -0.0596 -0.0312
 2472EOH      C 9891   3.975   0.562   1.783 -0.2541  0.0961 -0.1396
 2472EOH      C 9892   4.121   0.591   1.821 -0.2045 -0.0673 -0.2027
 2472EOH      H 9893   3.855   0.408   1.808  0.6013  0.4020 -0.4419
 2473EOH      O 9894   3.655   2.205   5.806 -0.3963  0.1645  0.4313
 2473EOH      C 9895   3.703   2.323   5.873 -0.7911  0.4349  0.2414
 2473EOH      C 9896   3.822   2.280   5.961 -0.4991  0.2091 -0.2562
 2473EOH      H 9897   3.570   2.189   5.843  0.1205 -1.1981  1.0593
 2474EOH      O 9898   2.455   3.623   1.749 -0.3120  0.0130 -0.2416
 2474EOH      C 9899   2.417   3.716   1.850  0.1428 -0.0205 -0.0375
 2474EOH      C 9900   2.392   3.852   1.782  0.4596 -0.0383 -0.1888
 2474EOH      H 9901   2.467   3.541   1.795  1.2906 -0.7496 -1.9250
 2475EOH      O 9902   3.099   1.310   6.272 -0.1464  1.1250 -0.2782
 2475EOH      C 9903   3.213   1.250   6.210 -0.2367 -0.1907  0.7800
 2475EOH      C 9904   3.279   1.137   6.290  0.2511 -1.0029 -0.7500
 2475EOH      H 9905   3.073   1.388   6.225  0.5483  2.4566  1.4911
 2476EOH      O 9906   1.965   0.414   3.539  0.3923  0.0105 -0.8608
 2476EOH      C 9907   2.088   0.363   3.592 -0.1498  0.1508  0.5489
 2476EOH      C 9908   2.185   0.359   3.472 -1.1224  0.2799 -0.2483
 2476EOH      H 9909   1.911   0.445   3.610  0.9290  0.2727 -0.5644
 2477EOH      O 9910   2.360   0.977   0.036 -0.2850 -0.1224  0.8391
 2477EOH      C 9911   2.263   1.038   0.122 -0.6691  0.1004  0.2481
 2477EOH      C 9912   2.208   0.946   0.233 -0.1180  0.0464  0.4782
 2477EOH      H 9913   2.441   1.025   0.040 -2.0691  3.2142 -0.6486
 2478EOH      O 9914   1.430   5.275   5.310 -0.1090 -0.1395  0.0390
 2478EOH      C 9915   1.312   5.356   5.310  0.0516  0.0970 -0.0817
 2478EOH      C 9916   1.315   5.456   5.427  0.2319  0.1833 -0.1615
 2478EOH      H 9917   1.437   5.227   5.229  3.2847 -1.0343  0.7839
 2479EOH      O 9918   3.512   3.996   0.083  0.3560 -0.0059 -0.2718
 2479EOH      C 9919   3.473   4.131   0.106  0.4007 -0.0435  0.0268
 2479EOH      C 9920   3.349   4.172   0.024  0.3505 -0.5553 -0.1492
 2479EOH      H 9921   3.602   3.988   0.110  0.8290 -2.0582 -2.2587
 2480EOH      O 9922   5.884   1.911   5.494  0.7745  0.4396  0.2018
 2480EOH      C 9923   5.952   1.802   5.431 -0.4083 -0.0007 -0.3284
 2480EOH      C 9924   6.060   1.853   5.334  0.2458 -0.2344  0.2683
 2480EOH      H 9925   5.847   1.880   5.575  0.6087 -0.3486 -0.1739
 2481EOH      O 9926   2.405   2.851   1.221 -0.0691 -0.1920  0.4111
 2481EOH      C 9927   2.505   2.808   1.128  0.4344 -0.1279  0.9193
 2481EOH      C 9928   2.551   2.937   1.057 -0.3353 -0.4207 -0.1228
 2481EOH      H 9929   2.437   2.857   1.310 -3.7689 -3.4294  2.1165
 2482EOH      O 9930   2.818   2.666   4.881  0.2615  0.7750  0.1262
 2482EOH      C 9931   2.680   2.692   4.857  0.0973  0.1633  0.4181
 2482EOH      C 9932   2.641   2.790   4.969  0.5208 -0.2025  0.8899
 2482EOH      H 9933   2.835   2.641   4.970  1.3382 -0.5026 -0.4173
 2483EOH      O 9934   4.293   4.997   4.033 -0.1191 -0.2954  0.1659
 2483EOH      C 9935   4.215   4.914   4.119 -0.0428 -0.0367  0.4864
 2483EOH      C 9936   4.289   4.780   4.125  0.1724  0.0595 -0.0490
 2483EOH      H 9937   4.276   5.084   4.068  1.4039 -0.0443  0.3462
 2484EOH      O 9938   1.426   0.946   3.905  0.0469 -0.6649  0.3388
 2484EOH      C 9939   1.297   1.007   3.914  0.3256 -0.0538  0.2291
 2484EOH      C 9940   1.304   1.154   3.868  0.4222 -0.1890 -0.1890
 2484EOH      H 9941   1.418   0.856   3.933 -0.7779 -1.1938 -1.4948
 2485EOH      O 9942   1.987   5.770   0.292 -0.4818 -0.5745 -0.0077
 2485EOH      C 9943   2.071   5.771   0.176 -0.4421 -0.3685  0.0232
 2485EOH      C 9944   2.001   5.846   0.060  0.1920  0.2513  0.0372
 2485EOH      H 9945   1.967   5.860   0.314  1.4019 -0.4857  1.5508
 2486EOH      O 9946   0.689   0.495   2.197 -0.7237 -0.6751 -0.2731
 2486EOH      C 9947   0.832   0.488   2.195 -0.6263  0.9696  0.3963
 2486EOH      C 9948   0.898   0.519   2.331 -0.2458 -0.0570  0.4439
 2486EOH      H 9949   0.659   0.480   2.109  1.5125 -2.6369 -0.7587
 2487EOH      O 9950   3.098   3.850   0.066 -0.3584 -0.0316 -0.1256
 2487EOH      C 9951   3.093   3.826  -0.075 -0.7259 -0.1657 -0.0901
 2487EOH      C 9952   3.169   3.695  -0.098 -0.3753  0.1704 -0.8579
 2487EOH      H 9953   3.184   3.840   0.102 -1.2926  0.3152  2.3067
 2488EOH      O 9954   3.021   1.842   5.051  0.2714 -0.1875  0.2044
 2488EOH      C 9955   3.029   1.967   4.982  0.4542 -0.2200  0.1664
 2488EOH      C 9956   3.145   1.965   4.881  0.4454  0.4981  0.1340
 2488EOH      H 9957   2.931   1.816   5.040  0.8744 -1.4113 -2.4125
 2489EOH      O 9958   0.760   4.523   0.451 -0.1324  0.5237 -0.3260
 2489EOH      C 9959   0.733   4.662   0.471  0.0863  0.4994  0.1337
 2489EOH      C 9960   0.666   4.724   0.347 -0.1884  0.5822  0.3227
 2489EOH      H 9961   0.686   4.494   0.399 -1.4986 -1.8396  2.7897
 2490EOH      O 9962   0.389   3.192   2.642  0.0485  0.1820  0.2588
 2490EOH      C 9963   0.524   3.143   2.638  0.0130  0.0980  0.0792
 2490EOH      C 9964   0.619   3.200   2.745 -0.3263  0.3150  0.2685
 2490EOH      H 9965   0.341   3.150   2.572 -2.2908  1.9508  0.7575
 2491EOH      O 9966   1.777   5.645   0.343  0.5529  0.1118 -0.0257
 2491EOH      C 9967   1.779   5.507   0.306  0.2005  0.1718 -0.2739
 2491EOH      C 9968   1.639   5.445   0.324  0.2814 -0.0549 -0.4256
 2491EOH      H 9969   1.860   5.680   0.316  0.3676  0.1950 -0.4874
 2492EOH      O 9970   3.311   4.099   1.191  0.7865  0.5692  0.1741
 2492EOH      C 9971   3.269   3.965   1.167  0.1356  0.6923  0.6237
 2492EOH      C 9972   3.116   3.951   1.155  0.2479 -0.4088  0.3719
 2492EOH      H 9973   3.405   4.092   1.182  0.8047  0.4968  0.4057
 2493EOH      O 9974   5.205   1.568   5.929 -0.1083 -0.4992  0.2617
 2493EOH      C 9975   5.317   1.595   6.014  0.2644 -0.4534 -0.2380
 2493EOH      C 9976   5.458   1.607   5.953  0.1030  0.1264 -0.4950
 2493EOH      H 9977   5.133   1.532   5.979 -0.7152 -0.2075 -0.4012
 2494EOH      O 9978   3.383   5.253   1.201  0.2957  0.2544 -0.2916
 2494EOH      C 9979   3.254   5.280   1.257  0.5779  0.4975  0.2431
 2494EOH      C 9980   3.235   5.214   1.395  0.4019  0.2211  0.0881
 2494EOH      H 9981   3.376   5.293   1.115 -0.2744 -1.8935 -1.2687
 2495EOH      O 9982   1.349   0.891   1.929 -0.0196 -0.1557  0.3672
 2495EOH      C 9983   1.450   0.795   1.961  0.6479  0.1335 -0.8338
 2495EOH      C 9984   1.565   0.859   2.040 -0.2849  0.1965  0.4920
 2495EOH      H 9985   1.271   0.839   1.925  0.0022 -0.2365  0.9597
 2496EOH      O 9986   3.399   2.282   4.380  0.5351  1.1468  0.0192
 2496EOH      C 9987   3.512   2.251   4.298 -0.0380  0.0741 -0.3787
 2496EOH      C 9988   3.477   2.188   4.162 -0.2065  0.3449 -0.4615
 2496EOH      H 9989   3.350   2.347   4.332  1.8028  0.5809 -2.1342
 2497EOH      O 9990   4.367   3.251   3.254 -0.2532 -0.1120  0.6786
 2497EOH      C 9991   4.451   3.161   3.183 -0.7745 -0.1110  0.0554
 2497EOH      C 9992   4.424   3.150   3.032 -0.0832 -0.3838 -0.0521
 2497EOH      H 9993   4.292   3.278   3.204 -0.0847 -0.1501  0.4086
 2498EOH      O 9994   2.559   0.079   6.311 -0.4766 -0.5678 -0.0846
 2498EOH      C 9995   2.668  -0.009   6.281 -0.0923 -0.2309  0.3350
 2498EOH      C 9996   2.786   0.046   6.365  0.1079 -0.5333  0.2503
 2498EOH      H 9997   2.575   0.159   6.264 -1.1091 -0.3562  0.0631
 2499EOH      O 9998   5.301   4.545   2.816  0.1971  0.1063  0.3102
 2499EOH      C 9999   5.409   4.638   2.805  0.2402  0.0263  0.0226
 2499EOH      C10000   5.434   4.675   2.658  0.3063  0.2113  0.0801
 2499EOH      H10001   5.338   4.477   2.761  1.7366  0.9831  0.2464
 2500EOH      O10002   1.970   4.798   0.363 -0.4174  0.0289 -0.1687
 2500EOH      C10003   1.979   4.936   0.328  0.3652  0.1160  0.3690
 2500EOH      C10004   2.112   4.969   0.257  0.4960 -0.6083  0.2714
 2500EOH      H10005   1.886   4.760   0.344 -0.9290  1.9733 -2.0119
 2501EOH      O10006   4.278   2.949   6.172  0.2830  0.2261 -0.2553
 2501EOH      C10007   4.163   2.987   6.247  0.4255  0.5846 -0.2175
 2501EOH      C10008   4.201   3.084   6.360 -0.0178 -0.1670  0.5872
 2501EOH      H10009   4.330   2.886   6.220  0.2854  0.1527 -0.3528
 2502EOH      O10010   4.363   3.812   3.341 -0.3690  0.4664  0.0612
 2502EOH      C10011   4.333   3.706   3.249  0.0381 -0.1032  0.5774
 2502EOH      C10012   4.452   3.613   3.222  0.0833 -0.0940  0.7473
 2502EOH      H10013   4.296   3.878   3.334 -0.6819  0.2072  0.5669
 2503EOH      O10014   2.516   3.779   3.013  0.4112  0.4043 -0.6836
 2503EOH      C10015   2.489   3.640   3.032 -0.0954  0.4683 -0.9328
 2503EOH      C10016   2.618   3.556   3.017 -0.1558  0.1608  0.2409
 2503EOH      H10017   2.438   3.832   3.013 -0.1320 -0.3686  0.5665
 2504EOH      O10018   2.876   1.662   0.331 -0.5358 -0.2974  0.0276
 2504EOH      C10019   2.838   1.605   0.205 -0.6819  0.7838 -0.4248
 2504EOH      C10020   2.777   1.465   0.222  0.0544  0.5172  0.0612
 2504EOH      H10021   2.816   1.638   0.400  0.3241  1.4407  1.4127
 2505EOH      O10022   3.992   2.580   3.831  0.3149 -0.3757 -0.1165
 2505EOH      C10023   4.095   2.482   3.824  0.1161 -0.6123  0.2552
 2505EOH      C10024   4.186   2.494   3.700  0.0942 -0.6735  0.2331
 2505EOH      H10025   3.966   2.594   3.921 -1.8784 -1.3122 -0.5614
 2506EOH      O10026   0.503   3.383   6.270 -0.1029 -0.2833 -0.4718
 2506EOH      C10027   0.617   3.424   6.195  0.0358  0.1854 -0.0147
 2506EOH      C10028   0.713   3.303   6.183  0.3200  0.3639  0.4676
 2506EOH      H10029   0.527   3.384   6.361  0.6108 -0.3777 -0.6565
 2507EOH      O10030   6.068   2.568   2.147 -0.2017  0.1093 -0.0293
 2507EOH      C10031   6.038   2.457   2.061  0.1436  0.3789 -0.4997
 2507EOH      C10032   5.899   2.401   2.095  0.3310  0.6954  0.8205
 2507EOH      H10033   6.153   2.605   2.128  0.3250 -1.5025 -0.9193
 2508EOH      O10034   2.687   6.021   5.890  0.4959 -0.0294 -0.0788
 2508EOH      C10035   2.718   5.885   5.921  0.5326 -0.0865 -0.3620
 2508EOH      C10036   2.634   5.806   5.819 -0.1075 -0.1409  0.2022
 2508EOH      H10037   2.754   6.071   5.934  0.6739 -1.4311  1.2662
 2509EOH      O10038   3.141   3.202   4.687  0.1215  0.3967 -0.1374
 2509EOH      C10039   3.038   3.298   4.665 -0.3677  0.0015  0.4140
 2509EOH      C10040   3.052   3.358   4.524  0.0977 -0.2577  0.3503
 2509EOH      H10041   3.173   3.219   4.774  0.2281  1.6982 -0.4323
 2510EOH      O10042   3.942   6.108   1.632  0.6423 -0.1841  0.0483
 2510EOH      C10043   3.973   6.032   1.749  0.0617 -0.2805  0.1417
 2510EOH      C10044   4.121   5.989   1.755  0.4739  1.0942  0.0603
 2510EOH      H10045   3.958   6.196   1.661 -0.5543 -0.4520  1.5615
 2511EOH      O10046   4.194   3.704   2.623 -0.3996  0.0151 -0.2193
 2511EOH      C10047   4.331   3.691   2.585 -0.3656 -0.0137 -0.0871
 2511EOH      C10048   4.365   3.548   2.541 -0.0441  0.2321 -0.6453
 2511EOH      H10049   4.149   3.726   2.543 -0.8663  3.0363  0.7848
 2512EOH      O10050   5.132   5.791   1.345  0.2529  0.3402  0.0406
 2512EOH      C10051   5.001   5.738   1.321  0.1561  0.3340  0.5857
 2512EOH      C10052   4.991   5.594   1.375  0.3694  0.3878  0.7691
 2512EOH      H10053   5.133   5.878   1.310 -2.6074 -0.3414 -1.8834
 2513EOH      O10054   0.568   0.700   0.978  0.0153  0.5611  0.2373
 2513EOH      C10055   0.503   0.789   0.887  0.1807  0.0519 -0.3809
 2513EOH      C10056   0.499   0.927   0.956 -0.4177 -0.2386  0.1733
 2513EOH      H10057   0.658   0.730   0.980  0.2252 -0.0483 -0.0875
 2514EOH      O10058   1.830   1.905   2.573  0.0486 -0.1105 -0.2221
 2514EOH      C10059   1.691   1.900   2.543 -0.0394  0.4018  0.0934
 2514EOH      C10060   1.618   2.029   2.586 -0.4773 -0.0427  0.7031
 2514EOH      H10061   1.840   1.872   2.661 -1.7577  2.3844  0.9731
 2515EOH      O10062   0.887   4.279   3.463 -0.3094 -0.2074 -0.1475
 2515EOH      C10063   0.813   4.345   3.566 -0.0750 -0.1768  0.0018
 2515EOH      C10064   0.896   4.458   3.630  0.2460 -0.3639 -0.0880
 2515EOH      H10065   0.943   4.215   3.503 -0.0883 -0.4295 -0.8047
 2516EOH      O10066   2.171   3.772   4.501  0.1377  0.1756 -0.4392
 2516EOH      C10067   2.029   3.785   4.503  0.1781  0.5478  0.1979
 2516EOH      C10068   1.967   3.721   4.630 -0.2573  0.3521 -0.1099
 2516EOH      H10069   2.200   3.689   4.468  1.5648 -0.0868  1.4029
 2517EOH      O10070   0.879   2.105   1.134  0.2794 -0.0658  0.2106
 2517EOH      C10071   1.010   2.136   1.083  0.0339 -0.3786 -0.6240
 2517EOH      C10072   1.065   2.266   1.145 -0.5157 -0.2025 -0.4931
 2517EOH      H10073   0.822   2.149   1.073 -0.0485  0.9712  1.2335
 2518EOH      O10074   3.614   4.667   6.076 -0.5374 -0.4828  0.2362
 2518EOH      C10075   3.573   4.711   6.206  0.1408  0.0170  0.2861
 2518EOH      C10076   3.435   4.653   6.240  0.3465 -0.0634  0.9960
 2518EOH      H10077   3.542   4.673   6.015  1.1156 -0.5386 -1.7958
 2519EOH      O10078   5.091   2.087   4.722  0.2904 -0.2551 -0.6520
 2519EOH      C10079   5.028   2.152   4.611 -0.2931  0.0775 -0.1259
 2519EOH      C10080   5.076   2.082   4.483  0.0997 -0.4085  0.2867
 2519EOH      H10081   5.067   2.140   4.796 -2.4802 -0.9702 -0.9882
 2520EOH      O10082   2.354   2.129   5.792 -0.3391 -0.1257 -0.0958
 2520EOH      C10083   2.387   2.191   5.667 -0.1029  0.5047  0.2792
 2520EOH      C10084   2.533   2.176   5.619 -0.5311 -0.9340 -0.5882
 2520EOH      H10085   2.263   2.145   5.810 -0.6977 -0.8380 -1.2089
 2521EOH      O10086   0.220   1.881   4.744 -0.2405 -0.2872 -0.1039
 2521EOH      C10087   0.130   1.914   4.637 -0.1904 -0.1001 -0.0891
 2521EOH      C10088   0.188   1.962   4.503  0.0672 -0.5998 -0.1577
 2521EOH      H10089   0.168   1.882   4.822 -2.0063 -2.1771 -1.2067
 2522EOH      O10090   1.009   1.852   0.203 -0.2231 -0.4330  0.3480
 2522EOH      C10091   1.053   1.859   0.067  0.1378 -0.0917  0.4815
 2522EOH      C10092   1.199   1.908   0.063  0.2216 -0.3362  0.5513
 2522EOH      H10093   1.064   1.899   0.264 -0.7992 -0.5738  0.9862
 2523EOH      O10094   2.096   6.030   1.689  0.3114  0.0099 -0.1705
 2523EOH      C10095   1.973   5.963   1.665  0.2717  0.0486 -0.0741
 2523EOH      C10096   1.866   6.038   1.746  0.3914 -0.1576  0.2773
 2523EOH      H10097   2.101   6.110   1.638  3.2054  0.3908  0.5998
 2524EOH      O10098   0.966   2.577   0.979 -0.2693  0.2344  0.3655
 2524EOH      C10099   0.945   2.709   1.030  0.3374  0.3715  0.2700
 2524EOH      C10100   1.026   2.734   1.159  0.5208 -0.0827  0.2431
 2524EOH      H10101   1.055   2.573   0.947  0.7523  0.8019  3.0872
 2525EOH      O10102   0.770   1.118   5.190 -0.0835  1.1145 -0.2418
 2525EOH      C10103   0.637   1.113   5.139 -0.3220 -0.2305  0.5199
 2525EOH      C10104   0.623   1.188   5.006  0.4347 -0.5066  0.2850
 2525EOH      H10105   0.776   1.061   5.265  0.4364  0.4565 -0.7713
 2526EOH      O10106   4.253   4.530   2.704  0.0082 -0.5168 -0.4184
 2526EOH      C10107   4.173   4.616   2.623  0.3019 -0.3022 -0.4822
 2526EOH      C10108   4.229   4.643   2.482 -0.4146  0.3294 -0.6509
 2526EOH      H10109   4.220   4.510   2.790  1.1760 -0.4967  0.0414
 2527EOH      O10110   4.085   5.909   3.534  0.0454 -0.0646 -0.2873
 2527EOH      C10111   4.111   6.023   3.616 -0.2608 -0.4394  0.3346
 2527EOH      C10112   4.252   6.078   3.583 -0.5829  0.0592 -0.2065
 2527EOH      H10113   4.122   5.906   3.447 -0.9295  1.5015 -0.7784
 2528EOH      O10114   5.702   2.357   4.127 -0.1871  0.5375 -0.1029
 2528EOH      C10115   5.702   2.317   3.990 -0.1971 -0.5617  0.2155
 2528EOH      C10116   5.850   2.307   3.950 -0.1264  0.2856  0.2618
 2528EOH      H10117   5.611   2.351   4.151 -0.8475  1.9727 -2.0336
 2529EOH      O10118   1.665   0.261   2.654 -0.1593  0.1580 -0.2666
 2529EOH      C10119   1.715   0.288   2.522  0.0662  0.2384 -0.1653
 2529EOH      C10120   1.682   0.172   2.427 -0.2396 -0.1245  0.3804
 2529EOH      H10121   1.712   0.185   2.685  0.2898 -0.2598 -1.8667
 2530EOH      O10122   4.316   5.931   0.105 -0.0326  0.2881 -0.4193
 2530EOH      C10123   4.415   6.034   0.096 -0.2610  0.5537  0.0857
 2530EOH      C10124   4.412   6.074  -0.052  0.1910  0.5564  0.0786
 2530EOH      H10125   4.364   5.851   0.120 -1.1665 -0.8927 -2.7489
 2531EOH      O10126   2.018   2.595   2.498 -0.3177  0.2159 -0.4145
 2531EOH      C10127   2.056   2.681   2.390  0.6027 -0.2302 -0.4528
 2531EOH      C10128   2.149   2.790   2.447 -0.2452 -0.0091  0.5269
 2531EOH      H10129   1.936   2.556   2.470 -1.8652  0.7802  3.0394
 2532EOH      O10130   3.222   5.737   0.049  0.1745 -0.1949 -0.0045
 2532EOH      C10131   3.158   5.610   0.045  0.4391 -0.3246 -0.0812
 2532EOH      C10132   3.222   5.540  -0.076  0.4638  0.1441 -0.3403
 2532EOH      H10133   3.246   5.762   0.137 -3.0056  0.6740  0.6705
 2533EOH      O10134   5.406   0.516   5.262  0.1801 -0.0662 -0.0693
 2533EOH      C10135   5.510   0.478   5.352 -0.3073 -0.3396  0.3805
 2533EOH      C10136   5.650   0.466   5.289 -0.2775  0.4528  0.2933
 2533EOH      H10137   5.419   0.457   5.189 -1.9757 -1.8076  0.9019
 2534EOH      O10138   1.847   5.954   5.928  0.0026  0.1240  0.2077
 2534EOH      C10139   1.961   6.040   5.927 -0.0031  0.1298 -0.4083
 2534EOH      C10140   2.051   6.029   6.052 -0.6464 -0.4394  0.0057
 2534EOH      H10141   1.880   5.877   5.885  1.9772  1.2376 -0.3193
 2535EOH      O10142   0.614   3.681   5.169  0.0731  0.0838 -0.0006
 2535EOH      C10143   0.531   3.779   5.105  0.1634  0.0556 -0.1611
 2535EOH      C10144   0.388   3.729   5.076  0.0160  0.6277 -0.4258
 2535EOH      H10145   0.679   3.729   5.218  1.5279 -1.7620 -0.0973
 2536EOH      O10146   0.228   0.422   3.868 -0.4396  0.4764 -0.5538
 2536EOH      C10147   0.261   0.286   3.839  0.8159  0.6841 -0.1309
 2536EOH      C10148   0.262   0.279   3.685  0.6887  0.3515 -0.1170
 2536EOH      H10149   0.136   0.434   3.887 -0.1496  0.9080  0.6077
 2537EOH      O10150   2.186   5.807   3.604 -0.1000 -0.3705 -0.0954
 2537EOH      C10151   2.214   5.676   3.556 -0.0585 -0.4063  0.0280
 2537EOH      C10152   2.129   5.669   3.428 -0.2249  0.0001  0.1161
 2537EOH      H10153   2.229   5.802   3.689  0.7103  0.0415 -0.4791
 2538EOH      O10154   2.774   1.790   5.034 -0.1331 -0.3549  0.0052
 2538EOH      C10155   2.672   1.788   4.934 -0.3994  0.1431  0.2598
 2538EOH      C10156   2.639   1.647   4.881 -0.1730 -0.0132  0.5331
 2538EOH      H10157   2.754   1.721   5.095 -0.7967 -0.5315 -0.4107
 2539EOH      O10158   3.037   0.021   3.294 -0.0609 -0.2487 -0.0886
 2539EOH      C10159   2.917   0.098   3.282  0.3207  0.3434 -0.1308
 2539EOH      C10160   2.812   0.028   3.193  0.0760 -0.0450  0.4564
 2539EOH      H10161   3.098   0.068   3.240 -0.2064 -0.2018 -0.2135
 2540EOH      O10162   3.048   4.362   5.963 -0.2554  0.1459  0.0938
 2540EOH      C10163   3.055   4.493   6.018 -0.3848  0.3088 -0.2760
 2540EOH      C10164   2.914   4.555   6.020 -0.4641  0.1145  0.2991
 2540EOH      H10165   3.109   4.364   5.891  0.7168 -0.9154  0.8762
 2541EOH      O10166   3.398   3.612   1.937 -0.4282 -1.3835  0.5017
 2541EOH      C10167   3.370   3.510   1.840  0.0800 -0.6624 -0.4131
 2541EOH      C10168   3.270   3.414   1.905 -0.4633  0.0303 -0.2168
 2541EOH      H10169   3.320   3.647   1.977  0.4870  1.3519  0.0118
 2542EOH      O10170   3.420   3.155   3.906 -0.3036  0.3882 -0.3140
 2542EOH      C10171   3.343   3.084   3.810 -0.3679 -0.0552  0.0635
 2542EOH      C10172   3.257   2.971   3.871 -0.5151  0.3895  0.6763
 2542EOH      H10173   3.368   3.194   3.975  0.1969  3.1174 -1.4162
 2543EOH      O10174   3.021   0.494   2.937 -0.1701  0.0966 -0.2476
 2543EOH      C10175   3.098   0.611   2.907  0.1632  0.0414  0.3852
 2543EOH      C10176   3.079   0.663   2.763  0.0549 -0.1301  0.3372
 2543EOH      H10177   2.975   0.508   3.019  1.2742 -1.4761  0.8444
 2544EOH      O10178   0.603   0.876   2.972 -0.5109  0.1655 -0.2115
 2544EOH      C10179   0.509   0.889   3.079 -0.0573 -0.1643  0.2285
 2544EOH      C10180   0.563   0.992   3.180 -0.3831  0.6870 -0.4546
 2544EOH      H10181   0.656   0.798   2.981  0.9120  1.3812  2.2888
 2545EOH      O10182   3.012   0.400   1.697 -0.2349  0.3764 -0.2606
 2545EOH      C10183   3.044   0.475   1.814  0.4673 -0.0564 -0.1779
 2545EOH      C10184   2.930   0.576   1.832  0.4376 -0.1396  0.1185
 2545EOH      H10185   3.088   0.350   1.673 -0.5481  0.3728 -1.2858
 2546EOH      O10186   3.312   0.616   3.613 -0.0553 -0.1359  0.5426
 2546EOH      C10187   3.386   0.713   3.687  0.2677  0.0448 -0.0130
 2546EOH      C10188   3.490   0.770   3.589  0.2749 -0.0847 -0.0806
 2546EOH      H10189   3.308   0.538   3.667 -2.8577 -0.7851 -0.5402
 2547EOH      O10190   3.623   3.330   4.631 -0.6630 -0.4803 -0.3577
 2547EOH      C10191   3.573   3.460   4.596 -0.3846 -0.3541 -0.2857
 2547EOH      C10192   3.515   3.520   4.725 -0.0209 -0.6306  0.0090
 2547EOH      H10193   3.713   3.341   4.656 -1.0152  0.0853  0.6582
 2548EOH      O10194   3.418   3.421   0.456 -0.1004 -0.1173 -0.2204
 2548EOH      C10195   3.357   3.355   0.567  0.4740 -0.4482 -0.1024
 2548EOH      C10196   3.459   3.248   0.610  0.1832 -0.5050  0.4526
 2548EOH      H10197   3.398   3.365   0.383 -1.4223  2.4198 -1.8965
 2549EOH      O10198   5.682   5.657   4.027  0.3552 -0.0198  0.0096
 2549EOH      C10199   5.666   5.796   4.054 -0.1078 -0.0732  0.0338
 2549EOH      C10200   5.713   5.885   3.937 -0.2014 -0.1267 -0.0430
 2549EOH      H10201   5.630   5.600   4.082  0.7508  0.3118  0.7325
 2550EOH      O10202   3.594   4.039   3.111  0.1309 -0.6204  0.8832
 2550EOH      C10203   3.705   4.104   3.173  0.1956  0.0173  0.0997
 2550EOH      C10204   3.658   4.161   3.308 -0.1300  0.3499 -0.1508
 2550EOH      H10205   3.614   4.027   3.020 -3.4944 -0.0562 -0.0720
 2551EOH      O10206   5.141   6.170   4.643  0.1056 -0.0919 -0.0224
 2551EOH      C10207   5.164   6.030   4.659  0.7690 -0.0238 -0.3559
 2551EOH      C10208   5.105   5.962   4.534  0.5085  0.2209 -0.3675
 2551EOH      H10209   5.085   6.207   4.709 -0.0018  1.6886 -1.0704
 2552EOH      O10210   3.643   0.056   2.545 -0.3927 -0.1797  0.2174
 2552EOH      C10211   3.652   0.150   2.438 -0.0314  0.0958  0.4861
 2552EOH      C10212   3.795   0.199   2.410 -0.0791  0.2404  0.4969
 2552EOH      H10213   3.560   0.071   2.588  0.4599  2.0329  1.2066
 2553EOH      O10214   5.084   4.642   1.371  0.0605 -0.5757 -0.5050
 2553EOH      C10215   5.225   4.617   1.378  0.1850  0.0981 -0.5524
 2553EOH      C10216   5.301   4.722   1.462 -0.4442  0.6307 -0.6442
 2553EOH      H10217   5.059   4.665   1.282  0.9549  2.4319 -0.0391
 2554EOH      O10218   4.964   2.949   2.333 -0.0011 -0.0106 -1.0083
 2554EOH      C10219   5.066   3.044   2.364 -0.1595 -0.1689  0.0242
 2554EOH      C10220   4.998   3.181   2.384 -0.1618 -0.1043 -0.4221
 2554EOH      H10221   4.918   2.976   2.255 -0.4904 -0.0620 -0.7390
 2555EOH      O10222   2.240   4.209   3.914 -0.9556 -0.0753 -0.2653
 2555EOH      C10223   2.300   4.239   3.788  0.3968 -0.4441  0.2844
 2555EOH      C10224   2.333   4.118   3.698 -0.5095 -0.3320 -0.2050
 2555EOH      H10225   2.146   4.199   3.903 -0.8602 -0.5389 -0.6940
 2556EOH      O10226   4.881   2.099   0.410 -0.2172 -0.5729  0.5155
 2556EOH      C10227   4.752   2.133   0.360  0.1451  0.2154  0.1148
 2556EOH      C10228   4.665   2.123   0.487  0.7614  0.4977  0.5620
 2556EOH      H10229   4.934   2.137   0.342  0.4826 -2.8448 -0.2582
 2557EOH      O10230   5.761   2.284   1.196 -0.0042 -0.0267 -0.3392
 2557EOH      C10231   5.658   2.292   1.097  0.1054 -0.6680 -0.5098
 2557EOH      C10232   5.727   2.313   0.961 -0.1129  0.1971 -0.4948
 2557EOH      H10233   5.720   2.299   1.279  0.2049 -1.3385  0.0122
 2558EOH      O10234   4.000   0.986   4.846 -0.5306 -0.2480  0.2793
 2558EOH      C10235   4.043   0.997   4.982 -0.2925  0.3070  0.1630
 2558EOH      C10236   4.033   0.862   5.056  0.3104 -0.2282 -0.7238
 2558EOH      H10237   3.940   1.057   4.830  0.1032  0.4837  1.1003
 2559EOH      O10238   3.641   3.525   0.481  0.0209 -0.1967 -0.2274
 2559EOH      C10239   3.684   3.534   0.345 -0.0821  0.1258 -0.2397
 2559EOH      C10240   3.815   3.615   0.353 -0.5681  0.8676  0.2787
 2559EOH      H10241   3.550   3.502   0.473 -0.1803  0.4832  0.0529
 2560EOH      O10242   0.456   0.128   4.497  0.2702 -0.4976 -0.1864
 2560EOH      C10243   0.313   0.132   4.499  0.3119  0.6887  0.7512
 2560EOH      C10244   0.265   0.007   4.575  0.3542 -0.0023 -0.3525
 2560EOH      H10245   0.489   0.179   4.424  2.6723 -1.0563  0.4638
 2561EOH      O10246   6.122   1.119   5.655 -0.5259 -0.7186  0.6893
 2561EOH      C10247   6.249   1.054   5.665 -0.1065 -0.0230 -0.1147
 2561EOH      C10248   6.252   0.973   5.796  0.1683  0.1006 -0.0443
 2561EOH      H10249   6.105   1.172   5.731 -0.0240 -0.1775  0.4276
 2562EOH      O10250   5.052   2.255   4.915  0.3384 -0.1478  0.2164
 2562EOH      C10251   4.946   2.244   5.010  0.3632  0.0944  0.2704
 2562EOH      C10252   4.936   2.092   5.031  0.2603  0.0212 -0.2978
 2562EOH      H10253   5.121   2.289   4.970 -2.0556  2.4481  1.7770
 2563EOH      O10254   3.160   3.242   3.279  0.1282 -0.4260  0.1806
 2563EOH      C10255   3.090   3.163   3.183  0.0496 -0.0972 -0.0327
 2563EOH      C10256   3.145   3.174   3.040 -0.7326 -0.1813 -0.3462
 2563EOH      H10257   3.112   3.255   3.360 -0.4280  0.6419 -0.3115
 2564EOH      O10258   3.694   0.954   1.022 -0.5501 -0.5209 -0.8436
 2564EOH      C10259   3.670   1.063   0.932  0.2528  0.1601 -0.2533
 2564EOH      C10260   3.803   1.085   0.858  0.5376  0.2546  0.2858
 2564EOH      H10261   3.627   0.967   1.088 -0.5988  0.6531 -1.1047
 2565EOH      O10262   6.195   4.946   4.752  0.0306  0.1482 -0.3498
 2565EOH      C10263   6.329   4.991   4.775  0.0780 -0.3235  0.2867
 2565EOH      C10264   6.387   4.958   4.914  0.4693 -0.7201  0.0294
 2565EOH      H10265   6.156   5.013   4.698  2.1516  0.9830 -0.8998
 2566EOH      O10266   0.287   5.960   5.406 -0.1226 -0.1171  0.6172
 2566EOH      C10267   0.190   6.058   5.442 -0.4673 -0.1141 -0.3125
 2566EOH      C10268   0.081   5.982   5.520  0.1547 -0.3484  0.3294
 2566EOH      H10269   0.369   5.992   5.372 -0.8439 -0.0111 -1.0892
 2567EOH      O10270   5.084   1.341   2.659  0.6061 -0.3701  0.1012
 2567EOH      C10271   5.159   1.321   2.539 -0.4212 -0.0156 -0.6068
 2567EOH      C10272   5.112   1.420   2.430 -0.1694  0.7325 -0.0465
 2567EOH      H10273   5.139   1.306   2.727  1.6615 -0.4129 -0.7684
 2568EOH      O10274   1.380   0.654   2.777 -0.6374 -0.1338 -0.0492
 2568EOH      C10275   1.405   0.711   2.905 -0.4844 -0.5333  0.0977
 2568EOH      C10276   1.283   0.780   2.968 -0.4320 -0.0120 -0.3734
 2568EOH      H10277   1.405   0.563   2.773  0.7886  0.1945  1.1343
   6.31906   6.31906   6.31906
