Ethanol
    9
    1EOH      O    1   3.951   3.894   4.049 -0.0028  0.2666  0.2159
    1EOH      C    2   3.958   3.953   3.919 -0.6744 -0.4324 -0.1486
    1EOH      C    3   3.880   4.085   3.910  0.8234  0.4797 -0.0492
    1EOH      H    4   3.994   3.811   4.035  0.1932  0.4230 -0.1047
    1EOH      H    5   3.919   3.878   3.850 -3.6971  0.8211  0.0477
    1EOH      H    6   4.064   3.974   3.899 -0.0451 -2.3860  0.8250
    1EOH      H    7   3.774   4.075   3.929  0.7025 -1.0092 -1.4079
    1EOH      H    8   3.893   4.132   3.813 -0.3900 -1.8754 -1.4113
    1EOH      H    9   3.915   4.160   3.982  1.5065 -0.7688  0.9804
   7.90000   7.90000   7.90000
