Ethanol
10277
    1EOH      O    1   3.793   2.680   3.860  0.0779  0.0751  0.1570
    1EOH      C    2   3.764   2.542   3.887 -0.1121  0.0912  0.0314
    1EOH      C    3   3.749   2.454   3.762 -0.3571 -0.1752  0.2480
    1EOH      H    4   3.777   2.724   3.942 -1.1177  0.0341 -0.0413
    1EOH      H    5   3.673   2.546   3.946  0.0415  0.5454  0.2420
    1EOH      H    6   3.853   2.516   3.945 -0.5337 -2.0141 -0.2331
    1EOH      H    7   3.678   2.493   3.688  0.5982 -1.8334 -1.5782
    1EOH      H    8   3.722   2.355   3.799  0.0804 -1.4171 -2.5738
    1EOH      H    9   3.841   2.427   3.711 -1.2730  1.6068 -2.4973
    2EOH      O   10   1.668   1.283   3.488  0.1009 -0.0729 -0.0367
    2EOH      C   11   1.539   1.223   3.497  0.0985 -0.0417  0.1282
    2EOH      C   12   1.538   1.150   3.633  0.3518 -0.5077 -0.1210
    2EOH      H   13   1.739   1.232   3.524 -0.3735 -1.3807 -0.9138
    3EOH      O   14   0.378   2.939   2.587  0.0469  0.0412 -0.1249
    3EOH      C   15   0.293   2.825   2.598  0.5025 -0.3181 -0.3271
    3EOH      C   16   0.299   2.785   2.746 -0.0263  0.0323 -0.2099
    3EOH      H   17   0.395   2.962   2.497  0.8648  0.2157  0.0662
    4EOH      O   18   0.803   1.476   3.437  0.2243  0.0615  0.5118
    4EOH      C   19   0.725   1.475   3.557  0.5980  0.0591  0.7543
    4EOH      C   20   0.801   1.405   3.672  1.0815 -0.6660  0.0042
    4EOH      H   21   0.761   1.542   3.382 -0.7999  1.2685  2.6900
    5EOH      O   22   1.726   1.979   7.560 -0.3971  0.0166 -0.2553
    5EOH      C   23   1.860   2.028   7.553 -0.4617  0.1878 -0.2818
    5EOH      C   24   1.936   1.936   7.456  0.3938  0.0128  0.5500
    5EOH      H   25   1.736   1.894   7.601  0.0095  0.2582  0.1499
    6EOH      O   26   7.723   7.331   2.449 -0.2274  0.0224  0.5598
    6EOH      C   27   7.762   7.468   2.438 -0.1280 -0.0977 -0.5611
    6EOH      C   28   7.672   7.549   2.341 -0.7357  0.5529  0.5404
    6EOH      H   29   7.657   7.317   2.515 -0.1113  0.0187  0.6745
    7EOH      O   30   3.784   1.982   0.550 -0.2028 -0.0682  0.5161
    7EOH      C   31   3.896   1.928   0.621  0.3938  0.5118  0.0225
    7EOH      C   32   3.848   1.798   0.687  0.9564  0.0990 -0.3754
    7EOH      H   33   3.816   2.070   0.536  3.0037 -1.3324 -0.6801
    8EOH      O   34   0.938   0.565   1.138 -0.1157 -0.8701  0.7545
    8EOH      C   35   0.835   0.535   1.043  0.1456  0.5160  0.0286
    8EOH      C   36   0.831   0.382   1.029 -0.0082  0.4895  0.3629
    8EOH      H   37   0.909   0.549   1.227  2.1809 -2.5766  1.2206
    9EOH      O   38   1.347   3.159   4.284 -0.4809 -0.8573  0.5611
    9EOH      C   39   1.327   3.040   4.361 -0.2939 -1.3125 -0.0901
    9EOH      C   40   1.435   2.938   4.319  0.7237 -0.1877 -0.2336
    9EOH      H   41   1.282   3.227   4.294  1.2493  0.8433  0.4306
   10EOH      O   42   2.068   7.574   2.214 -0.1036  0.5415  0.2096
   10EOH      C   43   2.044   7.578   2.073  0.2247  0.0376  0.1384
   10EOH      C   44   2.056   7.723   2.022 -0.0790  0.0757  0.1760
   10EOH      H   45   2.092   7.487   2.240  1.4283  0.6056 -0.9077
   11EOH      O   46   6.291   0.440   4.026 -0.3964 -0.2196  0.3157
   11EOH      C   47   6.196   0.520   3.954 -0.3338 -0.3952  0.0364
   11EOH      C   48   6.090   0.423   3.898 -0.4802 -0.3864  0.3020
   11EOH      H   49   6.325   0.496   4.094 -1.1719 -2.5530  2.7292
   12EOH      O   50   3.427   4.589   0.029  0.0076  0.2463  0.0403
   12EOH      C   51   3.556   4.646   0.008 -0.0106  0.1994 -0.2046
   12EOH      C   52   3.588   4.740   0.126 -0.8892  0.2555 -0.0086
   12EOH      H   53   3.421   4.515  -0.030  0.1641  1.6673 -1.8165
   13EOH      O   54   3.488   2.962   3.531 -0.3590 -0.1928  0.0180
   13EOH      C   55   3.615   2.985   3.590 -0.0503 -0.0468 -0.6975
   13EOH      C   56   3.641   3.129   3.638  0.7809 -0.3285 -0.2732
   13EOH      H   57   3.412   2.989   3.581 -1.3513 -2.3427 -0.2395
   14EOH      O   58   4.112   5.843   2.655 -0.3759 -0.5265  0.2695
   14EOH      C   59   4.173   5.857   2.526 -0.0171  0.2572  0.5168
   14EOH      C   60   4.099   5.772   2.420  0.5974  0.1268  0.1890
   14EOH      H   61   4.078   5.925   2.687 -0.9361 -0.8534  0.5109
   15EOH      O   62   0.843   2.273   5.602  0.7941 -0.3558  0.0658
   15EOH      C   63   0.839   2.409   5.647 -0.0157 -0.4776  0.3804
   15EOH      C   64   0.695   2.461   5.663 -0.0734 -0.4291 -0.2770
   15EOH      H   65   0.780   2.259   5.533  0.2135 -1.0032  0.7166
   16EOH      O   66   2.775   3.031   3.910 -0.3306  0.2004  0.0642
   16EOH      C   67   2.914   3.000   3.921 -0.3215  0.1077 -0.2820
   16EOH      C   68   2.931   2.862   3.856 -0.2663  0.1329 -0.3198
   16EOH      H   69   2.775   3.124   3.892  0.2100 -0.1299 -1.8049
   17EOH      O   70   3.598   5.388   4.677 -0.0367 -0.0196  0.5408
   17EOH      C   71   3.651   5.513   4.722  0.5956 -0.0303 -0.1694
   17EOH      C   72   3.673   5.507   4.874  0.5075 -0.2447 -0.1643
   17EOH      H   73   3.565   5.407   4.591 -0.0753 -1.6471  0.1814
   18EOH      O   74   2.649   4.051   2.975 -0.3751  0.6744 -0.4056
   18EOH      C   75   2.688   4.038   2.838 -0.1845 -0.4267 -0.2468
   18EOH      C   76   2.559   4.072   2.762 -0.6301  0.1996  0.7805
   18EOH      H   77   2.666   4.141   2.999  0.2663  0.1530  1.1403
   19EOH      O   78   2.141   6.950   1.088 -0.8124  0.0563  0.4110
   19EOH      C   79   2.209   6.946   0.962  0.0014  0.7172  0.8182
   19EOH      C   80   2.186   7.081   0.893  0.0235  0.5198  0.4222
   19EOH      H   81   2.193   6.987   1.157 -0.5950  1.8132 -0.6535
   20EOH      O   82   6.876   1.460   5.372 -0.6757 -0.1001  0.4037
   20EOH      C   83   6.944   1.479   5.496  0.4891 -0.0714 -0.2410
   20EOH      C   84   6.914   1.627   5.528  0.3368 -0.1516 -0.0181
   20EOH      H   85   6.889   1.370   5.343  1.2640  0.6449 -1.1632
   21EOH      O   86   0.875   1.690   6.853  0.7343 -0.2854  0.8253
   21EOH      C   87   0.902   1.762   6.733  0.1822 -0.1855  0.7595
   21EOH      C   88   0.898   1.914   6.753 -0.5261 -0.0304 -0.4764
   21EOH      H   89   0.942   1.706   6.918  0.2062 -0.9391  1.5438
   22EOH      O   90   0.960   1.238   4.096  0.1537  0.1933  0.4780
   22EOH      C   91   0.963   1.377   4.060 -0.2763 -0.0412 -0.4677
   22EOH      C   92   1.076   1.404   3.958  0.4506 -0.4904  0.2141
   22EOH      H   93   0.883   1.196   4.061 -0.5452  1.0877  0.8872
   23EOH      O   94   1.492   5.303   3.178  0.2420 -0.3055  0.0943
   23EOH      C   95   1.480   5.314   3.320 -0.7312  0.1734 -0.0237
   23EOH      C   96   1.375   5.212   3.366 -0.0513 -0.7052 -0.4108
   23EOH      H   97   1.414   5.346   3.146 -1.4539 -3.7978 -0.6849
   24EOH      O   98   7.171   0.813   4.402  0.0736  0.2219 -0.4639
   24EOH      C   99   7.085   0.723   4.472 -0.0635  0.6764 -0.0433
   24EOH      C  100   6.941   0.707   4.419  0.0218  0.1557 -0.1290
   24EOH      H  101   7.234   0.756   4.359 -1.6862 -2.6389  0.5778
   25EOH      O  102   0.046   0.421   4.920 -0.3979  0.3400  0.3342
   25EOH      C  103   0.056   0.292   4.981 -0.3923  0.1021 -0.1694
   25EOH      C  104   0.178   0.215   4.926 -0.0610  0.6271 -0.1742
   25EOH      H  105  -0.029   0.462   4.962 -2.0203 -0.6741 -1.4809
   26EOH      O  106   0.446   1.878   6.054 -0.4105 -0.2220  0.4914
   26EOH      C  107   0.490   1.999   5.992  0.0106 -0.3743  0.4885
   26EOH      C  108   0.609   2.063   6.067  0.1450 -0.4601  0.3498
   26EOH      H  109   0.517   1.827   6.090 -0.7168 -1.9817 -1.2638
   27EOH      O  110   1.707   4.057   3.939 -0.1539 -0.4160  0.2756
   27EOH      C  111   1.653   4.070   4.071  0.0640  0.1148  0.3099
   27EOH      C  112   1.768   4.037   4.168  0.0444 -0.4394  0.1441
   27EOH      H  113   1.659   3.997   3.883 -0.4618  0.5577 -0.5082
   28EOH      O  114   2.300   0.412   2.283  0.0128 -0.1107  0.1952
   28EOH      C  115   2.198   0.338   2.215 -0.0879  0.2903 -0.0926
   28EOH      C  116   2.258   0.248   2.106  0.2789  0.2147  0.1713
   28EOH      H  117   2.335   0.482   2.231  2.1864 -1.8454 -0.7556
   29EOH      O  118   0.901   2.592   6.105  0.2351  0.1501  0.1008
   29EOH      C  119   0.946   2.461   6.072 -0.0697  0.0031  0.2624
   29EOH      C  120   0.825   2.369   6.042 -0.0173  0.0618 -0.1341
   29EOH      H  121   0.918   2.617   6.195  1.3802 -1.0646  0.2244
   30EOH      O  122   1.656   6.923   1.106 -0.3464 -0.3401 -0.1074
   30EOH      C  123   1.647   7.011   1.218 -0.0516 -0.0172 -0.3313
   30EOH      C  124   1.765   7.109   1.225 -0.4950  0.5067 -0.0926
   30EOH      H  125   1.744   6.891   1.091  0.4784  1.5262  0.6426
   31EOH      O  126   4.177   3.614   0.003 -0.2257  0.3101  0.1015
   31EOH      C  127   4.069   3.671  -0.072  0.0579 -0.0857 -0.6149
   31EOH      C  128   3.974   3.743   0.025  0.0170 -0.7890 -0.1259
   31EOH      H  129   4.152   3.530   0.036 -2.5889  1.3081  0.9498
   32EOH      O  130   1.416   0.379   6.438  0.3305 -0.1319 -0.1200
   32EOH      C  131   1.417   0.498   6.358  0.2828  0.2681  0.4759
   32EOH      C  132   1.540   0.487   6.266  0.0801  0.7294  0.1502
   32EOH      H  133   1.342   0.325   6.417  0.3519  0.5931 -2.1755
   33EOH      O  134   7.084   7.841   3.057  0.0467  0.2959  0.2516
   33EOH      C  135   6.979   7.869   2.964  0.0127  0.2473  0.2759
   33EOH      C  136   7.020   7.967   2.852 -0.0424 -0.0020  0.0348
   33EOH      H  137   7.051   7.852   3.144 -2.0208  0.7236 -0.5563
   34EOH      O  138   0.153   1.403   2.356  0.0309  0.2715 -0.3928
   34EOH      C  139   0.038   1.450   2.285 -0.0390 -0.6059 -0.8749
   34EOH      C  140  -0.087   1.388   2.350  0.0998  0.0031 -0.0042
   34EOH      H  141   0.227   1.432   2.304 -0.2932 -0.0315 -1.0357
   35EOH      O  142   3.868   0.939   6.300 -0.0399  0.3931 -0.1918
   35EOH      C  143   3.800   0.996   6.188  0.1153  0.4255 -0.2705
   35EOH      C  144   3.819   1.148   6.177 -0.0626  0.4370 -0.4452
   35EOH      H  145   3.842   0.848   6.304  1.3225 -0.0198 -0.5329
   36EOH      O  146   5.319   3.468   5.582 -0.0138 -0.3285 -0.4249
   36EOH      C  147   5.443   3.465   5.510  0.3474  0.1130  0.1721
   36EOH      C  148   5.524   3.357   5.583 -0.1539 -0.2874  0.1390
   36EOH      H  149   5.286   3.380   5.575  1.8541 -1.0188 -1.0228
   37EOH      O  150   2.259   2.845   0.554 -0.0202 -0.4112  0.2166
   37EOH      C  151   2.117   2.848   0.574 -0.0302  0.5515  0.0262
   37EOH      C  152   2.050   2.945   0.475 -0.3520 -0.0672 -0.3600
   37EOH      H  153   2.283   2.771   0.501  0.3162 -0.1163 -0.0392
   38EOH      O  154   2.176   5.499   7.759 -0.2171  0.4793 -0.7299
   38EOH      C  155   2.069   5.559   7.686 -0.8856  0.5104  0.2688
   38EOH      C  156   2.104   5.709   7.672 -0.8891  0.5395  0.5646
   38EOH      H  157   2.152   5.413   7.788 -0.5197  0.9233  0.3846
   39EOH      O  158   2.278   1.407   5.248  0.0935 -0.3536  0.3508
   39EOH      C  159   2.364   1.302   5.204 -0.0410 -0.3913  0.1802
   39EOH      C  160   2.302   1.191   5.116 -0.0138 -0.3514  0.1102
   39EOH      H  161   2.208   1.368   5.299 -1.0073  2.0260  0.7423
   40EOH      O  162   1.721   3.663   0.117 -0.0425  0.1466 -0.1466
   40EOH      C  163   1.715   3.576   0.003  0.6399 -0.1655  0.0557
   40EOH      C  164   1.723   3.647  -0.133 -0.0124 -0.1200  0.0404
   40EOH      H  165   1.774   3.623   0.184  1.6340  0.1046 -1.4697
   41EOH      O  166   1.360   3.348   1.801 -0.5079 -0.3136  0.4147
   41EOH      C  167   1.230   3.405   1.782 -0.1849  0.2189 -0.2371
   41EOH      C  168   1.198   3.491   1.906 -0.1172  0.1130 -0.1461
   41EOH      H  169   1.371   3.291   1.726 -0.1366 -1.3530  1.2453
   42EOH      O  170   2.407   4.565   7.758  0.1838  0.2345  0.5218
   42EOH      C  171   2.531   4.625   7.720  0.4094 -0.3034  0.4077
   42EOH      C  172   2.568   4.601   7.572  0.2266 -0.6012  0.4097
   42EOH      H  173   2.380   4.614   7.834 -2.9751  0.4196 -0.6500
   43EOH      O  174   3.983   1.312   6.881  0.1870 -0.0756 -0.0691
   43EOH      C  175   3.894   1.366   6.980 -0.2607  0.3914 -0.7249
   43EOH      C  176   3.894   1.275   7.104 -0.5006  0.5249 -0.6267
   43EOH      H  177   3.925   1.260   6.828 -1.3135  0.3110  1.1541
   44EOH      O  178   3.932   6.661   5.092  0.0746 -0.3430  0.1638
   44EOH      C  179   3.894   6.712   4.963  0.4024  0.3501  0.3355
   44EOH      C  180   4.022   6.744   4.884 -0.1492 -0.0906 -0.7548
   44EOH      H  181   3.925   6.731   5.155  2.1065 -0.9535  1.1099
   45EOH      O  182   6.781   0.898   3.524  0.4138 -0.0599 -0.4809
   45EOH      C  183   6.731   0.823   3.635 -0.0896  0.2233 -0.5138
   45EOH      C  184   6.587   0.868   3.665  0.2072  0.3788  0.6932
   45EOH      H  185   6.767   0.838   3.452 -0.6391 -0.3419 -0.0496
   46EOH      O  186   0.202   2.480   0.693  0.0636 -0.1160 -0.2029
   46EOH      C  187   0.063   2.504   0.667  0.0105  0.0162  0.1914
   46EOH      C  188  -0.009   2.372   0.632  0.6162 -0.2845  0.0536
   46EOH      H  189   0.234   2.569   0.699  0.6569 -0.3301 -0.1216
   47EOH      O  190   2.321   1.367   7.650 -0.3098  0.2297 -0.1972
   47EOH      C  191   2.214   1.283   7.606 -0.1318 -0.0878 -0.0198
   47EOH      C  192   2.268   1.142   7.573  0.1741 -0.0566  0.3420
   47EOH      H  193   2.284   1.449   7.680 -1.2133  0.5467 -2.0790
   48EOH      O  194   6.507   7.582   4.358 -0.4704  0.2409  0.1873
   48EOH      C  195   6.650   7.579   4.359 -0.4823 -0.3516  0.0472
   48EOH      C  196   6.693   7.712   4.295 -0.2898 -0.2778  0.3292
   48EOH      H  197   6.480   7.647   4.421  0.7376  0.6113  0.3486
   49EOH      O  198   3.295   3.640   2.371 -0.0356 -0.6216 -0.7559
   49EOH      C  199   3.417   3.655   2.444 -0.3510 -0.7095 -0.1993
   49EOH      C  200   3.550   3.664   2.366 -0.4598 -0.0130 -0.3138
   49EOH      H  201   3.220   3.679   2.416 -1.5207 -2.5526 -1.5062
   50EOH      O  202   0.644   5.686   1.000  0.5426  0.1936 -0.2507
   50EOH      C  203   0.608   5.820   1.034 -0.1952 -0.1051  0.1507
   50EOH      C  204   0.483   5.876   0.964 -0.0929 -0.0756 -0.0071
   50EOH      H  205   0.685   5.682   0.915 -0.6461  1.3395 -0.8953
   51EOH      O  206   2.319   2.461   5.526  0.9484 -0.4112  0.0855
   51EOH      C  207   2.303   2.411   5.393  0.3578 -0.0987  0.0368
   51EOH      C  208   2.345   2.513   5.286  0.0815 -0.2150 -0.1821
   51EOH      H  209   2.249   2.431   5.582  0.0867 -0.1510 -0.8372
   52EOH      O  210   1.342   3.985   7.168 -0.0966 -0.3638 -0.8244
   52EOH      C  211   1.475   4.023   7.204 -0.4902 -0.0358  0.3396
   52EOH      C  212   1.574   3.915   7.156 -0.3663  0.2106  0.0381
   52EOH      H  213   1.303   4.067   7.141 -0.2838 -0.0399  0.3736
   53EOH      O  214   2.506   7.103   6.931 -0.3482 -0.2264 -0.2436
   53EOH      C  215   2.616   7.131   6.844 -0.0520 -0.1795  0.1402
   53EOH      C  216   2.614   7.279   6.802  0.2219 -0.4008 -0.6527
   53EOH      H  217   2.536   7.026   6.978  0.4261 -0.4881 -1.1421
   54EOH      O  218   5.711   3.028   5.155 -0.1336  0.0034  0.4205
   54EOH      C  219   5.767   3.112   5.256 -0.0699  0.2898  0.1510
   54EOH      C  220   5.747   3.032   5.386 -0.0658  0.1500  0.0650
   54EOH      H  221   5.729   3.077   5.076  2.5924 -0.4521  0.7275
   55EOH      O  222   0.494   1.958   0.031  0.5162  0.3366 -0.3537
   55EOH      C  223   0.572   1.985   0.148 -0.2488  0.3747  0.1508
   55EOH      C  224   0.708   2.047   0.111 -0.2287 -0.0889 -0.5637
   55EOH      H  225   0.402   1.975   0.041  0.1157 -1.7676 -0.4450
   56EOH      O  226   0.707   2.713   6.613  0.1091  0.1797  0.6142
   56EOH      C  227   0.595   2.743   6.695  0.0540 -0.3215  0.7230
   56EOH      C  228   0.595   2.651   6.819 -0.4329 -0.4461  0.6343
   56EOH      H  229   0.756   2.794   6.612  0.9624 -0.3279 -0.8247
   57EOH      O  230   0.678   7.110   5.818  0.1310 -0.7918 -0.0541
   57EOH      C  231   0.650   7.206   5.715 -0.0100 -0.2556  0.4851
   57EOH      C  232   0.645   7.345   5.782  0.3107 -0.0055 -0.0117
   57EOH      H  233   0.597   7.102   5.865 -0.7746 -0.6686 -1.5453
   58EOH      O  234   2.033   7.170   2.185  0.8197 -0.1740  0.8021
   58EOH      C  235   1.926   7.092   2.239  0.4009 -0.2994 -0.1883
   58EOH      C  236   1.962   7.041   2.380 -0.4587 -0.0702  0.1154
   58EOH      H  237   2.037   7.173   2.090 -1.9820  1.3612  0.6895
   59EOH      O  238   2.299   4.553   0.749 -0.7061 -0.4067  0.0800
   59EOH      C  239   2.394   4.537   0.855 -0.1235  0.6434 -0.2794
   59EOH      C  240   2.531   4.565   0.792  0.3549 -0.0391  0.4559
   59EOH      H  241   2.211   4.550   0.785 -0.5536 -1.4659  0.3825
   60EOH      O  242   2.394   6.995   7.680  0.2866  0.4335 -0.5888
   60EOH      C  243   2.438   7.017   7.546  0.0481 -0.6088 -0.8499
   60EOH      C  244   2.519   7.148   7.545 -0.9308  0.0188  0.3692
   60EOH      H  245   2.322   7.050   7.706 -1.4426 -2.3212  0.6991
   61EOH      O  246   3.372   6.723   1.525  0.2486 -0.1517  0.3345
   61EOH      C  247   3.325   6.737   1.391  0.0417  0.0559  0.4286
   61EOH      C  248   3.181   6.791   1.381  0.1362  0.1731 -0.3094
   61EOH      H  249   3.331   6.646   1.560 -2.0033  0.4265 -0.9245
   62EOH      O  250   3.207   4.299   0.622 -0.1101  0.0949  0.4934
   62EOH      C  251   3.246   4.364   0.744 -0.0816 -0.1114  0.5934
   62EOH      C  252   3.313   4.498   0.709 -0.4857 -0.0487  0.0366
   62EOH      H  253   3.125   4.334   0.591  0.1898  0.0030 -0.4133
   63EOH      O  254   2.972   4.096   2.131 -0.0837 -0.3107  0.2418
   63EOH      C  255   3.039   3.982   2.077 -0.0608 -0.1116 -0.1493
   63EOH      C  256   3.172   3.971   2.155 -0.0915 -0.2215 -0.1128
   63EOH      H  257   2.892   4.105   2.082  0.1640 -1.9133 -0.4820
   64EOH      O  258   0.357   6.832   1.730  0.1610 -0.3849  0.0167
   64EOH      C  259   0.437   6.814   1.848 -0.2465 -0.1736  0.3279
   64EOH      C  260   0.581   6.766   1.823 -0.4933 -0.7260 -0.0713
   64EOH      H  261   0.312   6.914   1.738  2.5121  1.1508 -1.7470
   65EOH      O  262   7.121   0.990   3.321 -0.1554  0.2155  0.1894
   65EOH      C  263   7.073   0.887   3.234  0.0267  0.2438  0.0565
   65EOH      C  264   7.131   0.894   3.092  0.2358  0.4812  0.1540
   65EOH      H  265   7.059   0.996   3.393 -1.9652  1.0197 -1.3910
   66EOH      O  266   1.418   4.325   0.556  0.0311 -0.1284 -0.3617
   66EOH      C  267   1.333   4.345   0.443 -0.1157  0.2446 -0.1884
   66EOH      C  268   1.409   4.425   0.336  0.2021 -0.3636 -0.4206
   66EOH      H  269   1.402   4.236   0.582 -1.6684  0.3217  0.1871
   67EOH      O  270   3.445   0.449   0.071  0.0790 -0.2050 -0.0711
   67EOH      C  271   3.493   0.389   0.191  0.0461 -0.1601 -0.0358
   67EOH      C  272   3.394   0.276   0.223 -0.4736  0.3449  0.1665
   67EOH      H  273   3.410   0.534   0.094  0.8618 -0.6966  3.0450
   68EOH      O  274   0.742   0.875   7.509  0.2466  0.1775  0.4711
   68EOH      C  275   0.864   0.830   7.567  0.2729 -0.1961  0.1287
   68EOH      C  276   0.904   0.949   7.655 -0.4095  0.5072 -0.5109
   68EOH      H  277   0.681   0.803   7.517 -1.8567  1.8558 -0.1080
   69EOH      O  278   1.101   0.849   1.736 -0.3073 -0.1287 -0.5171
   69EOH      C  279   0.966   0.894   1.752 -0.3450 -0.4380  0.0465
   69EOH      C  280   0.964   1.031   1.823  0.2330 -0.2284 -0.3257
   69EOH      H  281   1.143   0.932   1.717  0.4638  0.4180  3.2979
   70EOH      O  282   0.198   2.002   2.678 -0.1370 -0.4245 -0.4519
   70EOH      C  283   0.140   2.056   2.798 -0.4152 -0.2379 -0.6698
   70EOH      C  284   0.240   2.153   2.863 -0.3636 -0.7139 -0.0320
   70EOH      H  285   0.131   1.951   2.635 -1.4665  0.0319  1.0066
   71EOH      O  286   1.891   3.537   6.801 -0.2263  0.0455  0.5449
   71EOH      C  287   1.883   3.668   6.745 -0.0759  0.1176  0.6903
   71EOH      C  288   1.801   3.760   6.837 -0.4312  0.1746  0.3234
   71EOH      H  289   1.940   3.481   6.743 -1.2193  0.5386 -0.7839
   72EOH      O  290   7.435   0.994   4.084 -0.4031 -0.4127 -0.3674
   72EOH      C  291   7.512   0.882   4.127  0.0695 -0.0878 -0.3636
   72EOH      C  292   7.592   0.834   4.005 -0.2526 -0.3470 -0.4752
   72EOH      H  293   7.355   1.000   4.134 -0.4647  0.2464 -0.5439
   73EOH      O  294   2.958   3.404   4.965  0.8345  0.0394 -0.0230
   73EOH      C  295   3.050   3.504   5.009  0.7519  0.0300  0.1737
   73EOH      C  296   2.993   3.638   4.957 -0.0694 -0.3365  0.1146
   73EOH      H  297   2.922   3.430   4.882 -0.2902 -0.2010  0.3739
   74EOH      O  298   3.286   6.269   5.890  0.6733 -0.4273 -0.6049
   74EOH      C  299   3.161   6.201   5.904  0.2545  0.4550  0.0278
   74EOH      C  300   3.160   6.072   5.819 -0.0670  0.6297 -0.2322
   74EOH      H  301   3.271   6.360   5.910 -1.3153 -1.4024  2.6145
   75EOH      O  302   0.776   4.640   0.420  0.1050 -1.1270  0.0491
   75EOH      C  303   0.656   4.575   0.462 -0.6699  0.1905 -0.1003
   75EOH      C  304   0.588   4.681   0.551 -0.2831  0.3501  0.0045
   75EOH      H  305   0.805   4.576   0.356 -1.4091 -1.0024 -0.7924
   76EOH      O  306   0.374   0.015   5.517  0.4761  0.2303  0.0874
   76EOH      C  307   0.384  -0.096   5.607  0.3324 -0.0158 -0.2039
   76EOH      C  308   0.274  -0.196   5.565 -0.0330  0.3070 -0.0140
   76EOH      H  309   0.412  -0.015   5.435  0.2057 -0.9649  0.3882
   77EOH      O  310   0.704   4.986   7.851  0.1001 -0.7569 -0.0855
   77EOH      C  311   0.644   4.972   7.722  0.8897 -0.0078 -0.5351
   77EOH      C  312   0.633   4.828   7.670  0.5978 -0.0601 -0.3312
   77EOH      H  313   0.657   4.925   7.906 -2.0932  1.1862  0.3063
   78EOH      O  314   1.971   2.582   1.430  0.0446  0.6959 -0.1084
   78EOH      C  315   1.976   2.585   1.573  0.1755  0.2945 -0.1051
   78EOH      C  316   2.103   2.670   1.594  0.5779 -0.3979  0.2798
   78EOH      H  317   2.031   2.515   1.403 -1.5987 -0.6076 -0.6368
   79EOH      O  318   1.703   7.736   3.871  0.1958  0.0472  0.7024
   79EOH      C  319   1.789   7.624   3.891  0.2656  0.0955  0.6703
   79EOH      C  320   1.934   7.671   3.913  0.5570 -0.4868  0.0031
   79EOH      H  321   1.625   7.693   3.838 -0.6531  2.6902 -0.9569
   80EOH      O  322   0.445   5.495   0.975  0.3183  0.0401 -0.3394
   80EOH      C  323   0.338   5.487   1.070  0.4447  0.0911 -0.1935
   80EOH      C  324   0.384   5.445   1.210  0.2513 -0.6689 -0.3538
   80EOH      H  325   0.497   5.572   0.989  0.3782 -0.1447  0.4533
   81EOH      O  326   5.315   7.590   3.218  0.0565  0.0616 -0.6247
   81EOH      C  327   5.251   7.671   3.119 -0.5978  0.2167 -0.0725
   81EOH      C  328   5.274   7.605   2.982  0.2883  0.0531  0.1477
   81EOH      H  329   5.351   7.633   3.294 -0.1774 -1.5810  0.4331
   82EOH      O  330   3.283   6.370   0.181 -0.0048 -0.5501 -0.3580
   82EOH      C  331   3.355   6.477   0.121  0.0563 -0.3217  0.1244
   82EOH      C  332   3.409   6.422  -0.012  0.3217  0.3324 -0.0444
   82EOH      H  333   3.282   6.391   0.273  0.1961 -1.0774 -0.2337
   83EOH      O  334   1.406   7.855   0.748 -0.0479 -0.3584  0.3148
   83EOH      C  335   1.534   7.798   0.779  0.0696 -0.1197  0.2655
   83EOH      C  336   1.579   7.810   0.926 -0.0912  0.7304  0.2510
   83EOH      H  337   1.409   7.859   0.654  0.4765  1.0014  0.3814
   84EOH      O  338   2.693   2.202   7.633  0.3429 -0.4991 -0.0136
   84EOH      C  339   2.783   2.091   7.645  0.3344 -0.5053 -0.0066
   84EOH      C  340   2.904   2.113   7.553  0.4231  0.3134  0.2922
   84EOH      H  341   2.617   2.181   7.684 -0.3464 -1.0769 -1.2457
   85EOH      O  342   4.114   1.751   7.773 -0.1838 -0.4258  0.2870
   85EOH      C  343   4.250   1.782   7.801 -0.1909 -0.1836  0.0603
   85EOH      C  344   4.328   1.769   7.669 -0.1696  0.4305  0.0086
   85EOH      H  345   4.080   1.825   7.724  0.6256 -0.9434 -1.0839
   86EOH      O  346   1.556   6.906   7.381 -0.1535  0.0683 -0.5540
   86EOH      C  347   1.513   7.018   7.303 -0.4961  0.2676 -0.0825
   86EOH      C  348   1.383   6.984   7.229 -0.5308 -0.0673  0.1328
   86EOH      H  349   1.599   6.945   7.455 -1.3313  0.9385 -0.3165
   87EOH      O  350   2.297   2.761   1.890  0.2038 -0.0973  0.1834
   87EOH      C  351   2.403   2.807   1.805 -0.1029  0.0082 -0.1404
   87EOH      C  352   2.471   2.919   1.884  0.1960 -0.0369 -0.3341
   87EOH      H  353   2.303   2.667   1.904  0.1858 -0.0413  0.5742
   88EOH      O  354   0.433   1.774   0.650 -0.0478 -0.1814 -0.1773
   88EOH      C  355   0.464   1.781   0.510  0.1118 -0.2152 -0.1439
   88EOH      C  356   0.602   1.843   0.484 -0.1274  0.1386 -0.5719
   88EOH      H  357   0.398   1.689   0.671 -2.8926  1.3035  1.2676
   89EOH      O  358   0.801   3.111   1.869  0.0029  0.0194  0.0504
   89EOH      C  359   0.913   3.033   1.910  0.1070  0.0095 -0.2533
   89EOH      C  360   0.933   2.910   1.819  0.8408 -0.1164  0.0741
   89EOH      H  361   0.819   3.204   1.876  1.0033  0.0311 -2.1149
   90EOH      O  362   1.933   3.086   7.480 -0.5553  0.1948 -0.2386
   90EOH      C  363   1.949   3.088   7.622 -0.2294  0.9963 -0.2822
   90EOH      C  364   2.092   3.130   7.662 -0.0894  0.6457 -0.4134
   90EOH      H  365   1.933   3.176   7.451  2.0374  0.6998  1.1713
   91EOH      O  366   3.057   2.960   5.260 -0.1024  0.4341  0.2053
   91EOH      C  367   3.050   2.850   5.169 -0.1385  0.5564  0.0631
   91EOH      C  368   3.092   2.720   5.240 -0.3778  0.3432 -0.1814
   91EOH      H  369   3.140   3.000   5.239 -0.3899  1.3300  0.7609
   92EOH      O  370   1.984   2.695   1.199 -1.0799 -0.2668 -0.1715
   92EOH      C  371   1.965   2.837   1.198  0.6468 -0.0109  0.8538
   92EOH      C  372   2.031   2.897   1.072 -0.0123 -0.1332  0.4427
   92EOH      H  373   1.963   2.668   1.287 -1.5327  1.8427  0.4108
   93EOH      O  374   1.534   7.139   2.319 -0.1742 -0.4862  0.5820
   93EOH      C  375   1.613   7.209   2.416  0.2528 -0.1580 -0.0046
   93EOH      C  376   1.657   7.351   2.377 -0.1636  0.0172  0.1670
   93EOH      H  377   1.542   7.051   2.353  0.9012 -0.3660  0.6690
   94EOH      O  378   0.281   0.729   0.761  0.2306  0.5702  0.0822
   94EOH      C  379   0.177   0.827   0.763 -0.4176 -0.1047 -0.3466
   94EOH      C  380   0.069   0.809   0.871 -0.0578 -0.0252  0.0262
   94EOH      H  381   0.306   0.724   0.670  1.8817  3.4124  0.3133
   95EOH      O  382   6.141   0.944   3.146  0.2793 -0.7902  0.1408
   95EOH      C  383   6.193   0.944   3.013 -0.0894  0.3465 -0.0132
   95EOH      C  384   6.345   0.918   3.008 -0.2564 -0.5428 -0.4637
   95EOH      H  385   6.113   0.854   3.155  0.6568 -0.8997  0.2346
   96EOH      O  386   2.083   5.471   7.145  0.1401 -0.1655 -0.0454
   96EOH      C  387   2.135   5.437   7.273 -0.2607  0.1714  0.2060
   96EOH      C  388   2.119   5.284   7.281 -0.1191  0.1551  0.1704
   96EOH      H  389   1.993   5.444   7.142  0.1789 -0.2107 -2.2359
   97EOH      O  390   3.534   2.871   3.299  0.3399 -0.5953  0.3143
   97EOH      C  391   3.492   2.745   3.244 -0.1085 -0.4094  0.2265
   97EOH      C  392   3.605   2.704   3.147 -0.4381  0.7324 -0.6468
   97EOH      H  393   3.506   2.887   3.388  0.1943  2.6759 -0.2929
   98EOH      O  394   0.555   1.470   5.067 -0.2375 -0.1964 -0.7467
   98EOH      C  395   0.433   1.396   5.057 -0.4872  0.1218 -0.0992
   98EOH      C  396   0.457   1.247   5.027  0.1112  0.1333  0.3127
   98EOH      H  397   0.544   1.551   5.115  1.9541  0.9065 -2.0393
   99EOH      O  398   3.450   2.942   0.318  0.3681 -0.0891 -0.4295
   99EOH      C  399   3.412   2.804   0.306 -0.1409 -0.0429  0.5267
   99EOH      C  400   3.510   2.697   0.356 -0.0110 -0.2626 -0.1982
   99EOH      H  401   3.377   3.002   0.312 -0.7043 -1.1263  1.3733
  100EOH      O  402   1.746   5.364   3.937  0.1560 -0.5947  0.2615
  100EOH      C  403   1.749   5.251   4.023  0.2004 -0.7038  0.1183
  100EOH      C  404   1.634   5.257   4.125  0.2411 -0.4960  0.1504
  100EOH      H  405   1.770   5.332   3.851 -1.4900  1.0961 -0.8759
  101EOH      O  406   0.552   0.720   0.922  0.1825  0.1250 -0.1615
  101EOH      C  407   0.574   0.852   0.970 -0.1778  0.1382 -0.0292
  101EOH      C  408   0.554   0.853   1.123  0.4793  0.2122  0.0596
  101EOH      H  409   0.458   0.708   0.924  0.3872 -1.7449 -0.0699
  102EOH      O  410   3.465   5.666   1.666 -0.5661  0.0050  0.3939
  102EOH      C  411   3.338   5.603   1.686 -0.8207  0.3771 -0.0415
  102EOH      C  412   3.355   5.450   1.690 -0.3488  0.4253 -0.1861
  102EOH      H  413   3.501   5.678   1.753  0.5042  4.9168 -0.5879
  103EOH      O  414   6.646   1.937   3.116 -0.6972 -0.3100 -0.2958
  103EOH      C  415   6.638   2.062   3.185 -1.2410 -0.3732 -0.2438
  103EOH      C  416   6.607   2.051   3.336 -0.2039 -0.0622 -0.0016
  103EOH      H  417   6.703   1.954   3.043  2.3455  1.0668  2.2808
  104EOH      O  418   1.329   1.796   3.111 -0.7037  0.1126 -0.0807
  104EOH      C  419   1.285   1.928   3.077  0.0069  0.3390 -0.1249
  104EOH      C  420   1.195   1.987   3.188  0.1251  0.6516 -0.1953
  104EOH      H  421   1.414   1.773   3.078 -1.4136 -1.3584 -0.9326
  105EOH      O  422   1.932   1.205   7.863  0.1476  0.3186  0.2189
  105EOH      C  423   2.001   1.151   7.976 -0.0941  0.2017  0.3110
  105EOH      C  424   1.998   0.999   7.956 -0.1092  0.2133  0.2247
  105EOH      H  425   1.840   1.185   7.875 -0.1188 -0.2815 -2.5529
  106EOH      O  426   1.386   0.762   0.870 -0.0265 -0.3233 -0.0068
  106EOH      C  427   1.500   0.849   0.871  0.1159 -0.5157  0.7386
  106EOH      C  428   1.568   0.820   0.736 -0.1709  0.5425  0.3615
  106EOH      H  429   1.310   0.812   0.895  0.6047 -0.0381  1.3869
  107EOH      O  430   1.629   1.688   3.620 -0.3534 -0.0583 -0.2377
  107EOH      C  431   1.491   1.658   3.595 -0.2057 -0.9245 -0.0307
  107EOH      C  432   1.457   1.698   3.450 -0.3265 -0.7046  0.0577
  107EOH      H  433   1.690   1.623   3.590 -1.4392 -0.5476 -1.4693
  108EOH      O  434   2.403   7.204   5.231  0.3324  0.0821  0.6055
  108EOH      C  435   2.277   7.167   5.286 -0.0782  0.2366 -0.2252
  108EOH      C  436   2.191   7.292   5.261 -0.3327  0.0213 -0.4489
  108EOH      H  437   2.403   7.204   5.137  0.4551 -0.2334  0.6062
  109EOH      O  438   7.728   3.257   3.526  0.4965 -0.0940  0.4221
  109EOH      C  439   7.844   3.327   3.571  0.3410  0.5629 -0.1862
  109EOH      C  440   7.828   3.382   3.714 -0.1658 -0.1276  0.0226
  109EOH      H  441   7.715   3.182   3.581  1.5648  0.1223  0.9845
  110EOH      O  442   2.358   1.747   2.405 -0.0868  0.5069  0.6900
  110EOH      C  443   2.441   1.647   2.344 -0.7217  0.2813  0.1947
  110EOH      C  444   2.577   1.700   2.297 -0.6695 -0.2056 -0.2105
  110EOH      H  445   2.302   1.780   2.337  2.2277  0.2010 -1.4449
  111EOH      O  446   2.730   4.545   5.986 -0.7998 -0.7779  0.7453
  111EOH      C  447   2.841   4.456   5.968  0.0438  0.3852  0.1166
  111EOH      C  448   2.893   4.474   5.824 -0.1917 -0.1503 -0.0359
  111EOH      H  449   2.665   4.503   5.932  1.6227 -1.5157 -1.7332
  112EOH      O  450   1.020   3.480   5.645 -0.6250 -0.1163 -0.4924
  112EOH      C  451   0.953   3.604   5.623 -0.8455 -0.1429  0.0212
  112EOH      C  452   0.897   3.650   5.759 -0.2992 -0.4044  0.3345
  112EOH      H  453   1.090   3.473   5.582 -0.8498 -2.6178 -0.4861
  113EOH      O  454   3.002   4.412   0.536  0.4560  0.2355  0.0135
  113EOH      C  455   2.870   4.359   0.545  0.5909 -0.1396 -0.2092
  113EOH      C  456   2.876   4.210   0.585 -0.0573 -0.0645  0.1785
  113EOH      H  457   2.995   4.499   0.499 -1.6750  0.2421  0.3732
  114EOH      O  458   5.965   6.888   4.205  0.1282  0.1378  0.0154
  114EOH      C  459   5.923   7.025   4.192 -0.1528  0.0601  0.0973
  114EOH      C  460   6.030   7.103   4.114  0.1846 -0.4091  0.0862
  114EOH      H  461   5.881   6.846   4.217  0.1277 -0.2596 -1.2804
  115EOH      O  462   0.281   3.409   7.823  0.6616 -0.0353  0.2128
  115EOH      C  463   0.276   3.321   7.936  0.0544 -0.1248  0.1162
  115EOH      C  464   0.397   3.351   8.027  0.0479 -0.6606  0.2978
  115EOH      H  465   0.372   3.436   7.819  0.7487 -0.4464 -0.9507
  116EOH      O  466   1.367   2.756   5.810 -0.1305  0.1548  0.3173
  116EOH      C  467   1.333   2.619   5.828 -0.5106  0.1698 -0.2537
  116EOH      C  468   1.223   2.588   5.725 -0.0258 -0.6663 -0.5268
  116EOH      H  469   1.318   2.813   5.868  0.6288  0.6149  0.5179
  117EOH      O  470   0.751   6.605   3.071 -0.0711 -0.3744  0.1357
  117EOH      C  471   0.865   6.557   3.143  0.1032  0.0706  0.1519
  117EOH      C  472   0.849   6.563   3.296  0.1013  0.0723  0.1511
  117EOH      H  473   0.757   6.563   2.986  0.5556  0.4248 -0.2105
  118EOH      O  474   1.271   6.497   3.481  0.7467  0.0504 -0.4841
  118EOH      C  475   1.219   6.514   3.613  0.4732 -0.2263 -0.5541
  118EOH      C  476   1.114   6.408   3.650  0.2278  0.1352 -0.2027
  118EOH      H  477   1.248   6.565   3.420  1.3407  0.3765 -0.3500
  119EOH      O  478   2.142   4.504   6.605 -0.3495 -0.2035 -0.0579
  119EOH      C  479   2.178   4.567   6.729 -0.0318 -0.0802 -0.2121
  119EOH      C  480   2.328   4.600   6.737 -0.0668  0.0005  0.1346
  119EOH      H  481   2.091   4.567   6.557  3.2084  2.2514 -0.8125
  120EOH      O  482   0.710   4.750   7.057 -0.0252 -0.0666 -0.1421
  120EOH      C  483   0.702   4.893   7.069 -0.1263 -0.0886  0.0535
  120EOH      C  484   0.844   4.952   7.075 -0.2035  0.1549 -0.5117
  120EOH      H  485   0.746   4.712   7.135  1.6953  0.6284 -0.5908
  121EOH      O  486   0.371   3.873   6.663 -0.0857 -0.0244  0.1334
  121EOH      C  487   0.386   3.757   6.745  0.0493 -0.0132  0.1252
  121EOH      C  488   0.501   3.779   6.844  0.6336 -0.2648 -0.4950
  121EOH      H  489   0.385   3.845   6.574  0.2801  2.3694 -0.5877
  122EOH      O  490   3.036   4.922   2.426 -0.2382  0.0545 -1.0767
  122EOH      C  491   3.028   5.061   2.458 -0.0503 -0.1353 -0.2016
  122EOH      C  492   2.940   5.099   2.578 -0.5534  0.1588 -0.6637
  122EOH      H  493   3.120   4.904   2.385 -1.1408  0.4318 -3.1747
  123EOH      O  494   3.434   2.163   0.164  0.5612  0.2074 -0.1370
  123EOH      C  495   3.566   2.191   0.210  0.3882  0.7914  0.0200
  123EOH      C  496   3.654   2.116   0.108 -0.2787  0.8381 -0.5953
  123EOH      H  497   3.374   2.201   0.227  0.7208  0.8694 -0.3818
  124EOH      O  498   1.767   2.644   6.257 -0.2803 -0.4845  0.1396
  124EOH      C  499   1.810   2.545   6.163 -0.1118 -0.6690  0.4109
  124EOH      C  500   1.679   2.494   6.100 -0.1787 -0.5864  0.4821
  124EOH      H  501   1.719   2.601   6.326  2.0190 -1.8673  0.9263
  125EOH      O  502   2.618   5.744   0.156  0.5772 -0.0895  0.1704
  125EOH      C  503   2.520   5.847   0.163  0.2825 -0.3601  0.0552
  125EOH      C  504   2.449   5.844   0.299  0.2853 -0.4111  0.0554
  125EOH      H  505   2.658   5.755   0.071 -0.7809 -2.5544 -0.8494
  126EOH      O  506   2.305   2.503   7.788 -0.4581  0.4326 -0.2119
  126EOH      C  507   2.397   2.609   7.759 -0.2609  0.2364 -0.3063
  126EOH      C  508   2.502   2.635   7.869  0.2129  0.3951 -0.7941
  126EOH      H  509   2.307   2.452   7.708  1.4929 -0.8757  0.6431
  127EOH      O  510   0.860   2.976   0.098 -0.1883  0.4110  0.2829
  127EOH      C  511   0.860   2.919   0.230  0.3318 -0.3362 -0.0377
  127EOH      C  512   0.765   2.800   0.215 -0.1399  0.0351 -0.0015
  127EOH      H  513   0.922   2.928   0.046  0.5091  1.2770  0.3057
  128EOH      O  514   2.469   1.043   3.733  0.0425 -0.0633 -0.0041
  128EOH      C  515   2.513   1.113   3.616 -0.1888 -0.1570 -0.1460
  128EOH      C  516   2.479   1.259   3.652 -0.0601 -0.2705  0.4462
  128EOH      H  517   2.514   1.076   3.810 -2.6623 -0.2200  1.7217
  129EOH      O  518   2.468   1.026   2.150  0.0411  0.3362 -0.9586
  129EOH      C  519   2.588   1.103   2.156  0.3662 -0.2187 -0.0871
  129EOH      C  520   2.563   1.224   2.248  0.0987 -0.3339 -0.0065
  129EOH      H  521   2.455   1.001   2.060  0.6146 -0.9556 -0.7005
  130EOH      O  522   1.502   6.177   5.661 -0.2427 -0.7556 -0.3132
  130EOH      C  523   1.629   6.241   5.643 -0.4401 -0.2929 -0.0772
  130EOH      C  524   1.749   6.146   5.662 -0.7250 -0.6762 -0.1883
  130EOH      H  525   1.446   6.215   5.596  2.3895  0.3470 -2.0148
  131EOH      O  526   7.314   1.752   2.551 -0.6801 -0.5716  0.0885
  131EOH      C  527   7.236   1.860   2.604  0.2409  0.3130 -0.3331
  131EOH      C  528   7.297   1.906   2.737 -0.2678  0.4376 -0.1419
  131EOH      H  529   7.267   1.674   2.574  0.6544 -0.8105  2.1343
  132EOH      O  530   0.265   1.531   7.089  0.4886  0.7705 -0.3431
  132EOH      C  531   0.249   1.586   6.958  0.3912  0.5427 -0.4288
  132EOH      C  532   0.097   1.578   6.933  0.3039  0.4616  0.1195
  132EOH      H  533   0.331   1.581   7.133 -0.9317 -0.7854  3.7583
  133EOH      O  534   4.708   4.650   5.154 -0.4861  0.0216  0.2721
  133EOH      C  535   4.756   4.515   5.150 -0.0829  0.1589  0.4048
  133EOH      C  536   4.641   4.416   5.124 -0.1647  0.2037  0.5930
  133EOH      H  537   4.786   4.702   5.142 -0.4778  0.9191  3.5858
  134EOH      O  538   4.737   5.649   3.499  0.1346 -0.5058 -0.9626
  134EOH      C  539   4.715   5.787   3.467  0.0009 -0.3105 -0.0396
  134EOH      C  540   4.818   5.870   3.546  0.3345 -0.2704 -0.5145
  134EOH      H  541   4.658   5.606   3.471 -0.2417 -0.9284  0.6897
  135EOH      O  542   1.158   1.868   6.209 -0.0601  0.2881  0.5734
  135EOH      C  543   1.022   1.912   6.223 -0.1110  0.1609  0.4805
  135EOH      C  544   0.958   1.825   6.332  0.0672 -0.0628  0.4060
  135EOH      H  545   1.159   1.789   6.157 -2.1639  0.3095  0.4450
  136EOH      O  546   1.848   3.223   0.045  0.0563  0.5404 -0.0126
  136EOH      C  547   1.727   3.196   0.116  0.2194 -0.4795 -0.1244
  136EOH      C  548   1.676   3.056   0.074 -0.1258 -0.2885 -0.3477
  136EOH      H  549   1.890   3.305   0.069  1.2493 -0.2761  0.7220
  137EOH      O  550   2.943   5.430   1.767 -0.1620 -0.2644  0.4399
  137EOH      C  551   3.014   5.306   1.761  0.0516 -0.1325  0.1922
  137EOH      C  552   2.979   5.219   1.883 -0.1540 -0.6398 -0.2295
  137EOH      H  553   2.938   5.459   1.677 -0.8308 -0.0767  0.5389
  138EOH      O  554   1.784   5.260   5.730 -0.0262  0.2447  0.4615
  138EOH      C  555   1.673   5.308   5.805 -0.0892  0.6184  0.1339
  138EOH      C  556   1.536   5.322   5.735 -0.0145  0.1521 -0.1057
  138EOH      H  557   1.862   5.309   5.754 -0.9950  2.4434 -0.6650
  139EOH      O  558   1.298   3.551   2.931 -0.1447  0.0958  0.2112
  139EOH      C  559   1.359   3.493   3.047 -0.4248 -0.4573  0.0838
  139EOH      C  560   1.267   3.512   3.169 -0.1238  0.0542  0.2323
  139EOH      H  561   1.281   3.477   2.874 -0.3053  1.9885 -2.2784
  140EOH      O  562   0.910   5.875   1.896 -0.1021  0.3903 -0.0574
  140EOH      C  563   1.051   5.871   1.874 -0.1022  0.0114  0.0144
  140EOH      C  564   1.112   5.751   1.948 -0.0561  0.0582  0.0512
  140EOH      H  565   0.872   5.893   1.811 -2.0050 -0.8232  0.4979
  141EOH      O  566   4.078   2.396   7.337  0.4831  0.2515  0.2866
  141EOH      C  567   4.191   2.348   7.411  0.5624 -0.2723 -0.1754
  141EOH      C  568   4.325   2.396   7.351  0.7477 -0.0195  0.4429
  141EOH      H  569   4.065   2.333   7.268  0.1455  1.5551 -0.8684
  142EOH      O  570   0.556   3.096   1.886  0.2704  0.3641 -0.3840
  142EOH      C  571   0.468   3.001   1.826  0.1284  0.2338  0.0297
  142EOH      C  572   0.319   3.039   1.813  0.0214 -0.3726 -0.5341
  142EOH      H  573   0.647   3.075   1.873  0.2865 -0.3305  0.8436
  143EOH      O  574   3.125   4.020   6.634  0.4243  0.1741 -0.0536
  143EOH      C  575   3.213   3.908   6.623  0.8133  0.4682  0.0780
  143EOH      C  576   3.247   3.875   6.477 -0.5027  0.2542 -0.1882
  143EOH      H  577   3.111   4.034   6.726 -0.1882  2.7538 -0.4856
  144EOH      O  578   6.931   1.237   5.277 -0.3372  0.1189 -0.3855
  144EOH      C  579   6.974   1.101   5.261 -0.0293  0.1796 -0.0907
  144EOH      C  580   6.910   1.039   5.135 -0.1493 -0.2722  0.1910
  144EOH      H  581   6.988   1.284   5.218  4.3980 -2.9851  1.3786
  145EOH      O  582   1.906   6.518   2.684  0.5130 -0.0109  0.5675
  145EOH      C  583   1.870   6.629   2.601 -0.2740 -0.3883  0.4026
  145EOH      C  584   1.800   6.743   2.678  0.5823  0.7204 -0.4382
  145EOH      H  585   1.999   6.511   2.669 -0.1821 -1.9880 -3.4708
  146EOH      O  586   2.807   2.411   2.417 -0.0937  0.9038 -0.1465
  146EOH      C  587   2.929   2.486   2.418  0.4693 -0.0076 -0.0564
  146EOH      C  588   2.924   2.574   2.544 -0.7138 -0.3775  0.1616
  146EOH      H  589   2.795   2.391   2.508  2.1744 -0.8817 -0.1790
  147EOH      O  590   1.120   1.351   6.119  0.4901 -0.3199  0.5532
  147EOH      C  591   1.024   1.350   6.224  0.2413 -0.4014  0.3264
  147EOH      C  592   0.966   1.213   6.262 -0.0592 -0.2876  0.2830
  147EOH      H  593   1.193   1.296   6.145 -1.2885 -2.2987  1.5386
  148EOH      O  594   3.530   7.118   3.179  0.4180  0.0896  0.6315
  148EOH      C  595   3.626   7.217   3.141  0.4574 -0.3788 -0.5272
  148EOH      C  596   3.601   7.308   3.020  0.0046  0.3186  0.0868
  148EOH      H  597   3.459   7.155   3.228  0.8737  4.3050 -1.6909
  149EOH      O  598   3.456   0.982   4.673  0.0700 -0.3648  0.0442
  149EOH      C  599   3.432   1.017   4.536  0.6590 -0.4610 -0.0863
  149EOH      C  600   3.349   0.911   4.460  0.3454 -0.0526 -0.3184
  149EOH      H  601   3.550   0.973   4.675  0.2907  1.8460  1.0089
  150EOH      O  602   5.088   2.047   5.556 -0.2471  0.5149  0.3855
  150EOH      C  603   5.118   1.951   5.657  0.5099 -0.1558 -0.4641
  150EOH      C  604   5.024   1.943   5.779  0.0415 -0.6218 -0.8502
  150EOH      H  605   5.047   1.999   5.485  2.9022 -0.0770 -1.1022
  151EOH      O  606   1.627   3.650   3.861 -0.9142  0.3035  0.0953
  151EOH      C  607   1.597   3.520   3.912 -0.2581  0.1763  0.1718
  151EOH      C  608   1.464   3.533   3.989 -0.3080  0.4098  0.0487
  151EOH      H  609   1.715   3.648   3.825 -0.5288 -0.6374  1.0547
  152EOH      O  610   3.055   4.084   5.280  0.1756 -0.3418  0.5720
  152EOH      C  611   2.957   4.176   5.330 -0.5563 -1.0475  0.4587
  152EOH      C  612   3.006   4.222   5.469 -0.2758  0.1745 -0.0408
  152EOH      H  613   3.048   4.008   5.336  0.0437  0.9099  2.3092
  153EOH      O  614   3.578   2.803   1.420  0.3046  0.3229  0.0386
  153EOH      C  615   3.646   2.739   1.312  0.5233  0.0252  0.3512
  153EOH      C  616   3.616   2.589   1.321 -0.3578  0.1687 -0.1982
  153EOH      H  617   3.555   2.894   1.408  0.7527  0.7464  2.0573
  154EOH      O  618   1.102   2.413   0.891 -0.1161 -0.3459  0.3381
  154EOH      C  619   1.185   2.529   0.894 -0.0396 -0.3952  0.1128
  154EOH      C  620   1.125   2.629   0.995  0.2908 -0.3198  0.2365
  154EOH      H  621   1.133   2.357   0.822  1.6551  1.7210 -0.6272
  155EOH      O  622   1.847   3.835   1.526 -0.7167  0.1113 -0.2420
  155EOH      C  623   1.849   3.959   1.597 -0.2797 -0.0801  0.0801
  155EOH      C  624   1.893   3.931   1.742 -0.4951  0.1213  0.1844
  155EOH      H  625   1.834   3.850   1.433  0.0540  0.7232 -0.2512
  156EOH      O  626   7.683   2.551   3.153  0.5456 -0.0585  0.0364
  156EOH      C  627   7.788   2.487   3.080  0.0839 -0.2806 -0.4454
  156EOH      C  628   7.760   2.344   3.030 -0.7111 -0.2761 -0.0139
  156EOH      H  629   7.704   2.643   3.157 -0.4041  0.2672 -1.6420
  157EOH      O  630   3.952   2.564   7.520  0.0110  0.6606 -0.5493
  157EOH      C  631   3.814   2.590   7.492 -0.1378  0.0705 -0.3633
  157EOH      C  632   3.793   2.723   7.418  0.3026  0.6571  0.5622
  157EOH      H  633   3.993   2.522   7.446 -0.8214  0.0964 -0.6976
  158EOH      O  634   2.961   5.027   5.481 -0.3259  0.7148 -0.5274
  158EOH      C  635   2.995   4.893   5.444 -0.0690  0.6519 -0.0690
  158EOH      C  636   3.137   4.870   5.498 -0.2243  0.3306  0.2051
  158EOH      H  637   3.004   5.088   5.423 -0.0536  0.2456 -0.8249
  159EOH      O  638   2.989   7.171   3.565 -0.3676 -1.1470 -0.1476
  159EOH      C  639   3.057   7.108   3.674 -0.4414 -0.0016  0.5772
  159EOH      C  640   3.096   7.214   3.778  0.2699 -0.1510  0.4626
  159EOH      H  641   2.900   7.140   3.564 -0.1819 -1.6653 -0.5020
  160EOH      O  642   1.082   2.118   2.083 -0.1861  0.4865 -0.3897
  160EOH      C  643   1.060   2.081   1.946 -0.3234 -0.0003 -0.2352
  160EOH      C  644   0.958   1.966   1.957 -0.3173 -0.0653 -0.8374
  160EOH      H  645   1.145   2.057   2.116 -1.8182 -0.5766  0.8013
  161EOH      O  646   7.005   0.704   3.530  0.0725 -0.4199  0.6081
  161EOH      C  647   7.106   0.651   3.616  0.2159  0.0039  0.7016
  161EOH      C  648   7.228   0.602   3.536 -0.2714  0.0301 -0.0571
  161EOH      H  649   7.033   0.790   3.503  0.6439 -1.6113 -2.9249
  162EOH      O  650   3.934   2.502   6.673 -0.0326 -0.0977  0.1534
  162EOH      C  651   4.051   2.468   6.749  0.3022 -0.0514 -0.3349
  162EOH      C  652   4.157   2.403   6.658  0.1302  0.1446 -0.6803
  162EOH      H  653   3.910   2.419   6.633 -0.0714 -0.0830  0.1470
  163EOH      O  654   1.880   1.435   7.374  0.3909 -0.1818  0.1648
  163EOH      C  655   1.915   1.565   7.422  0.1475 -0.1450  0.2413
  163EOH      C  656   1.939   1.553   7.574 -0.1541  0.1474  0.3138
  163EOH      H  657   1.787   1.419   7.374  0.2506  0.5948  0.0808
  164EOH      O  658   7.678   0.469   3.108 -0.4300  0.0484  0.2221
  164EOH      C  659   7.734   0.589   3.160  0.0578  0.0843 -0.3709
  164EOH      C  660   7.851   0.533   3.242 -0.0501 -0.1097 -0.3495
  164EOH      H  661   7.704   0.461   3.017 -1.3709  0.6418 -0.1040
  165EOH      O  662   4.443   6.214   4.834  0.4505 -0.2394 -0.3126
  165EOH      C  663   4.454   6.283   4.709  0.7195  0.2059 -0.0436
  165EOH      C  664   4.474   6.185   4.592 -0.1118 -0.2094  0.1563
  165EOH      H  665   4.479   6.273   4.898  0.0623  1.4941 -1.6487
  166EOH      O  666   2.357   4.531   1.384 -0.1760 -0.3216  0.8606
  166EOH      C  667   2.275   4.617   1.304  0.4338  0.6727  1.2837
  166EOH      C  668   2.377   4.702   1.227  0.6168 -0.4222  0.3069
  166EOH      H  669   2.310   4.450   1.391 -0.1589 -0.6871 -2.6844
  167EOH      O  670   0.543   1.603   7.168 -0.4546  0.1346  0.1340
  167EOH      C  671   0.621   1.656   7.275  0.2396 -0.5285 -0.0399
  167EOH      C  672   0.752   1.575   7.272  0.5005 -0.1148  0.0759
  167EOH      H  673   0.597   1.597   7.091 -0.8262 -0.9756 -0.0541
  168EOH      O  674   1.399   1.861   2.767  0.3068 -0.0742 -0.0658
  168EOH      C  675   1.301   1.763   2.731 -0.1739  0.2669  0.3036
  168EOH      C  676   1.264   1.782   2.582  0.5723 -0.1223  0.0663
  168EOH      H  677   1.466   1.871   2.701 -1.5948  2.9767 -1.6607
  169EOH      O  678   5.157   5.848   4.492 -0.0918  0.2390  0.2216
  169EOH      C  679   5.290   5.901   4.498 -0.0467  0.1148  0.3344
  169EOH      C  680   5.380   5.801   4.573 -0.0730 -0.1938 -0.0459
  169EOH      H  681   5.100   5.893   4.432  0.7901 -2.1045 -2.4810
  170EOH      O  682   3.759   3.445   2.933  0.6338 -0.4669  0.2884
  170EOH      C  683   3.824   3.365   2.834 -0.5958 -0.8182 -0.2507
  170EOH      C  684   3.816   3.435   2.697 -0.6601  1.0687  0.6935
  170EOH      H  685   3.721   3.387   2.998 -0.0697  1.6089  1.7972
  171EOH      O  686   7.429   2.198   3.777  0.0501  0.2296  0.1887
  171EOH      C  687   7.507   2.282   3.861  0.0333 -0.0059  0.4406
  171EOH      C  688   7.433   2.414   3.891 -0.8429 -0.2444 -0.6756
  171EOH      H  689   7.487   2.148   3.721  0.4755 -0.1254  0.9427
  172EOH      O  690   2.624   0.338   3.661  0.2478  0.1673 -0.1757
  172EOH      C  691   2.529   0.344   3.555  0.2927  0.4071 -0.2033
  172EOH      C  692   2.398   0.416   3.590  0.1726  0.2070 -0.2440
  172EOH      H  693   2.702   0.286   3.646  0.6618  0.5489  0.5944
  173EOH      O  694   0.762   2.339   3.058  0.1730  0.1204  0.3128
  173EOH      C  695   0.698   2.225   3.116 -0.4430  0.2103 -0.1789
  173EOH      C  696   0.562   2.271   3.171 -0.3723  0.4262 -0.1839
  173EOH      H  697   0.841   2.303   3.021 -0.6518 -0.4635 -0.9420
  174EOH      O  698   4.951   5.513   3.594  0.3095  0.0177  0.2222
  174EOH      C  699   5.076   5.506   3.524  0.1139  0.5575 -0.1881
  174EOH      C  700   5.190   5.541   3.621  0.7676 -0.5707 -0.5380
  174EOH      H  701   4.891   5.569   3.546 -0.5180 -0.3373  0.8355
  175EOH      O  702   0.921   5.657   2.570  0.2118  0.0684 -0.1594
  175EOH      C  703   0.912   5.562   2.676  0.1810 -0.0083 -0.2307
  175EOH      C  704   0.935   5.638   2.808 -0.3853 -0.3093  0.0421
  175EOH      H  705   0.979   5.622   2.504  2.2914 -0.2709  1.8198
  176EOH      O  706   5.617   1.927   3.318  0.1650  0.1482  0.1665
  176EOH      C  707   5.702   1.835   3.250  0.1467  0.3307 -0.1062
  176EOH      C  708   5.835   1.812   3.324 -0.1571 -0.2098  0.2741
  176EOH      H  709   5.604   1.896   3.406 -0.7586 -1.9382 -0.6850
  177EOH      O  710   2.769   3.560   3.270 -0.1133  0.4222 -0.7101
  177EOH      C  711   2.830   3.615   3.387 -0.3991 -0.3235 -0.2026
  177EOH      C  712   2.780   3.760   3.397  0.3351 -0.0837  0.0244
  177EOH      H  713   2.675   3.559   3.285 -0.1276  1.0996 -0.7727
  178EOH      O  714   1.619   7.358   6.764  0.3086  0.2249  0.0305
  178EOH      C  715   1.670   7.491   6.762 -0.1229  0.3828 -0.6993
  178EOH      C  716   1.824   7.500   6.757 -0.0740  0.1487  0.1932
  178EOH      H  717   1.656   7.318   6.842 -1.0184  0.4408  0.7902
  179EOH      O  718   5.208   5.078   4.429 -0.1659  0.7218  0.1950
  179EOH      C  719   5.288   5.115   4.542 -0.0074  0.2769  0.2278
  179EOH      C  720   5.284   5.268   4.550  0.3498  0.2961  0.0371
  179EOH      H  721   5.190   4.986   4.437 -0.8036  0.8605  0.4124
  180EOH      O  722   1.101   0.497   6.729  0.0264 -0.1471 -0.0695
  180EOH      C  723   1.009   0.599   6.691  0.2829 -0.0413 -0.4037
  180EOH      C  724   0.875   0.524   6.680  0.0553  0.3731 -0.4666
  180EOH      H  725   1.082   0.423   6.673 -2.3501  0.8569 -0.6526
  181EOH      O  726   5.189   2.125   4.859 -0.0312  0.3677 -0.4199
  181EOH      C  727   5.233   2.255   4.816  0.3460  0.3288 -0.1565
  181EOH      C  728   5.119   2.359   4.809 -0.0675 -0.1520 -0.6343
  181EOH      H  729   5.189   2.134   4.953  2.2736 -0.6696 -0.2863
  182EOH      O  730   0.564   0.805   7.069  0.0460  0.1181 -0.3866
  182EOH      C  731   0.477   0.697   7.104  0.0190  0.1023 -0.5017
  182EOH      C  732   0.515   0.579   7.013  0.0697 -0.2680 -0.0036
  182EOH      H  733   0.548   0.876   7.130  0.3392 -0.3140  0.1947
  183EOH      O  734   0.413   7.187   3.485 -0.5953 -0.0036  0.1036
  183EOH      C  735   0.422   7.226   3.348 -0.2036  0.4342  0.2516
  183EOH      C  736   0.568   7.270   3.327  0.0260 -0.4124  0.0346
  183EOH      H  737   0.341   7.126   3.493  0.5610 -1.3159  0.8187
  184EOH      O  738   1.657   7.394   1.337  0.2896  0.1673 -0.1793
  184EOH      C  739   1.614   7.389   1.473  0.1815  0.1616 -0.2146
  184EOH      C  740   1.524   7.268   1.508  0.2610  0.2680  0.3535
  184EOH      H  741   1.580   7.422   1.291  0.6315  0.5746 -0.5088
  185EOH      O  742   2.672   2.385   2.918  0.1481 -0.1256 -0.3365
  185EOH      C  743   2.628   2.361   3.051  0.1138  0.5474 -0.2233
  185EOH      C  744   2.751   2.313   3.130 -0.3001  0.1250  0.1772
  185EOH      H  745   2.661   2.474   2.888 -1.2665  0.1479  0.9402
  186EOH      O  746   2.299   7.563   3.601  0.3665  0.1551 -0.1465
  186EOH      C  747   2.274   7.442   3.673 -0.1316  0.3214 -0.0405
  186EOH      C  748   2.124   7.407   3.677 -0.1178  0.2732  0.0617
  186EOH      H  749   2.393   7.573   3.606  0.6826 -2.6452  0.3413
  187EOH      O  750   3.916   4.856   7.082  0.2530  0.2454  0.3292
  187EOH      C  751   4.054   4.891   7.083  0.2373  0.3103  0.2713
  187EOH      C  752   4.114   4.882   7.225 -0.0794  1.0964  0.4595
  187EOH      H  753   3.878   4.878   6.999 -0.6722 -1.0010  0.3991
  188EOH      O  754   2.415   6.356   1.711 -0.3340  0.1995 -0.3418
  188EOH      C  755   2.525   6.341   1.621 -0.1270 -0.4471  0.0234
  188EOH      C  756   2.644   6.279   1.697 -0.1586 -0.2168  0.2616
  188EOH      H  757   2.358   6.286   1.683 -0.3225  0.2531 -0.5015
  189EOH      O  758   5.317   7.061   3.014 -0.0982 -0.0356  0.0596
  189EOH      C  759   5.340   6.947   2.931  0.0651 -0.0398  0.1099
  189EOH      C  760   5.262   6.817   2.958 -0.0648 -0.0103 -0.1261
  189EOH      H  761   5.358   7.130   2.963 -0.6435  1.4025  1.5352
  190EOH      O  762   4.351   0.808   4.789 -0.1651  0.4157  0.1837
  190EOH      C  763   4.373   0.750   4.919 -0.3617  0.2636  0.1500
  190EOH      C  764   4.312   0.854   5.015 -0.1599  0.2441  0.2975
  190EOH      H  765   4.412   0.772   4.727 -0.4941 -2.2356  1.3127
  191EOH      O  766   4.611   7.568   3.547  0.9348  0.0932  0.1763
  191EOH      C  767   4.625   7.604   3.410 -0.4888 -0.3424 -0.0875
  191EOH      C  768   4.485   7.658   3.373 -0.2386  0.2717 -0.1400
  191EOH      H  769   4.688   7.568   3.602  0.8608  0.3543  0.2808
  192EOH      O  770   7.303   2.226   3.249  0.1394  0.4075 -0.2175
  192EOH      C  771   7.389   2.165   3.152  0.2159 -0.0885  0.1620
  192EOH      C  772   7.325   2.183   3.013  0.4470 -0.2518  0.0355
  192EOH      H  773   7.348   2.301   3.285 -1.1046  1.2294 -0.3267
  193EOH      O  774   4.874   1.478   3.175 -0.4710 -0.4538  0.1286
  193EOH      C  775   4.977   1.404   3.109 -0.0156  0.0516  0.2744
  193EOH      C  776   4.946   1.387   2.959 -0.3865 -0.0457  0.3612
  193EOH      H  777   4.850   1.451   3.263 -0.4360  0.0470  0.2929
  194EOH      O  778   1.439   7.459   1.190  0.1270  0.3337  0.0075
  194EOH      C  779   1.424   7.437   1.050 -0.1603  0.1737  0.0642
  194EOH      C  780   1.495   7.305   1.012 -0.0160  0.2315  0.1314
  194EOH      H  781   1.380   7.530   1.214 -0.7175  0.3563 -2.0114
  195EOH      O  782   4.459   4.856   6.297  0.1283  0.4695 -0.3528
  195EOH      C  783   4.522   4.728   6.289  0.1498  0.4121  0.6230
  195EOH      C  784   4.619   4.708   6.406 -0.0944 -0.2114  0.7239
  195EOH      H  785   4.384   4.860   6.239 -0.9687  0.7371  1.0668
  196EOH      O  786   1.128   4.962   1.954  0.3198 -0.1668 -0.3288
  196EOH      C  787   1.034   5.044   2.024  0.2003 -0.3111 -0.3179
  196EOH      C  788   0.953   5.119   1.917 -0.4979  0.0274  0.4476
  196EOH      H  789   1.180   5.011   1.892  1.7740 -0.7478  0.3949
  197EOH      O  790   4.770   1.673   6.144  0.0959  0.6884 -0.0507
  197EOH      C  791   4.725   1.805   6.113 -0.0468  0.5769 -0.3191
  197EOH      C  792   4.773   1.896   6.228 -0.4328  0.8701 -0.3871
  197EOH      H  793   4.758   1.621   6.066 -0.2771 -0.3803  0.7075
  198EOH      O  794   3.760   5.747   3.295 -0.0692  0.4767  0.2273
  198EOH      C  795   3.836   5.708   3.180  0.5226 -0.1881  0.8384
  198EOH      C  796   3.902   5.837   3.128 -0.7778  0.1721  0.0568
  198EOH      H  797   3.725   5.672   3.341  1.1970  0.2572  0.8326
  199EOH      O  798   0.737   6.461   2.842 -0.1243  0.4425 -0.3531
  199EOH      C  799   0.815   6.420   2.730 -0.0060  0.1044 -0.1490
  199EOH      C  800   0.961   6.466   2.744  0.0478  0.0961 -0.6559
  199EOH      H  801   0.645   6.470   2.824 -0.4558  1.5177  1.6808
  200EOH      O  802   2.149   6.671   3.525  0.5305 -0.2752  0.3318
  200EOH      C  803   2.205   6.752   3.422  0.3699 -0.7602 -0.1421
  200EOH      C  804   2.354   6.723   3.393  0.4069 -0.0002 -0.7271
  200EOH      H  805   2.058   6.661   3.502  0.4871  2.1966 -0.7078
  201EOH      O  806   2.710   2.411   1.828 -0.2102 -0.2914  0.1282
  201EOH      C  807   2.759   2.484   1.715  0.3948 -0.3336  0.3572
  201EOH      C  808   2.733   2.400   1.589 -0.2115 -0.0392  0.2808
  201EOH      H  809   2.696   2.467   1.902  0.5777 -0.1510  0.1779
  202EOH      O  810   6.311   7.355   2.953 -0.2659  0.0096 -0.1717
  202EOH      C  811   6.332   7.345   2.812 -0.0994  0.2407 -0.1638
  202EOH      C  812   6.212   7.286   2.735 -0.1651  0.5740 -0.3190
  202EOH      H  813   6.265   7.436   2.965  1.2754  1.1508 -1.6886
  203EOH      O  814   3.304   7.287   5.987 -0.3001 -0.0835  0.5383
  203EOH      C  815   3.430   7.222   5.967 -0.0712  0.5029  0.0587
  203EOH      C  816   3.488   7.266   5.832 -0.1769 -0.2044 -0.2176
  203EOH      H  817   3.278   7.284   6.078  1.2803  3.2774  1.1796
  204EOH      O  818   5.781   3.213   4.967  0.3038  0.0789 -0.3962
  204EOH      C  819   5.749   3.220   4.828 -0.1917 -0.1032 -0.2941
  204EOH      C  820   5.800   3.095   4.754 -0.2240 -0.4130  0.2046
  204EOH      H  821   5.755   3.293   5.011  0.1692 -1.7935  3.1067
  205EOH      O  822   0.102   7.723   5.017 -0.2747  0.2554 -0.1982
  205EOH      C  823   0.215   7.638   5.038 -0.4704  0.1245  0.3257
  205EOH      C  824   0.233   7.602   5.187  0.2208 -0.3224  0.1357
  205EOH      H  825   0.072   7.709   4.928 -0.4994 -0.5671 -0.0034
  206EOH      O  826   2.044   0.863   6.686  0.2262  0.8483 -0.2983
  206EOH      C  827   2.186   0.873   6.669  0.3504  0.6298  0.5936
  206EOH      C  828   2.233   1.006   6.731 -0.2698  0.8243  0.6539
  206EOH      H  829   2.011   0.790   6.637 -0.2523  0.7804  0.1199
  207EOH      O  830   1.124   2.434   2.398  0.9522 -0.2322  0.0174
  207EOH      C  831   1.105   2.439   2.539 -0.6060  0.2871 -0.2032
  207EOH      C  832   1.127   2.583   2.591  0.4122  0.3490 -0.7922
  207EOH      H  833   1.075   2.363   2.360 -1.6386  0.5565  1.8084
  208EOH      O  834   4.268   5.140   5.241 -0.2382 -0.1940 -0.0253
  208EOH      C  835   4.289   5.159   5.381 -0.0409  0.0200 -0.0815
  208EOH      C  836   4.415   5.246   5.397  0.0528 -0.1481  0.1084
  208EOH      H  837   4.341   5.084   5.219 -0.6473  0.0426 -2.0338
  209EOH      O  838   1.638   7.311   7.187  0.5988 -0.0682  0.1904
  209EOH      C  839   1.700   7.398   7.282  0.2272  0.4564 -0.0469
  209EOH      C  840   1.851   7.368   7.276  0.2062  0.1997  0.7056
  209EOH      H  841   1.546   7.328   7.181  0.5686 -1.0159 -2.9321
  210EOH      O  842   7.301   1.963   2.190  0.1443  0.8891 -0.2065
  210EOH      C  843   7.418   1.983   2.270  0.2138  0.3696 -0.1731
  210EOH      C  844   7.418   2.130   2.317  0.2968  0.3574 -0.1353
  210EOH      H  845   7.313   1.874   2.160  0.2706  1.2987 -1.4051
  211EOH      O  846   2.354   0.769   4.451 -0.1098  0.1737  0.1889
  211EOH      C  847   2.480   0.779   4.516 -0.2032 -0.5489  0.4780
  211EOH      C  848   2.535   0.637   4.541  0.4181 -0.3503  0.2507
  211EOH      H  849   2.372   0.757   4.359  1.4154  1.5093  0.3007
  212EOH      O  850   2.783   0.005   5.744  0.0893  0.4212  1.0610
  212EOH      C  851   2.682   0.092   5.796 -0.3005  0.3656  0.4048
  212EOH      C  852   2.550   0.074   5.719  0.1935 -0.0734 -0.3407
  212EOH      H  853   2.858   0.011   5.801  0.6393  2.6059  0.1471
  213EOH      O  854   3.199   1.537   2.335  0.2114  0.4292  0.8384
  213EOH      C  855   3.340   1.539   2.362  0.3561  0.2147  0.1062
  213EOH      C  856   3.401   1.400   2.336 -0.0600  0.1566 -0.5878
  213EOH      H  857   3.157   1.597   2.394  0.9364  0.7718  1.0170
  214EOH      O  858   1.889   1.172   3.525 -0.0995 -0.2715 -0.3638
  214EOH      C  859   1.992   1.228   3.606 -0.5575  0.5796 -0.3510
  214EOH      C  860   1.952   1.271   3.749  0.1399  0.3032 -0.0648
  214EOH      H  861   1.927   1.152   3.441  2.6018  0.3946  0.6469
  215EOH      O  862   4.028   3.321   7.125 -0.0157  0.0886  0.5100
  215EOH      C  863   3.970   3.191   7.125  0.3825 -0.0871 -0.0711
  215EOH      C  864   4.069   3.085   7.177  0.3160 -0.1889 -0.1511
  215EOH      H  865   3.960   3.380   7.154  0.5396  1.1530 -0.3191
  216EOH      O  866   3.977   0.452   6.199  0.0343 -0.2860 -0.3094
  216EOH      C  867   4.101   0.426   6.133  0.4710  0.4685  0.2212
  216EOH      C  868   4.182   0.307   6.188  0.2459 -0.0571 -0.5842
  216EOH      H  869   3.915   0.385   6.174 -1.5707  0.7523  0.8595
  217EOH      O  870   6.367   6.966   3.989  0.1754  0.0126  0.0573
  217EOH      C  871   6.353   6.991   3.849 -0.0972 -0.3967  0.0101
  217EOH      C  872   6.220   7.058   3.810  0.1319  0.4407  0.6562
  217EOH      H  873   6.313   6.896   4.023 -1.5481  1.2761 -0.0329
  218EOH      O  874   5.215   2.172   5.117  0.0422 -0.1504  0.3635
  218EOH      C  875   5.237   2.074   5.218 -0.1489 -0.4586  0.1066
  218EOH      C  876   5.369   1.995   5.204  0.1377 -0.0189  0.2873
  218EOH      H  877   5.168   2.240   5.163 -0.1042  1.0263 -1.4643
  219EOH      O  878   5.383   4.819   4.199 -0.2295  0.1620 -0.2233
  219EOH      C  879   5.517   4.868   4.194 -0.1306 -0.1486 -0.7161
  219EOH      C  880   5.562   4.886   4.048  0.2801 -0.2856 -0.6059
  219EOH      H  881   5.329   4.891   4.170 -0.1568  0.0688 -0.5945
  220EOH      O  882   4.826   3.060   7.111  0.5114 -0.5590  0.6244
  220EOH      C  883   4.930   3.157   7.098 -0.2146  0.1218 -0.0740
  220EOH      C  884   5.033   3.132   7.209 -0.4810  0.5137  0.2610
  220EOH      H  885   4.748   3.104   7.141  1.4310  2.2380 -0.9335
  221EOH      O  886   1.325   3.244   5.019  0.2160  0.0848 -0.7936
  221EOH      C  887   1.271   3.135   4.945 -0.5659 -0.2333  0.2319
  221EOH      C  888   1.283   3.169   4.796 -0.4622  0.4710  0.4005
  221EOH      H  889   1.389   3.198   5.070 -0.7659 -0.7350 -0.2808
  222EOH      O  890   2.741   7.056   3.580 -0.4152  0.1805  0.3275
  222EOH      C  891   2.645   6.971   3.517 -0.1650  0.2527 -0.1495
  222EOH      C  892   2.520   7.044   3.465 -0.2546  0.2411  0.0516
  222EOH      H  893   2.707   7.075   3.667  1.4983 -1.9009  1.5864
  223EOH      O  894   7.692   7.094   2.328  0.0438  0.0282  0.0609
  223EOH      C  895   7.688   7.093   2.185  0.0481 -0.5377  0.0629
  223EOH      C  896   7.557   7.163   2.145  0.1911 -0.1808  0.2138
  223EOH      H  897   7.713   7.183   2.350  1.4805 -0.5675  1.1760
  224EOH      O  898   4.943   1.215   3.397  0.3657  0.2944  0.5202
  224EOH      C  899   4.850   1.114   3.436 -0.1602  0.3658 -0.5153
  224EOH      C  900   4.925   0.980   3.450 -0.3150  0.3067 -0.2435
  224EOH      H  901   4.891   1.294   3.397 -0.7557 -0.4283  1.7630
  225EOH      O  902   6.768   0.744   3.288 -0.1699  0.0596  0.3407
  225EOH      C  903   6.633   0.742   3.239 -0.0597 -0.1407  0.0384
  225EOH      C  904   6.568   0.623   3.312  0.6949 -0.4890  0.1488
  225EOH      H  905   6.793   0.655   3.306 -0.9991 -0.9824 -3.1312
  226EOH      O  906   2.522   4.672   3.580  0.3303 -0.1659 -0.3553
  226EOH      C  907   2.433   4.704   3.473  0.1419  0.0864 -0.1227
  226EOH      C  908   2.304   4.628   3.508  0.0944 -0.1322 -0.7608
  226EOH      H  909   2.588   4.739   3.587 -1.4047  1.5343  0.3497
  227EOH      O  910   1.138   6.434   0.389  0.0700 -0.0108  0.2862
  227EOH      C  911   1.077   6.432   0.519  0.4661  0.8525  0.4884
  227EOH      C  912   0.956   6.526   0.534 -0.2350  0.0259  0.0848
  227EOH      H  913   1.198   6.364   0.407 -3.2259 -3.2391 -0.7502
  228EOH      O  914   2.256   7.214   1.475  0.6420  0.4456  0.0697
  228EOH      C  915   2.149   7.306   1.450  0.1161 -0.2683 -0.3401
  228EOH      C  916   2.018   7.233   1.419 -0.1121 -0.0272  0.0444
  228EOH      H  917   2.319   7.255   1.533  0.8629  1.0028 -0.5510
  229EOH      O  918   3.335   4.453   6.096  1.1241  0.5308 -0.5816
  229EOH      C  919   3.254   4.556   6.040  0.5905  0.0107 -0.7627
  229EOH      C  920   3.238   4.681   6.129 -0.6289 -0.5801 -0.1271
  229EOH      H  921   3.328   4.449   6.190  2.5913  0.4533 -0.4567
  230EOH      O  922   3.279   7.555   5.972  0.3129 -0.0159 -0.4189
  230EOH      C  923   3.149   7.570   5.914  0.0876  0.3104  0.1632
  230EOH      C  924   3.138   7.485   5.786  0.1759  0.2378  0.2033
  230EOH      H  925   3.282   7.465   6.000  1.8525 -0.1588 -0.9885
  231EOH      O  926   4.892   4.249   6.103  0.3981  0.0592  0.1460
  231EOH      C  927   4.767   4.296   6.052  0.3567 -0.3096 -0.0921
  231EOH      C  928   4.663   4.274   6.164  0.3906 -0.5301 -0.1032
  231EOH      H  929   4.875   4.169   6.149  1.0053  0.7219  1.5698
  232EOH      O  930   1.739   6.596   3.102  0.5236 -0.4374  0.3840
  232EOH      C  931   1.818   6.715   3.097  0.1566 -0.2062  0.0985
  232EOH      C  932   1.941   6.704   3.005  0.1106  0.1493 -0.0054
  232EOH      H  933   1.724   6.557   3.018  0.1612 -1.4528  0.9047
  233EOH      O  934   3.817   1.362   4.487 -0.1904  0.1645  0.1004
  233EOH      C  935   3.769   1.344   4.620  0.3235 -0.4074  0.2112
  233EOH      C  936   3.636   1.422   4.619  0.6176  0.1036  0.4984
  233EOH      H  937   3.908   1.338   4.494 -0.4448 -0.3926  1.8741
  234EOH      O  938   1.548   1.875   6.729  0.5101  0.4334  0.1363
  234EOH      C  939   1.487   1.995   6.779 -0.2274  0.2114 -0.2299
  234EOH      C  940   1.338   1.959   6.797 -0.2872  0.4561 -0.2408
  234EOH      H  941   1.642   1.880   6.728  0.5153  0.2149 -0.2501
  235EOH      O  942   1.655   6.493   1.053  0.1083 -0.0814  0.2105
  235EOH      C  943   1.627   6.505   0.913  0.1625 -0.0018  0.2066
  235EOH      C  944   1.722   6.600   0.838  0.0432  0.0016  0.0611
  235EOH      H  945   1.584   6.522   1.107  1.2159  1.4320  0.8831
  236EOH      O  946   5.756   3.163   3.595 -0.8045 -0.4437  0.0988
  236EOH      C  947   5.829   3.041   3.603  0.0498  0.0544 -0.0949
  236EOH      C  948   5.824   2.981   3.745  0.5383 -0.3616 -0.2525
  236EOH      H  949   5.717   3.174   3.681 -0.7830 -0.8069  0.1545
  237EOH      O  950   0.699   4.350   1.245 -0.3007  0.0022  0.2305
  237EOH      C  951   0.763   4.405   1.361 -0.3137  0.5167 -0.0009
  237EOH      C  952   0.684   4.363   1.486  0.4180  0.0104  0.2959
  237EOH      H  953   0.606   4.368   1.245 -0.5367 -1.2135  0.1840
  238EOH      O  954   0.370   4.533   1.059 -0.2089  0.0512 -0.2068
  238EOH      C  955   0.396   4.543   0.918  0.4276  0.4987 -0.0616
  238EOH      C  956   0.529   4.470   0.891 -0.0681 -0.3011 -0.3430
  238EOH      H  957   0.346   4.615   1.100 -1.0307 -0.6201  0.6640
  239EOH      O  958   5.027   6.025   4.328  0.0532  0.0845  0.4620
  239EOH      C  959   5.090   6.046   4.202 -0.3570  0.0680  0.2534
  239EOH      C  960   5.051   6.188   4.156 -0.0792 -0.1608 -0.6955
  239EOH      H  961   4.934   6.020   4.310  0.4164 -0.5547 -1.3266
  240EOH      O  962   1.649   1.374   7.335 -0.4722 -0.6210  0.5469
  240EOH      C  963   1.537   1.457   7.301  0.0462 -0.1264  0.0399
  240EOH      C  964   1.464   1.489   7.433  0.0497 -0.1261  0.0418
  240EOH      H  965   1.624   1.290   7.372 -0.2394 -1.5686 -1.4047
  241EOH      O  966   1.204   5.911   2.401 -0.5692  0.3551 -0.1597
  241EOH      C  967   1.277   6.035   2.405  0.3300 -0.1711 -0.1578
  241EOH      C  968   1.236   6.124   2.523  0.2803  0.0243 -0.3211
  241EOH      H  969   1.129   5.924   2.458 -1.6634 -0.3616 -1.4197
  242EOH      O  970   3.592   5.213   0.031  0.1790  0.0387  0.7011
  242EOH      C  971   3.612   5.205   0.173 -0.3487  0.0428  0.7768
  242EOH      C  972   3.501   5.130   0.248 -0.8662  0.5452  0.5209
  242EOH      H  973   3.508   5.257   0.025  1.6223  2.6302 -1.4107
  243EOH      O  974   0.082   0.679   6.193 -0.2074 -0.1930 -0.0042
  243EOH      C  975  -0.056   0.652   6.219 -0.2534  0.4600  0.4440
  243EOH      C  976  -0.118   0.544   6.129 -0.1560  0.1552  0.7446
  243EOH      H  977   0.135   0.605   6.215 -0.1307  0.5353  2.3515
  244EOH      O  978   3.943   5.308   2.922 -0.6184 -0.0231  0.8336
  244EOH      C  979   3.871   5.426   2.959 -0.2126  0.5188 -0.0679
  244EOH      C  980   3.775   5.477   2.850  0.0317  0.2286 -0.4184
  244EOH      H  981   3.997   5.328   2.847 -1.5089 -0.5455  0.0379
  245EOH      O  982   2.564   1.045   1.097 -0.1400  0.0292  0.3783
  245EOH      C  983   2.638   0.927   1.063  0.3415  0.2718  0.5848
  245EOH      C  984   2.638   0.836   1.187 -0.1629 -0.2463  0.2062
  245EOH      H  985   2.582   1.104   1.026  1.4389  1.2955  1.8087
  246EOH      O  986   2.338   5.714   3.796 -0.0643  0.3898 -0.0530
  246EOH      C  987   2.208   5.723   3.856 -0.2505 -0.4396 -0.3180
  246EOH      C  988   2.211   5.712   4.010  0.2455  0.2207 -0.2750
  246EOH      H  989   2.406   5.710   3.861 -0.2145  0.9797  0.1412
  247EOH      O  990   1.516   7.068   1.862  0.1335  0.3071  0.7453
  247EOH      C  991   1.654   7.104   1.871  0.2540 -0.0739  0.4148
  247EOH      C  992   1.682   7.212   1.977 -0.1914 -0.0386  0.4957
  247EOH      H  993   1.493   7.050   1.953  0.5616 -2.7126  0.3175
  248EOH      O  994   3.296   4.664   3.864  0.2142 -0.4300 -0.0749
  248EOH      C  995   3.172   4.595   3.863 -0.0789  0.0744  0.5815
  248EOH      C  996   3.181   4.485   3.755 -0.3718  0.5100  0.1114
  248EOH      H  997   3.357   4.606   3.907 -1.1673 -1.3467  0.6545
  249EOH      O  998   2.314   3.488   1.011  0.4535 -0.4102 -0.1069
  249EOH      C  999   2.313   3.493   0.869  0.0310 -0.2126 -0.0967
  249EOH      C 1000   2.175   3.543   0.822  0.3983  0.6966 -0.2266
  249EOH      H 1001   2.299   3.568   1.059  1.4858 -0.7003  0.7395
  250EOH      O 1002   1.375   0.521   0.809 -0.4448 -0.4031  0.2358
  250EOH      C 1003   1.428   0.450   0.922 -0.1912 -0.7409 -0.0952
  250EOH      C 1004   1.484   0.315   0.873 -0.1999 -0.6416 -0.3828
  250EOH      H 1005   1.374   0.612   0.834 -1.0488 -0.1809 -0.5858
  251EOH      O 1006   7.750   3.202   3.274  0.4700 -0.1263 -0.1612
  251EOH      C 1007   7.657   3.304   3.235 -0.1422 -0.6653 -0.1292
  251EOH      C 1008   7.751   3.413   3.181 -0.3744 -0.2277  0.3566
  251EOH      H 1009   7.746   3.203   3.368 -3.3079 -1.3355 -0.1974
  252EOH      O 1010   0.429   7.326   2.412 -0.0363  0.1743 -0.1950
  252EOH      C 1011   0.296   7.295   2.369  0.1187 -0.0464 -0.5224
  252EOH      C 1012   0.216   7.427   2.376 -0.1418 -0.2122 -0.3842
  252EOH      H 1013   0.436   7.309   2.504 -3.4937 -1.5079 -0.1869
  253EOH      O 1014   0.691   7.666   4.433 -0.2083  0.1244  0.1332
  253EOH      C 1015   0.752   7.651   4.305 -0.1435  0.4922  0.1209
  253EOH      C 1016   0.655   7.586   4.205 -0.4478  0.3173  0.5286
  253EOH      H 1017   0.748   7.713   4.492 -0.3438 -0.1644  0.5026
  254EOH      O 1018   3.358   1.785   3.381 -0.0811  0.0752  0.3332
  254EOH      C 1019   3.442   1.885   3.322 -0.1741  0.0403  0.1380
  254EOH      C 1020   3.559   1.808   3.257 -0.2542  0.5302 -0.5880
  254EOH      H 1021   3.403   1.748   3.455  0.3838 -0.4965 -0.2234
  255EOH      O 1022   0.220   6.350   1.361  0.2723  0.1968  0.1454
  255EOH      C 1023   0.097   6.284   1.392  0.0738  0.2474 -0.5150
  255EOH      C 1024   0.040   6.213   1.268 -0.1872 -0.4140 -0.0202
  255EOH      H 1025   0.264   6.375   1.441 -0.0473 -1.9929  1.0262
  256EOH      O 1026   1.969   4.923   4.453  0.4488  0.2171  0.0894
  256EOH      C 1027   2.008   4.929   4.591 -0.2770  0.0347  0.3021
  256EOH      C 1028   1.965   5.067   4.642  0.0552  0.3302 -0.2090
  256EOH      H 1029   2.030   4.981   4.410  1.3416 -1.4430 -0.9705
  257EOH      O 1030   1.252   0.622   1.657 -0.2991  0.2360 -0.1867
  257EOH      C 1031   1.218   0.630   1.519  0.4386 -0.0713 -0.3861
  257EOH      C 1032   1.311   0.530   1.448  0.1306 -0.8381  0.2933
  257EOH      H 1033   1.205   0.690   1.703 -1.8287 -0.5278 -0.5757
  258EOH      O 1034   0.638   0.799   2.605  0.2070 -0.3934 -0.0156
  258EOH      C 1035   0.655   0.909   2.515  0.2827 -0.3711  0.0258
  258EOH      C 1036   0.709   0.873   2.375 -0.2372 -0.0889 -0.2515
  258EOH      H 1037   0.642   0.840   2.690 -0.1795  1.2941 -0.7761
  259EOH      O 1038   1.848   2.614   3.084  1.2360  0.8022  0.1299
  259EOH      C 1039   1.796   2.738   3.036 -0.0088  0.0784 -0.4291
  259EOH      C 1040   1.914   2.830   3.000  0.2810 -0.2067 -0.2124
  259EOH      H 1041   1.891   2.579   3.007  0.1050 -1.9439  0.6890
  260EOH      O 1042   1.346   0.990   5.391  0.1969  0.2011  0.4243
  260EOH      C 1043   1.208   0.972   5.423  0.1264 -0.0987 -0.0494
  260EOH      C 1044   1.129   1.098   5.463 -0.0962 -0.3801  0.3958
  260EOH      H 1045   1.387   0.905   5.390  1.2981  0.7227 -0.0890
  261EOH      O 1046   1.544   4.158   1.774  0.1526  0.4761 -0.0679
  261EOH      C 1047   1.555   4.095   1.902  0.3887 -0.1055 -0.3689
  261EOH      C 1048   1.510   3.948   1.890 -0.0084  0.0177 -0.4153
  261EOH      H 1049   1.586   4.241   1.786  0.6689  0.2044  0.0376
  262EOH      O 1050   2.125   3.460   2.853  0.0783  0.0806 -0.0612
  262EOH      C 1051   2.219   3.352   2.838  0.1017  0.0591  0.2199
  262EOH      C 1052   2.177   3.261   2.721  0.1989  0.4108 -0.0900
  262EOH      H 1053   2.127   3.494   2.765  0.8757 -3.6804 -1.6126
  263EOH      O 1054   1.308   6.305   5.338 -0.5200 -0.1597 -0.6302
  263EOH      C 1055   1.271   6.429   5.399  0.2488 -0.4193  0.3631
  263EOH      C 1056   1.144   6.407   5.484  0.1116  0.0641  0.2828
  263EOH      H 1057   1.362   6.323   5.262 -1.4175  0.8050 -1.0472
  264EOH      O 1058   1.736   6.306   7.181 -0.3008  0.1304  0.3038
  264EOH      C 1059   1.864   6.369   7.165 -0.2076 -0.1839 -0.1994
  264EOH      C 1060   1.853   6.522   7.165  0.3973 -0.1391  0.1956
  264EOH      H 1061   1.746   6.213   7.169 -0.4267  0.1261  0.2385
  265EOH      O 1062   2.374   6.114   4.646 -0.4154 -0.2986 -0.4501
  265EOH      C 1063   2.418   6.005   4.728  0.5158  0.5842  0.2362
  265EOH      C 1064   2.564   6.029   4.771  0.4814  0.5279  0.3827
  265EOH      H 1065   2.335   6.069   4.572  0.0865 -1.1134 -0.2324
  266EOH      O 1066   7.843   1.593   4.700  0.0336  0.1457 -0.1563
  266EOH      C 1067   7.888   1.462   4.664 -0.2102 -0.2351  0.9019
  266EOH      C 1068   8.028   1.442   4.724  0.0980 -0.2258  0.1931
  266EOH      H 1069   7.762   1.605   4.653 -1.0372  0.7258  1.7786
  267EOH      O 1070   3.084   7.389   5.341  0.2486  0.6647 -0.4844
  267EOH      C 1071   2.982   7.474   5.395 -0.0447 -0.0811  0.1372
  267EOH      C 1072   3.056   7.607   5.415  0.1190 -0.1945  0.2916
  267EOH      H 1073   3.047   7.302   5.334 -1.8475  1.4750  0.0397
  268EOH      O 1074   7.682   1.181   1.708  0.0028  0.5719 -0.3791
  268EOH      C 1075   7.611   1.213   1.828 -0.3390  0.1832 -0.4765
  268EOH      C 1076   7.568   1.083   1.900 -0.1059 -0.0389 -0.7349
  268EOH      H 1077   7.742   1.251   1.691 -0.9398  1.6448  0.6926
  269EOH      O 1078   3.287   1.960   7.700 -0.2690 -0.6708  0.0718
  269EOH      C 1079   3.366   1.965   7.581 -0.4713 -0.4914 -0.0569
  269EOH      C 1080   3.450   1.836   7.593 -0.2732 -0.3391  0.1975
  269EOH      H 1081   3.298   2.046   7.739  0.8013 -0.3130 -0.9738
  270EOH      O 1082   0.992   7.501   4.720  0.6989  0.2641 -0.4059
  270EOH      C 1083   1.069   7.459   4.832 -0.4069 -0.0688  0.2387
  270EOH      C 1084   1.112   7.312   4.815 -0.4968 -0.1122  0.3941
  270EOH      H 1085   0.904   7.514   4.751  0.6507 -1.3039  0.1643
  271EOH      O 1086   0.757   1.585   4.239 -0.0597 -0.4943 -0.1250
  271EOH      C 1087   0.657   1.531   4.326 -0.0080  0.0333  0.2672
  271EOH      C 1088   0.732   1.446   4.430  0.1101 -0.0183  0.1423
  271EOH      H 1089   0.718   1.633   4.167  0.6638  1.6303  0.8667
  272EOH      O 1090   3.299   1.823   1.694  0.0413  0.1316 -0.1635
  272EOH      C 1091   3.417   1.781   1.763 -0.0205 -0.0333 -0.1577
  272EOH      C 1092   3.455   1.849   1.897 -0.5016  0.1942 -0.1337
  272EOH      H 1093   3.311   1.913   1.670 -1.4286  0.7942  1.4571
  273EOH      O 1094   2.002   3.444   3.976 -0.1712  0.0596  0.2338
  273EOH      C 1095   1.970   3.581   4.004 -0.3718  0.0137  0.2349
  273EOH      C 1096   1.922   3.582   4.150  0.1523  0.4926  0.4073
  273EOH      H 1097   2.083   3.421   4.018  1.4568 -2.5272 -4.0450
  274EOH      O 1098   0.187   2.175   3.758  0.0920 -0.4006  0.6796
  274EOH      C 1099   0.139   2.047   3.800 -0.1702 -0.4953  0.1011
  274EOH      C 1100   0.026   2.050   3.905 -0.5068 -0.8672 -0.2496
  274EOH      H 1101   0.271   2.192   3.797 -0.9082  0.1568  2.6297
  275EOH      O 1102   0.564   0.497   0.275  0.3774 -0.2226  0.3946
  275EOH      C 1103   0.688   0.569   0.273  0.1853  0.1029  0.2014
  275EOH      C 1104   0.669   0.708   0.209  0.5087  0.3779  0.7043
  275EOH      H 1105   0.566   0.450   0.357 -0.6192  0.7855  1.0010
  276EOH      O 1106   0.788   4.585   7.291  0.0328  0.3120  0.1355
  276EOH      C 1107   0.887   4.517   7.369 -0.0592 -0.1112 -0.1162
  276EOH      C 1108   0.843   4.512   7.516  0.2495  0.5133 -0.0021
  276EOH      H 1109   0.708   4.536   7.304  0.0837  0.2420  0.1872
  277EOH      O 1110   2.520   6.212   0.904 -0.2529 -0.0398 -0.0595
  277EOH      C 1111   2.455   6.159   0.788  0.0674 -0.0461 -0.2348
  277EOH      C 1112   2.558   6.090   0.696  0.4984  0.4209 -0.1033
  277EOH      H 1113   2.565   6.293   0.885  0.0272  0.0061  0.7604
  278EOH      O 1114   3.477   1.266   4.913 -0.3923  0.0546 -0.5140
  278EOH      C 1115   3.361   1.184   4.924 -0.2254 -0.1332 -0.1585
  278EOH      C 1116   3.240   1.253   4.860 -0.2489 -0.1308 -0.1118
  278EOH      H 1117   3.456   1.342   4.966 -1.7008  0.4849 -1.6322
  279EOH      O 1118   3.272   2.250   0.377  0.0694  0.3523  0.6518
  279EOH      C 1119   3.144   2.311   0.402 -0.0049  0.6050 -0.3226
  279EOH      C 1120   3.072   2.321   0.266  0.0735 -0.0590 -0.4161
  279EOH      H 1121   3.301   2.205   0.454  0.4036  0.0859  0.3701
  280EOH      O 1122   0.433   7.252   2.668 -0.5320 -0.0585  0.1853
  280EOH      C 1123   0.481   7.286   2.798  0.0878 -0.3849  0.0452
  280EOH      C 1124   0.387   7.251   2.915  0.8125 -0.3335  0.6462
  280EOH      H 1125   0.417   7.160   2.659  1.0588 -0.3788  0.5200
  281EOH      O 1126   3.125   1.968   0.448 -0.1872  0.4750 -0.0500
  281EOH      C 1127   2.999   1.926   0.499  0.1680 -0.0706  0.3933
  281EOH      C 1128   3.024   1.812   0.601  0.7217 -0.1076  0.2144
  281EOH      H 1129   3.139   1.945   0.358 -1.4814  0.7130 -0.3178
  282EOH      O 1130   0.580   4.443   7.337 -0.4064  0.0189 -0.1791
  282EOH      C 1131   0.468   4.496   7.265 -0.3487 -0.1349 -0.3838
  282EOH      C 1132   0.395   4.608   7.342 -0.0610  0.0487 -0.3793
  282EOH      H 1133   0.578   4.349   7.331  1.2095  0.0044 -0.9045
  283EOH      O 1134   3.823   0.539   4.105 -0.0641 -0.2859  0.8029
  283EOH      C 1135   3.877   0.645   4.184 -0.1021  0.4800 -0.1976
  283EOH      C 1136   3.946   0.744   4.088  1.0270 -0.4681 -0.3796
  283EOH      H 1137   3.736   0.528   4.141  0.1044 -0.8970  1.0318
  284EOH      O 1138   2.567   2.960   4.112  0.5516 -0.3117  0.1608
  284EOH      C 1139   2.523   2.829   4.076 -0.0312 -0.0825  0.0406
  284EOH      C 1140   2.555   2.753   4.206  0.2581  0.6111  0.3799
  284EOH      H 1141   2.642   2.982   4.059  0.6908  1.2524  0.9566
  285EOH      O 1142   2.523   1.141   6.533  0.3022  0.1533 -0.2755
  285EOH      C 1143   2.547   1.016   6.467 -0.1200 -0.2313  0.2995
  285EOH      C 1144   2.682   1.033   6.394 -0.0752 -0.2662  0.3734
  285EOH      H 1145   2.453   1.189   6.492  0.5576  0.2248 -0.6325
  286EOH      O 1146   3.420   4.369   7.764  0.1838  0.2626 -0.6755
  286EOH      C 1147   3.355   4.301   7.657  0.4055 -0.0677 -0.6017
  286EOH      C 1148   3.234   4.389   7.619  0.0204 -0.1907  0.3347
  286EOH      H 1149   3.500   4.326   7.788 -0.8276 -0.3637  1.7693
  287EOH      O 1150   3.807   2.788   5.837  0.8852 -0.0383 -0.0251
  287EOH      C 1151   3.750   2.902   5.773  0.3217 -0.4573 -0.2707
  287EOH      C 1152   3.687   3.007   5.866  0.9298 -0.2352 -0.1114
  287EOH      H 1153   3.857   2.815   5.912 -0.0872  0.9461  0.2887
  288EOH      O 1154   0.612   4.816   1.830 -0.5072  0.3499 -0.1876
  288EOH      C 1155   0.587   4.827   1.971 -0.3902  0.3024 -0.1631
  288EOH      C 1156   0.715   4.841   2.056 -0.4091  0.7701 -0.2106
  288EOH      H 1157   0.670   4.743   1.811 -0.7779  0.7501 -2.6806
  289EOH      O 1158   4.387   2.912   7.326 -0.4414  0.2863 -0.2521
  289EOH      C 1159   4.325   2.796   7.382  0.0793  0.1873  0.1298
  289EOH      C 1160   4.182   2.786   7.325  0.1459  0.1795 -0.0384
  289EOH      H 1161   4.480   2.896   7.335 -0.0184  2.6328 -0.0214
  290EOH      O 1162   2.020   7.225   4.224 -0.1043 -0.4317  0.2024
  290EOH      C 1163   1.978   7.349   4.165  0.2536 -0.4291 -0.0483
  290EOH      C 1164   1.914   7.440   4.271  0.6113  0.0934 -0.2849
  290EOH      H 1165   1.955   7.157   4.210  0.4454 -0.8389 -0.3884
  291EOH      O 1166   1.792   2.287   6.478  0.2772 -0.7042 -0.0366
  291EOH      C 1167   1.826   2.188   6.576 -0.1343 -0.3209  0.4953
  291EOH      C 1168   1.975   2.180   6.613  0.0909 -0.6318 -0.4506
  291EOH      H 1169   1.824   2.264   6.392  2.1569  0.8387  0.2066
  292EOH      O 1170   4.157   3.228   6.216 -0.1300 -0.3919  0.4207
  292EOH      C 1171   4.291   3.178   6.226  0.1372  0.2174 -0.0068
  292EOH      C 1172   4.297   3.131   6.373 -0.0078  0.1943 -0.0080
  292EOH      H 1173   4.169   3.311   6.171  0.6310 -0.6969  0.0406
  293EOH      O 1174   2.558   1.600   3.313  0.1321 -0.2395 -0.1912
  293EOH      C 1175   2.491   1.474   3.322 -0.0299 -0.1463 -0.0920
  293EOH      C 1176   2.407   1.456   3.194 -0.3409  0.5692  0.0083
  293EOH      H 1177   2.612   1.593   3.236 -1.3042 -2.5242 -1.0222
  294EOH      O 1178   4.112   1.047   5.608  0.6303 -0.1869 -0.0639
  294EOH      C 1179   4.171   0.934   5.674  0.4630 -0.0637  0.2939
  294EOH      C 1180   4.128   0.921   5.821  0.7890  0.0587  0.4000
  294EOH      H 1181   4.018   1.044   5.617  0.8422 -1.2420  2.0086
  295EOH      O 1182   2.433   5.845   7.056  0.0046 -0.4762 -0.6553
  295EOH      C 1183   2.391   5.726   7.123  0.0316  0.0455  0.2944
  295EOH      C 1184   2.333   5.769   7.259 -0.2961  0.2560  0.0879
  295EOH      H 1185   2.500   5.808   7.001  2.7394  1.3654  1.3787
  296EOH      O 1186   2.339   6.756   4.896  0.5695  0.3818 -0.3886
  296EOH      C 1187   2.229   6.826   4.836 -0.2793 -0.4265  0.2077
  296EOH      C 1188   2.201   6.777   4.692 -0.1235 -0.0720  0.0561
  296EOH      H 1189   2.317   6.666   4.914 -1.8629  1.1873  1.0325
  297EOH      O 1190   0.285   1.286   3.726 -0.6267  0.3316 -0.0130
  297EOH      C 1191   0.324   1.405   3.795  0.2879 -0.1071  0.2346
  297EOH      C 1192   0.336   1.386   3.948  0.5392  0.6447  0.3099
  297EOH      H 1193   0.197   1.265   3.752 -0.5029  0.4081  0.4803
  298EOH      O 1194   1.045   4.751   6.717  0.3710 -0.2281 -0.1568
  298EOH      C 1195   1.125   4.675   6.808  0.5657  0.1476 -0.0128
  298EOH      C 1196   1.235   4.606   6.725  0.0564 -0.1014 -0.4770
  298EOH      H 1197   0.961   4.778   6.749 -0.4485 -1.7421 -1.0230
  299EOH      O 1198   5.975   0.846   3.418  0.1696  0.4330 -0.9021
  299EOH      C 1199   5.955   0.749   3.521  0.4343  0.6414 -0.6561
  299EOH      C 1200   6.093   0.686   3.548 -0.1422 -0.4732 -0.3013
  299EOH      H 1201   6.010   0.918   3.467  2.6107 -1.4922  0.3257
  300EOH      O 1202   7.742   2.065   3.451  0.3835 -0.4647 -0.0447
  300EOH      C 1203   7.697   2.032   3.319 -0.1447  0.0877 -0.0022
  300EOH      C 1204   7.647   1.887   3.314  0.5841 -0.1403 -0.6068
  300EOH      H 1205   7.833   2.094   3.453  0.3974 -0.5604  1.0253
  301EOH      O 1206   5.190   7.667   3.640 -0.2367 -0.2198  0.5005
  301EOH      C 1207   5.201   7.657   3.782 -0.1910  0.0373  0.5154
  301EOH      C 1208   5.266   7.787   3.833 -0.0566  0.0163  0.3986
  301EOH      H 1209   5.113   7.624   3.608  0.5436 -1.1517 -0.1573
  302EOH      O 1210   4.926   6.910   4.268 -0.2775 -0.4147 -0.1912
  302EOH      C 1211   5.045   6.869   4.335 -0.1450  0.1170 -0.1024
  302EOH      C 1212   5.040   6.908   4.484 -0.4743  0.5148 -0.2162
  302EOH      H 1213   4.859   6.844   4.279  1.2728 -1.7201  1.6042
  303EOH      O 1214   4.051   5.704   6.409  0.1556  0.3269 -0.2820
  303EOH      C 1215   4.082   5.817   6.327 -0.2433  0.3073 -0.4643
  303EOH      C 1216   4.124   5.940   6.409  0.3967 -0.0347 -0.2777
  303EOH      H 1217   4.005   5.638   6.359  0.0367  0.2853 -0.1165
  304EOH      O 1218   2.716   4.029   5.836 -0.7377  0.2152 -0.1868
  304EOH      C 1219   2.779   4.073   5.715 -0.5605 -0.0117 -0.1766
  304EOH      C 1220   2.674   4.076   5.603 -0.3808  0.2278 -0.3391
  304EOH      H 1221   2.725   3.936   5.850  0.2620  0.2987 -0.1734
  305EOH      O 1222   3.709   3.058   2.422 -0.7210  0.1936  0.5481
  305EOH      C 1223   3.741   2.937   2.492 -0.0166 -0.0651 -0.2107
  305EOH      C 1224   3.705   2.969   2.638  0.0756 -0.2996 -0.1366
  305EOH      H 1225   3.678   3.032   2.337 -1.4529 -0.6695  1.0799
  306EOH      O 1226   1.682   6.030   7.582 -0.4446  0.1681  0.1823
  306EOH      C 1227   1.762   6.149   7.576 -0.4627  0.1711  0.0206
  306EOH      C 1228   1.910   6.117   7.601 -0.6227 -0.3290  0.3426
  306EOH      H 1229   1.591   6.051   7.567 -0.4500  0.4861  0.6349
  307EOH      O 1230   1.929   3.857   4.704 -0.5053  0.0191  0.1941
  307EOH      C 1231   1.937   3.722   4.658 -0.1657  0.0106  0.2785
  307EOH      C 1232   2.066   3.647   4.695  0.2840  0.4694 -0.3536
  307EOH      H 1233   1.884   3.843   4.787  0.6222  1.3454  1.0399
  308EOH      O 1234   2.877   5.153   6.180 -0.5391 -0.2064 -0.2683
  308EOH      C 1235   3.009   5.103   6.199 -0.4474  0.1209 -0.0322
  308EOH      C 1236   3.044   5.031   6.331 -0.4650  0.5117  0.1857
  308EOH      H 1237   2.861   5.167   6.088 -0.3837  0.2422 -0.2290
  309EOH      O 1238   3.093   2.314   5.345  0.6233  0.1750  0.2601
  309EOH      C 1239   3.030   2.369   5.461  0.0062  0.0002  0.0107
  309EOH      C 1240   2.881   2.390   5.431  0.0289 -0.7139 -0.6127
  309EOH      H 1241   3.177   2.356   5.334  1.2806 -0.9461  0.8675
  310EOH      O 1242   4.523   2.832   3.647  0.0686 -0.1197  0.2514
  310EOH      C 1243   4.570   2.801   3.778 -0.3956 -0.1354  0.4133
  310EOH      C 1244   4.468   2.845   3.885 -0.3639  0.3741  0.2345
  310EOH      H 1245   4.537   2.926   3.640 -1.3362 -0.0038 -1.3148
  311EOH      O 1246   1.994   4.741   7.069  0.4625  0.3296  0.0732
  311EOH      C 1247   1.904   4.792   7.169 -0.2634  0.0328 -0.4216
  311EOH      C 1248   1.936   4.937   7.210  0.0217 -0.1751  0.1000
  311EOH      H 1249   1.935   4.698   7.009  2.9529 -1.0595 -1.4399
  312EOH      O 1250   0.878   5.148   0.018 -0.2790 -0.1599  0.7115
  312EOH      C 1251   0.994   5.084  -0.035  0.0377  0.8034  0.2229
  312EOH      C 1252   1.100   5.119   0.071  0.5133 -0.1131  0.0546
  312EOH      H 1253   0.804   5.095  -0.009 -0.5850  0.6574 -0.0839
  313EOH      O 1254   0.714   3.169   0.087 -0.0401 -0.1719 -0.6765
  313EOH      C 1255   0.660   3.199  -0.042 -0.2770  0.3538 -0.4558
  313EOH      C 1256   0.723   3.121  -0.159 -0.2506  0.2956 -0.4018
  313EOH      H 1257   0.758   3.085   0.083 -0.0892 -0.3759  2.2634
  314EOH      O 1258   3.373   0.723   0.378 -0.1827  0.0181  0.2442
  314EOH      C 1259   3.475   0.777   0.462  0.1233 -0.6264  0.2901
  314EOH      C 1260   3.413   0.889   0.547 -0.3609 -0.3434 -0.4294
  314EOH      H 1261   3.309   0.681   0.435  1.3721  0.1968  2.1742
  315EOH      O 1262   4.122   7.132   4.291  0.5738  0.2830  0.0863
  315EOH      C 1263   4.154   7.256   4.355 -0.2803  0.0989  0.8930
  315EOH      C 1264   4.086   7.256   4.493 -0.2442 -0.3410  0.9116
  315EOH      H 1265   4.157   7.139   4.204  0.2822  0.5342 -0.0109
  316EOH      O 1266   2.060   5.671   1.245  0.7388  0.4970 -0.0912
  316EOH      C 1267   1.967   5.779   1.262 -0.0077 -0.1596  0.0603
  316EOH      C 1268   1.833   5.733   1.203 -0.2325  0.4078  0.1267
  316EOH      H 1269   2.130   5.671   1.309  0.1074 -3.3307  0.7250
  317EOH      O 1270   3.275   2.992   3.658  0.0047 -0.3575  0.0169
  317EOH      C 1271   3.160   3.066   3.616  0.0641 -0.3436 -0.1245
  317EOH      C 1272   3.083   3.012   3.495  0.0290 -0.3637 -0.0934
  317EOH      H 1273   3.239   2.907   3.680  1.4812 -0.5914  1.6244
  318EOH      O 1274   3.961   6.158   0.402 -0.1186  0.3334  0.3841
  318EOH      C 1275   3.838   6.200   0.342  0.1937  0.9208  0.1438
  318EOH      C 1276   3.833   6.196   0.188 -0.3816  0.3986  0.1728
  318EOH      H 1277   3.940   6.152   0.494 -2.0977  1.1137  0.0137
  319EOH      O 1278   3.133   3.211   4.958  0.1739  0.1608  0.0317
  319EOH      C 1279   3.092   3.113   4.862  0.2192  0.1283  0.0467
  319EOH      C 1280   3.213   3.047   4.794 -0.4094 -0.2176 -0.7448
  319EOH      H 1281   3.069   3.277   4.980 -0.3975 -0.2236 -0.4579
  320EOH      O 1282   1.230   6.682   3.333 -0.0542  0.0258 -0.1640
  320EOH      C 1283   1.267   6.809   3.387  0.0293 -0.1911  0.2890
  320EOH      C 1284   1.168   6.922   3.357  0.6163  0.1844 -0.2550
  320EOH      H 1285   1.219   6.680   3.239 -4.1942 -1.2581  0.2604
  321EOH      O 1286   5.709   3.343   3.431 -0.5329  0.0653  0.4215
  321EOH      C 1287   5.748   3.299   3.301 -0.1083  0.3080  0.4664
  321EOH      C 1288   5.670   3.390   3.204  0.0272  0.2302  0.2843
  321EOH      H 1289   5.725   3.275   3.495 -0.0430 -0.5982 -0.3918
  322EOH      O 1290   3.860   7.717   4.951  0.0815 -0.0310  0.0403
  322EOH      C 1291   3.873   7.850   5.000  0.3808  0.1255 -0.4579
  322EOH      C 1292   3.806   7.951   4.905  0.2934  0.5743  0.0743
  322EOH      H 1293   3.837   7.662   5.025 -1.4908 -0.0414 -0.4290
  323EOH      O 1294   4.979   1.531   6.031  0.9477 -0.0320 -0.3371
  323EOH      C 1295   4.998   1.456   6.151  0.6052 -0.4402 -0.5364
  323EOH      C 1296   4.938   1.316   6.131  0.2476 -0.3228 -0.2985
  323EOH      H 1297   4.986   1.620   6.062 -0.7749 -0.0754  0.2246
  324EOH      O 1298   0.896   2.231   5.187  0.1167  0.9888 -0.0468
  324EOH      C 1299   0.922   2.206   5.048  0.5148  0.2411  0.1614
  324EOH      C 1300   0.809   2.104   5.024  0.2321  0.6250 -0.1436
  324EOH      H 1301   0.968   2.284   5.215  0.8386 -0.1605  0.2889
  325EOH      O 1302   2.627   7.851   7.304  0.3034  0.4769  0.1287
  325EOH      C 1303   2.507   7.875   7.377  0.0069 -0.1786 -0.1430
  325EOH      C 1304   2.389   7.829   7.289 -0.3854 -0.6506  0.6210
  325EOH      H 1305   2.691   7.920   7.313  2.1006 -0.7572 -2.4743
  326EOH      O 1306   3.259   2.847   2.902 -0.8721  0.1852  0.2626
  326EOH      C 1307   3.302   2.939   3.003  0.0059  0.1761 -0.0980
  326EOH      C 1308   3.340   3.072   2.935  0.1897  0.2213  0.0920
  326EOH      H 1309   3.217   2.771   2.940 -0.4195 -0.3501 -0.2958
  327EOH      O 1310   1.749   3.983   4.561 -0.3223 -0.1753  0.1161
  327EOH      C 1311   1.741   4.113   4.618 -0.5696 -0.3356  0.4515
  327EOH      C 1312   1.663   4.200   4.518 -0.1118 -0.2898  0.1291
  327EOH      H 1313   1.823   3.934   4.596 -0.2701  0.6894  1.2434
  328EOH      O 1314   7.586   1.199   1.253 -0.7332 -0.2137 -0.0702
  328EOH      C 1315   7.582   1.106   1.144  0.0470  0.3083 -0.5470
  328EOH      C 1316   7.672   1.155   1.029  0.9855 -0.3265 -0.0939
  328EOH      H 1317   7.653   1.169   1.313 -0.1075  0.8168 -0.2536
  329EOH      O 1318   2.484   2.612   5.640 -0.0279 -0.1250  0.3667
  329EOH      C 1319   2.420   2.714   5.717 -0.1644  0.1445 -0.1060
  329EOH      C 1320   2.328   2.788   5.618  0.1322  0.2617 -0.2951
  329EOH      H 1321   2.410   2.570   5.600 -0.4808 -0.2701  1.3397
  330EOH      O 1322   1.529   2.131   4.496 -0.2426  0.4808  0.3942
  330EOH      C 1323   1.654   2.140   4.428 -0.0753 -0.1534  0.6135
  330EOH      C 1324   1.672   2.290   4.398  0.0388 -0.4108 -0.6385
  330EOH      H 1325   1.512   2.039   4.506  0.9918  0.0431 -1.4073
  331EOH      O 1326   1.645   4.499   1.563  0.0387 -0.3354 -0.5244
  331EOH      C 1327   1.734   4.569   1.476 -0.2847  0.3342 -0.3203
  331EOH      C 1328   1.816   4.460   1.404 -0.0528  0.0849  0.3266
  331EOH      H 1329   1.572   4.471   1.509 -1.6742  0.3627  1.3824
  332EOH      O 1330   7.751   2.453   1.724 -0.0205  0.2780  0.6328
  332EOH      C 1331   7.695   2.584   1.717  0.2334  0.3453 -0.1467
  332EOH      C 1332   7.634   2.588   1.576  0.2029 -0.2283 -0.1485
  332EOH      H 1333   7.682   2.389   1.731 -1.7408  1.8850 -1.4418
  333EOH      O 1334   4.207   4.506   5.732 -0.4233 -0.0416  0.5551
  333EOH      C 1335   4.184   4.631   5.668  0.3901 -0.5043 -0.6595
  333EOH      C 1336   4.033   4.658   5.650  0.3813  0.1242  0.3294
  333EOH      H 1337   4.234   4.448   5.663 -0.4420 -0.3227  0.7813
  334EOH      O 1338   5.813   1.029   3.910 -0.1318  0.2813  0.1275
  334EOH      C 1339   5.888   0.958   4.010  0.3867  0.0893 -0.3987
  334EOH      C 1340   5.919   0.820   3.950 -0.2896 -0.2731  0.0907
  334EOH      H 1341   5.733   0.980   3.896 -1.1219  1.8065  0.3744
  335EOH      O 1342   1.498   4.211   7.523 -0.2686 -0.4549  0.3651
  335EOH      C 1343   1.606   4.146   7.591  0.2487 -0.1375 -0.1534
  335EOH      C 1344   1.536   4.028   7.660 -0.5203  0.0911 -0.5259
  335EOH      H 1345   1.536   4.292   7.492  0.2253 -0.1576  1.7236
  336EOH      O 1346   7.160   0.416   2.152  0.0804  0.1186 -0.2969
  336EOH      C 1347   7.247   0.363   2.051 -0.6823  0.1687 -0.9809
  336EOH      C 1348   7.220   0.218   2.009 -0.4231 -0.1610 -0.0181
  336EOH      H 1349   7.155   0.357   2.226  1.7541 -0.5740 -0.7089
  337EOH      O 1350   1.638   1.791   6.079 -0.4869  0.1731  0.0931
  337EOH      C 1351   1.679   1.709   6.189 -0.3475  0.2294  0.0833
  337EOH      C 1352   1.774   1.605   6.128 -0.0832  0.0955  0.7144
  337EOH      H 1353   1.569   1.846   6.114  0.7199  1.8976 -0.1852
  338EOH      O 1354   0.479   3.377   1.957 -0.7001 -0.0310 -0.1780
  338EOH      C 1355   0.433   3.360   2.091  0.4243  0.3794  0.2695
  338EOH      C 1356   0.304   3.438   2.122  0.2557  0.4395 -0.5951
  338EOH      H 1357   0.546   3.311   1.941  1.2812  1.5908  1.1071
  339EOH      O 1358   2.374   4.709   6.119 -0.2243  0.5660 -0.3733
  339EOH      C 1359   2.358   4.704   5.977  0.5106 -0.0886 -0.4366
  339EOH      C 1360   2.209   4.699   5.940  0.3896  0.0731  0.0244
  339EOH      H 1361   2.467   4.700   6.137 -0.1589  1.5558 -0.2161
  340EOH      O 1362   1.147   2.053   0.619  0.0093 -0.2093  0.2706
  340EOH      C 1363   1.021   2.030   0.557  0.1998 -0.4326 -0.0336
  340EOH      C 1364   0.920   2.065   0.668  0.7535  0.5015  0.1828
  340EOH      H 1365   1.164   2.146   0.626 -0.7222 -0.1472  1.4285
  341EOH      O 1366   3.290   0.364   5.295  0.0089  0.1427  0.5825
  341EOH      C 1367   3.265   0.502   5.265 -0.1589 -0.0257 -0.0765
  341EOH      C 1368   3.304   0.584   5.390  0.0330 -0.3643  0.0884
  341EOH      H 1369   3.282   0.312   5.216 -0.2840  0.7672  0.1946
  342EOH      O 1370   1.664   5.776   1.925  0.4930 -0.2716 -0.0778
  342EOH      C 1371   1.746   5.820   2.034 -0.6748  0.1232  0.6458
  342EOH      C 1372   1.840   5.934   1.990 -0.0422 -0.5143  0.3499
  342EOH      H 1373   1.583   5.749   1.964  0.0836  0.5045 -0.3820
  343EOH      O 1374   7.772   0.433   3.968  0.2018  0.3260 -0.4619
  343EOH      C 1375   7.890   0.414   3.890 -0.0683  0.3497 -0.8812
  343EOH      C 1376   7.916   0.265   3.864  0.1676  0.2077  0.1125
  343EOH      H 1377   7.697   0.440   3.910  0.6234  1.0909 -0.9268
  344EOH      O 1378   1.579   3.100   1.549  0.5082  0.0983  0.1259
  344EOH      C 1379   1.681   3.132   1.453  0.1549  0.4261 -0.1391
  344EOH      C 1380   1.801   3.191   1.530  0.1794 -0.2388  0.3313
  344EOH      H 1381   1.565   3.009   1.530  1.1096 -0.3242  1.6215
  345EOH      O 1382   0.452   5.334   0.775 -0.1590 -0.1092 -0.2886
  345EOH      C 1383   0.426   5.419   0.663  0.3306 -0.2277 -0.4967
  345EOH      C 1384   0.309   5.355   0.587 -0.3065 -0.0397  0.3089
  345EOH      H 1385   0.453   5.388   0.853 -1.9858 -0.7564  0.1981
  346EOH      O 1386   2.219   6.194   1.617 -0.2381  0.0716  0.6600
  346EOH      C 1387   2.097   6.120   1.628 -0.6392  0.6363  0.0542
  346EOH      C 1388   2.106   5.997   1.721  0.3087  0.5553 -0.1462
  346EOH      H 1389   2.181   6.269   1.573 -1.1725 -0.7943 -0.0392
  347EOH      O 1390   2.570   1.412   7.635  0.8345 -0.2285 -0.1937
  347EOH      C 1391   2.580   1.509   7.530  0.3610 -0.1340 -0.1540
  347EOH      C 1392   2.716   1.580   7.518  0.1806  0.1877 -0.2795
  347EOH      H 1393   2.487   1.368   7.641  0.3195  0.6497 -0.7585
  348EOH      O 1394   2.388   7.570   6.662  0.5073 -0.2995  0.2850
  348EOH      C 1395   2.406   7.616   6.796  0.1791 -0.0515  0.2441
  348EOH      C 1396   2.282   7.693   6.847 -0.2855 -0.2660 -0.5460
  348EOH      H 1397   2.334   7.492   6.665 -0.6679  0.4678 -0.3785
  349EOH      O 1398   3.060   7.033   6.244  0.4709 -0.2094  0.2429
  349EOH      C 1399   3.094   6.969   6.121 -0.0944  0.1902 -0.1226
  349EOH      C 1400   3.045   7.025   5.986 -1.1046 -0.0966  0.1238
  349EOH      H 1401   3.121   7.105   6.250  1.8662 -1.3892  0.3393
  350EOH      O 1402   2.651   3.253   3.894  0.1986 -0.1003  0.3982
  350EOH      C 1403   2.572   3.342   3.974  0.3018  0.3877 -0.0440
  350EOH      C 1404   2.647   3.396   4.096 -0.6383  0.8158  0.3507
  350EOH      H 1405   2.718   3.304   3.851  0.2212 -0.0191  0.5289
  351EOH      O 1406   1.918   2.034   0.288  0.7322 -0.2898 -0.2913
  351EOH      C 1407   1.918   2.090   0.157 -0.0068  0.1534 -0.1010
  351EOH      C 1408   2.037   2.186   0.138 -0.0031  0.0916 -0.3909
  351EOH      H 1409   1.851   1.967   0.285 -1.8805  2.1507  1.5770
  352EOH      O 1410   3.996   2.797   7.767 -0.2195  0.3534  0.2413
  352EOH      C 1411   4.006   2.877   7.649  0.0238 -0.1435 -0.0778
  352EOH      C 1412   4.120   2.979   7.665  0.2527 -0.4401  0.1941
  352EOH      H 1413   4.037   2.714   7.746 -0.6266 -0.1423  1.3663
  353EOH      O 1414   2.295   3.423   4.929 -0.2673  0.0011  0.0299
  353EOH      C 1415   2.422   3.395   4.869  0.0609  0.2839  0.5896
  353EOH      C 1416   2.516   3.515   4.886  0.1605  0.2476  0.2850
  353EOH      H 1417   2.231   3.358   4.903 -1.1916 -0.0044  2.2233
  354EOH      O 1418   1.444   5.016   0.345  0.3526 -0.1160 -0.3458
  354EOH      C 1419   1.383   5.146   0.351  0.3614 -0.1424  0.2735
  354EOH      C 1420   1.477   5.239   0.431  0.2907  0.1697 -0.0034
  354EOH      H 1421   1.421   4.978   0.428  3.0134  2.4102  1.6358
  355EOH      O 1422   1.951   4.828   2.218  0.0402 -0.4692  0.3053
  355EOH      C 1423   2.023   4.845   2.340  0.4131  0.2044 -0.0062
  355EOH      C 1424   2.160   4.911   2.316  0.6498 -0.2126  0.1801
  355EOH      H 1425   1.860   4.820   2.244 -0.0095 -0.3160  0.1744
  356EOH      O 1426   2.417   3.924   1.067 -0.0575  0.3443  0.0764
  356EOH      C 1427   2.418   4.030   0.972  0.0111  0.2884  0.0147
  356EOH      C 1428   2.458   4.172   1.017  0.8099  0.1030 -0.0920
  356EOH      H 1429   2.491   3.941   1.123 -1.7169  1.5121  1.9720
  357EOH      O 1430   1.182   3.762   2.833  0.0205  0.2494  0.1467
  357EOH      C 1431   1.225   3.885   2.774 -0.1967  0.0027 -0.5267
  357EOH      C 1432   1.353   3.871   2.689  0.2680  0.8982  0.0140
  357EOH      H 1433   1.252   3.710   2.871 -1.8766 -1.4773  1.3972
  358EOH      O 1434   4.299   1.781   6.394 -0.3711  0.7568 -0.1355
  358EOH      C 1435   4.391   1.837   6.488  0.1980 -0.2574 -0.0814
  358EOH      C 1436   4.439   1.977   6.447 -0.3582  0.0343  0.2618
  358EOH      H 1437   4.321   1.693   6.366  1.5024  1.5244 -1.0971
  359EOH      O 1438   1.501   0.517   2.680  0.1502 -0.2160  0.6250
  359EOH      C 1439   1.611   0.458   2.749  0.5400 -0.0870  0.1165
  359EOH      C 1440   1.644   0.327   2.675  0.2622 -0.3149  0.3969
  359EOH      H 1441   1.539   0.552   2.601  3.0755  1.1694  2.6068
  360EOH      O 1442   6.284   7.705   2.341  0.0072  0.3516  0.1227
  360EOH      C 1443   6.350   7.785   2.242 -0.1654  0.2370 -0.0865
  360EOH      C 1444   6.292   7.741   2.107 -0.3482  0.6699 -0.1473
  360EOH      H 1445   6.305   7.614   2.327 -3.3120 -0.0719 -2.8685
  361EOH      O 1446   0.490   7.125   5.973 -0.6511  0.0254 -0.6492
  361EOH      C 1447   0.404   7.012   5.989  0.1250 -0.4787 -0.0247
  361EOH      C 1448   0.423   6.897   5.889 -0.2150 -0.2948 -0.3027
  361EOH      H 1449   0.454   7.207   6.003 -1.9286 -1.0537  0.8538
  362EOH      O 1450   1.667   4.374   1.790 -0.0945  0.0181 -0.0194
  362EOH      C 1451   1.666   4.477   1.888 -0.2984  0.0893 -0.0962
  362EOH      C 1452   1.525   4.534   1.914 -0.3637 -0.0394 -0.1696
  362EOH      H 1453   1.651   4.419   1.708  0.7834 -0.5763 -0.5179
  363EOH      O 1454   2.750   3.248   2.761 -0.2982 -0.3036  0.8351
  363EOH      C 1455   2.653   3.349   2.733  0.4034  0.0960 -0.1472
  363EOH      C 1456   2.566   3.298   2.617  0.0177  0.0113  0.1820
  363EOH      H 1457   2.818   3.293   2.809 -0.5564  1.2603 -0.2535
  364EOH      O 1458   1.690   6.296   0.616  0.0306  0.1883 -0.2541
  364EOH      C 1459   1.679   6.402   0.520  0.3656  0.5864  0.1465
  364EOH      C 1460   1.732   6.367   0.380  0.4203  0.7810  0.1191
  364EOH      H 1461   1.779   6.285   0.645  0.1555  1.2216 -0.2080
  365EOH      O 1462   5.134   0.141   4.532 -0.0948 -0.0571  0.2955
  365EOH      C 1463   5.162   0.068   4.651  0.0671  0.4666  0.5814
  365EOH      C 1464   5.270   0.144   4.730  0.3254  0.1876  0.4979
  365EOH      H 1465   5.041   0.156   4.525 -0.0221  1.2027  1.7520
  366EOH      O 1466   1.887   2.594   3.353  0.0437 -0.0119 -0.5957
  366EOH      C 1467   1.821   2.698   3.424  0.3333 -0.3173  0.1246
  366EOH      C 1468   1.671   2.670   3.405  0.1917  0.5811 -0.1325
  366EOH      H 1469   1.886   2.631   3.266  1.4080  1.7524  0.1067
  367EOH      O 1470   5.483   0.068   3.981  0.3206  0.2980 -0.1492
  367EOH      C 1471   5.496   0.017   4.114  0.2705  0.4924 -0.0689
  367EOH      C 1472   5.363  -0.009   4.187  0.3466  0.2409 -0.0211
  367EOH      H 1473   5.469   0.162   3.987  0.1588  0.4778 -2.6566
  368EOH      O 1474   1.482   6.321   4.396  0.1967  0.0403 -0.0165
  368EOH      C 1475   1.591   6.337   4.487  0.0125 -0.1414  0.2376
  368EOH      C 1476   1.537   6.332   4.631  0.4592  0.5051  0.4292
  368EOH      H 1477   1.520   6.344   4.313 -1.5361  0.8049 -0.6287
  369EOH      O 1478   3.352   1.499   3.762  0.2346  0.4563 -0.2394
  369EOH      C 1479   3.377   1.404   3.866  0.1162 -0.0149 -0.6407
  369EOH      C 1480   3.508   1.325   3.842  0.3189 -0.0136  0.4630
  369EOH      H 1481   3.293   1.563   3.799 -0.9689 -0.4319 -0.5705
  370EOH      O 1482   3.340   6.076   0.332  0.1646  0.0369  0.0323
  370EOH      C 1483   3.336   5.942   0.381 -0.4198  0.2319  0.5124
  370EOH      C 1484   3.427   5.928   0.505  0.1964  0.1387  0.0474
  370EOH      H 1485   3.291   6.086   0.251 -0.0452  3.1093  0.4691
  371EOH      O 1486   5.214   3.150   6.602 -0.3638 -0.0226 -0.7100
  371EOH      C 1487   5.301   3.040   6.626 -0.2662  0.2314  0.1136
  371EOH      C 1488   5.408   3.058   6.517 -0.2689  0.4054  0.1408
  371EOH      H 1489   5.130   3.138   6.645 -0.3998  1.8822 -0.1890
  372EOH      O 1490   3.016   1.040   0.580 -0.1559  0.1047  0.5526
  372EOH      C 1491   3.007   1.162   0.653 -0.4023  0.1318  0.4772
  372EOH      C 1492   3.124   1.159   0.754  0.0225  0.3231 -0.0059
  372EOH      H 1493   3.056   1.057   0.495  1.3508 -2.0345  0.7782
  373EOH      O 1494   4.843   1.533   5.785  0.0116 -0.2083  0.1349
  373EOH      C 1495   4.891   1.591   5.663 -0.2299 -0.8045 -0.2455
  373EOH      C 1496   5.025   1.528   5.621  0.3201  0.1750  0.0279
  373EOH      H 1497   4.911   1.527   5.851 -1.1095 -1.8406  1.1739
  374EOH      O 1498   0.160   6.925   2.608  0.1590 -0.3316  0.1222
  374EOH      C 1499   0.044   6.998   2.651  0.4035 -0.0739  0.3425
  374EOH      C 1500   0.084   7.146   2.663 -0.1126  0.0803  0.1442
  374EOH      H 1501   0.138   6.833   2.606 -0.4827 -0.1736 -0.3792
  375EOH      O 1502   2.036   2.031   5.078 -0.0375  0.3618 -0.1246
  375EOH      C 1503   2.028   1.911   5.000  0.3888  0.2145  0.0579
  375EOH      C 1504   1.916   1.819   5.051  0.3865  0.0509 -0.2438
  375EOH      H 1505   2.092   2.097   5.041  3.0257 -1.7358  0.6058
  376EOH      O 1506   4.002   1.346   5.721  0.5162 -0.7794 -0.0942
  376EOH      C 1507   4.088   1.392   5.825  0.1014 -0.0124 -0.0866
  376EOH      C 1508   4.089   1.271   5.920 -0.1997  0.0819  0.0381
  376EOH      H 1509   4.039   1.371   5.638 -1.1183 -0.4101 -0.7170
  377EOH      O 1510   2.191   0.861   4.083 -0.5630  0.1788 -0.0667
  377EOH      C 1511   2.175   1.003   4.080 -0.2108  0.2232  0.1437
  377EOH      C 1512   2.157   1.040   3.932 -0.3428 -0.2525  0.0389
  377EOH      H 1513   2.113   0.815   4.056  0.2193 -1.0058 -0.3484
  378EOH      O 1514   1.948   0.401   1.615 -0.2756 -0.1895  0.0647
  378EOH      C 1515   2.018   0.344   1.727 -0.0399  0.0980  0.0671
  378EOH      C 1516   1.932   0.272   1.833 -0.2203 -0.1282 -0.2285
  378EOH      H 1517   1.968   0.493   1.618  1.3159 -0.5090 -0.1509
  379EOH      O 1518   2.792   7.680   7.191  0.6495  0.1877  0.2841
  379EOH      C 1519   2.851   7.741   7.076 -0.3908  0.3069 -0.1906
  379EOH      C 1520   2.976   7.660   7.036 -0.1611  0.6363 -0.1376
  379EOH      H 1521   2.731   7.743   7.226 -0.2725  1.2845 -3.1219
  380EOH      O 1522   2.638   2.052   1.345 -0.3623 -0.6699  0.1635
  380EOH      C 1523   2.505   2.046   1.398 -0.5119 -0.3136 -0.1713
  380EOH      C 1524   2.442   2.186   1.403 -0.1991 -0.1628 -0.4678
  380EOH      H 1525   2.679   1.967   1.353 -0.2658 -0.6092  0.3205
  381EOH      O 1526   1.062   4.145   0.172 -0.2870 -0.0010  0.3223
  381EOH      C 1527   1.200   4.134   0.208 -0.1393  0.0606 -0.2258
  381EOH      C 1528   1.271   4.177   0.078 -0.0185  0.2083 -0.1119
  381EOH      H 1529   1.007   4.111   0.241 -1.2093 -0.6398 -0.7051
  382EOH      O 1530   4.432   4.960   5.173  0.0815  0.2416  0.1267
  382EOH      C 1531   4.544   4.989   5.088 -0.1919 -0.1108 -0.3553
  382EOH      C 1532   4.559   5.140   5.062 -0.5435 -0.0705 -0.3336
  382EOH      H 1533   4.437   4.869   5.196 -0.7159  0.6813  2.1455
  383EOH      O 1534   2.807   3.015   4.446 -0.1151  0.7690 -0.0445
  383EOH      C 1535   2.911   3.000   4.350  0.3539  0.2767  0.5402
  383EOH      C 1536   2.917   3.144   4.296  0.3644 -0.1274 -0.5481
  383EOH      H 1537   2.743   3.039   4.382  0.7779  2.0852 -0.4628
  384EOH      O 1538   2.523   3.626   1.997  0.1043  0.5136  0.0649
  384EOH      C 1539   2.656   3.583   1.968 -0.0792 -0.0955  0.1270
  384EOH      C 1540   2.758   3.695   1.995 -0.0199 -0.1394  0.0856
  384EOH      H 1541   2.506   3.702   1.944 -1.2817  1.6832  2.0977
  385EOH      O 1542   0.308   7.618   1.557 -0.0315  0.8497 -0.2351
  385EOH      C 1543   0.399   7.588   1.450  0.0893 -0.0680  0.1220
  385EOH      C 1544   0.356   7.671   1.328 -0.0644  0.4909  0.5557
  385EOH      H 1545   0.365   7.611   1.632  1.4782  0.1591 -1.4192
  386EOH      O 1546   3.540   5.714   1.914  0.3320  0.2117 -0.3849
  386EOH      C 1547   3.673   5.686   1.960  0.1654 -0.2609 -0.1922
  386EOH      C 1548   3.745   5.581   1.874  0.5268 -0.3001  0.1563
  386EOH      H 1549   3.516   5.783   1.974  2.1192 -0.5493  1.2652
  387EOH      O 1550   3.366   2.575   1.812 -0.3467 -0.4171 -0.0271
  387EOH      C 1551   3.261   2.663   1.769  0.1246  0.1256 -0.0805
  387EOH      C 1552   3.125   2.629   1.832  0.5178 -0.4992  0.4511
  387EOH      H 1553   3.446   2.602   1.768 -0.1566 -2.1702 -0.7974
  388EOH      O 1554   1.851   5.380   7.101  0.1990  0.1188 -0.4575
  388EOH      C 1555   1.847   5.280   6.999  0.2441  0.2494 -0.5878
  388EOH      C 1556   1.852   5.341   6.858 -0.5790 -0.7802 -1.0716
  388EOH      H 1557   1.759   5.395   7.117  0.2925 -0.5192  0.7133
  389EOH      O 1558   4.947   3.067   3.392  0.2928 -0.0839 -0.7277
  389EOH      C 1559   4.972   2.993   3.272  0.1978 -0.6001 -0.4296
  389EOH      C 1560   4.850   2.905   3.241 -0.5151  0.0521  0.4851
  389EOH      H 1561   4.998   3.146   3.383 -0.0057  0.2114  0.1557
  390EOH      O 1562   1.064   2.673   3.165  0.5231 -0.5887 -0.0613
  390EOH      C 1563   1.101   2.793   3.095  0.3956 -0.3492  0.2775
  390EOH      C 1564   1.077   2.763   2.946 -0.3406 -0.4335  0.4102
  390EOH      H 1565   0.987   2.656   3.114 -0.1169 -1.3635  1.1584
  391EOH      O 1566   4.188   1.189   5.411 -0.0457 -0.0110  0.0404
  391EOH      C 1567   4.174   1.094   5.305 -0.8145 -0.0727  0.1943
  391EOH      C 1568   4.171   1.182   5.179  0.4319 -0.2030  0.0633
  391EOH      H 1569   4.169   1.129   5.482  0.4351  0.3098  0.4433
  392EOH      O 1570   2.690   4.275   3.081  0.4617 -0.1744 -0.9636
  392EOH      C 1571   2.720   4.411   3.050  0.0042  0.1599  0.0478
  392EOH      C 1572   2.786   4.421   2.912  0.7491  0.1012  0.3971
  392EOH      H 1573   2.688   4.268   3.176 -1.4563  0.0847 -0.9612
  393EOH      O 1574   1.166   6.846   0.127  0.0737 -0.4342 -0.4486
  393EOH      C 1575   1.035   6.896   0.158  0.2422  0.0470 -0.5052
  393EOH      C 1576   1.006   7.020   0.073 -0.3313  0.0654 -0.2864
  393EOH      H 1577   1.177   6.771   0.183  4.3920  0.8018  0.5128
  394EOH      O 1578   7.866   3.484   4.228  0.5044 -0.4151 -0.3582
  394EOH      C 1579   7.877   3.621   4.187  0.1724 -0.5566 -0.9259
  394EOH      C 1580   7.884   3.640   4.035  0.8447  0.5095 -0.7643
  394EOH      H 1581   7.911   3.476   4.311  1.1106 -2.6228 -0.8681
  395EOH      O 1582   6.454   7.190   3.124 -0.3531  0.5269  0.9864
  395EOH      C 1583   6.362   7.126   3.212 -0.7755  0.0513  0.1979
  395EOH      C 1584   6.274   7.038   3.121 -0.4229  0.2011 -0.2846
  395EOH      H 1585   6.407   7.217   3.047  0.4852  1.1483  0.6832
  396EOH      O 1586   0.152   1.358   7.756 -0.2015  0.1626 -0.0927
  396EOH      C 1587   0.242   1.248   7.738  0.3308  0.6581 -0.5000
  396EOH      C 1588   0.235   1.190   7.595  0.5121  0.3175 -0.3718
  396EOH      H 1589   0.157   1.375   7.849 -0.3705 -1.5305  0.2359
  397EOH      O 1590   2.093   5.116   4.328 -0.1874  0.5145  0.7166
  397EOH      C 1591   2.139   5.135   4.194 -0.0464 -0.1742  0.6655
  397EOH      C 1592   2.157   4.992   4.140 -0.2364  0.0473  0.0140
  397EOH      H 1593   2.119   5.192   4.379  1.9489  0.5885 -0.4141
  398EOH      O 1594   0.985   5.507   7.875  0.1105  0.7295 -0.1520
  398EOH      C 1595   0.975   5.470   7.738  0.7872  0.4757 -0.1330
  398EOH      C 1596   0.913   5.589   7.663  0.6320  0.5590  0.1255
  398EOH      H 1597   0.914   5.468   7.924  1.5890 -0.8383  0.8089
  399EOH      O 1598   1.966   0.982   3.325  0.7600  0.5346  0.4323
  399EOH      C 1599   1.998   1.078   3.224 -0.2034 -0.3366 -0.7161
  399EOH      C 1600   2.131   1.150   3.256 -0.3195 -0.4274 -0.0154
  399EOH      H 1601   1.897   0.926   3.294  2.2989 -0.2107 -1.7334
  400EOH      O 1602   1.731   2.588   4.822  0.0245 -0.4872  0.1101
  400EOH      C 1603   1.639   2.673   4.890  0.3864  0.1172 -0.1508
  400EOH      C 1604   1.669   2.823   4.912 -0.1895  0.1526  0.4136
  400EOH      H 1605   1.716   2.495   4.831 -1.7385 -0.3499 -1.0952
  401EOH      O 1606   3.181   2.462   4.778 -0.4946 -0.3220  0.0571
  401EOH      C 1607   3.067   2.537   4.821 -0.6231 -0.2635 -0.3837
  401EOH      C 1608   3.085   2.681   4.770 -0.5336 -0.2133 -0.2113
  401EOH      H 1609   3.169   2.369   4.793  0.8345 -0.1485  2.5659
  402EOH      O 1610   2.289   3.698   1.136  0.0037 -0.0185 -0.1292
  402EOH      C 1611   2.159   3.745   1.174  0.2721 -0.2878  1.1702
  402EOH      C 1612   2.093   3.649   1.274 -0.0991 -0.4739  0.7446
  402EOH      H 1613   2.348   3.771   1.123  1.1566 -0.6073  1.6335
  403EOH      O 1614   6.568   7.099   4.032 -0.6279  0.2082  0.1186
  403EOH      C 1615   6.613   7.139   4.161 -0.0392  0.1972 -0.0820
  403EOH      C 1616   6.650   7.011   4.238  0.3764  0.0386 -0.5447
  403EOH      H 1617   6.487   7.052   4.043 -1.8683  2.3965  0.3941
  404EOH      O 1618   3.888   5.121   6.789  0.4341 -0.1428  0.0447
  404EOH      C 1619   4.004   5.140   6.706  0.5311  0.1499  0.2485
  404EOH      C 1620   3.960   5.211   6.577 -0.1653 -1.2296 -0.2850
  404EOH      H 1621   3.870   5.212   6.803  1.8443  0.6328 -2.6713
  405EOH      O 1622   0.170   6.942   3.293  0.1707 -0.1367 -0.0767
  405EOH      C 1623   0.099   6.948   3.170  0.4164  0.2723 -0.2020
  405EOH      C 1624   0.183   7.011   3.058  0.3601  0.2970 -0.2304
  405EOH      H 1625   0.233   6.873   3.279 -0.5733 -0.9451  0.5758
  406EOH      O 1626   1.661   4.716   5.443 -0.5679 -0.6098 -0.5953
  406EOH      C 1627   1.656   4.637   5.323 -0.4990 -0.1081 -0.9321
  406EOH      C 1628   1.802   4.592   5.304 -0.5645 -0.6566 -0.1409
  406EOH      H 1629   1.635   4.806   5.429  0.4132  0.1033  1.9170
  407EOH      O 1630   1.611   0.635   2.492 -0.0455 -0.1251  0.5256
  407EOH      C 1631   1.560   0.648   2.359  0.3467  0.2336  0.4091
  407EOH      C 1632   1.667   0.598   2.261 -0.0419  0.1380  0.0303
  407EOH      H 1633   1.574   0.710   2.536 -0.8752  0.6403 -1.4045
  408EOH      O 1634   2.678   3.848   6.341  0.7448 -0.4149  0.1770
  408EOH      C 1635   2.717   3.865   6.478 -0.1767  0.0620  0.3830
  408EOH      C 1636   2.849   3.792   6.511  0.3461  1.0252  0.4579
  408EOH      H 1637   2.585   3.862   6.341  0.8077  0.0440 -1.2719
  409EOH      O 1638   2.958   1.835   5.410 -0.1171  0.3592 -0.0303
  409EOH      C 1639   2.917   1.963   5.361  0.1943  0.3941 -0.2071
  409EOH      C 1640   2.763   1.970   5.358  0.1849  0.5951  0.5140
  409EOH      H 1641   2.938   1.824   5.502 -1.8478 -0.1081 -0.4629
  410EOH      O 1642   1.301   4.464   6.182 -0.0903  0.2421  0.2614
  410EOH      C 1643   1.256   4.487   6.048 -0.1059 -0.1071  0.2061
  410EOH      C 1644   1.264   4.351   5.977 -0.0398 -0.0449  0.0940
  410EOH      H 1645   1.221   4.468   6.232 -1.0314  0.7956 -1.2317
  411EOH      O 1646   0.787   4.038   4.497 -0.1110 -0.1078  0.1452
  411EOH      C 1647   0.893   4.112   4.435 -0.3692  0.1135 -0.0332
  411EOH      C 1648   0.912   4.062   4.291 -0.6127 -0.1679  0.0325
  411EOH      H 1649   0.756   4.075   4.578 -1.4516  0.9982 -0.8468
  412EOH      O 1650   4.176   7.153   4.058 -0.0132  0.4144  0.3835
  412EOH      C 1651   4.199   7.075   3.940 -0.0879  0.4519  0.3424
  412EOH      C 1652   4.066   7.055   3.865 -0.2326 -0.0084  0.7246
  412EOH      H 1653   4.174   7.244   4.032  1.9154  0.4242  0.1942
  413EOH      O 1654   2.407   3.270   1.071  0.8267 -0.3646  0.6810
  413EOH      C 1655   2.354   3.165   1.153 -0.5529 -0.1840  0.0301
  413EOH      C 1656   2.369   3.216   1.297  0.3934  0.1417 -0.1754
  413EOH      H 1657   2.350   3.346   1.065  3.1746  1.3025 -1.7771
  414EOH      O 1658   2.221   7.748   3.451  0.4007  0.9742 -0.3808
  414EOH      C 1659   2.078   7.748   3.466  0.3985  0.2288 -0.3935
  414EOH      C 1660   2.003   7.865   3.400 -0.2261  0.3952  0.6012
  414EOH      H 1661   2.252   7.695   3.523 -1.1265  1.4868  0.6720
  415EOH      O 1662   2.064   5.454   1.985  0.0675 -0.0347  0.4459
  415EOH      C 1663   2.145   5.534   1.898 -0.1603  0.1383  0.3931
  415EOH      C 1664   2.096   5.680   1.893  0.0752  0.2049 -0.0372
  415EOH      H 1665   2.034   5.378   1.938 -0.9768  0.7155 -0.1152
  416EOH      O 1666   0.035   1.218   6.488  0.1027  0.1842  0.0667
  416EOH      C 1667   0.045   1.089   6.426 -0.0541  0.0604  0.3015
  416EOH      C 1668  -0.024   0.983   6.514 -0.6317 -0.0884 -0.3348
  416EOH      H 1669   0.057   1.211   6.579 -0.4751  0.6946  0.2423
  417EOH      O 1670   0.801   0.274   1.472 -0.3769 -0.0408  0.1079
  417EOH      C 1671   0.719   0.184   1.396  0.0028 -0.1676 -0.1534
  417EOH      C 1672   0.740   0.034   1.422 -0.2572 -0.2622 -0.4900
  417EOH      H 1673   0.875   0.224   1.502  0.7328  0.3713 -1.9178
  418EOH      O 1674   7.598   7.829   4.835 -0.1375  0.1965 -0.0251
  418EOH      C 1675   7.678   7.934   4.780  0.0257  0.0424 -0.0862
  418EOH      C 1676   7.697   7.910   4.629 -0.0775  0.0733 -0.1040
  418EOH      H 1677   7.624   7.806   4.923  0.2054  1.1521  0.1271
  419EOH      O 1678   2.371   4.180   6.412 -0.0518 -0.3081  0.6065
  419EOH      C 1679   2.333   4.298   6.341 -0.0540 -0.4676  0.3426
  419EOH      C 1680   2.449   4.398   6.327 -0.4503 -0.0864 -0.2351
  419EOH      H 1681   2.341   4.189   6.501 -0.9084 -2.1449  0.5238
  420EOH      O 1682   1.573   2.491   0.578  0.1743 -0.4438 -0.0394
  420EOH      C 1683   1.629   2.513   0.449 -0.0560 -0.6184 -0.1712
  420EOH      C 1684   1.623   2.376   0.379 -0.4340 -0.3029 -0.7603
  420EOH      H 1685   1.608   2.556   0.636  1.1733 -2.6979  1.9925
  421EOH      O 1686   2.120   4.883   6.917  0.3247 -0.0714 -0.2493
  421EOH      C 1687   2.033   4.897   6.805 -0.0201 -0.0066  0.0265
  421EOH      C 1688   2.077   5.030   6.740 -0.6383  0.3339  0.2971
  421EOH      H 1689   2.071   4.828   6.977  0.8776 -0.9835 -0.6099
  422EOH      O 1690   1.317   5.471   2.491 -0.5194  0.0665  0.5198
  422EOH      C 1691   1.438   5.399   2.515 -0.4185 -0.1043 -0.4479
  422EOH      C 1692   1.408   5.249   2.528  0.2895 -0.2788 -0.8012
  422EOH      H 1693   1.341   5.561   2.475  2.5358 -1.0026 -1.3326
  423EOH      O 1694   0.501   4.684   2.379 -0.1705  0.1256  0.2858
  423EOH      C 1695   0.606   4.777   2.407 -0.3545  0.3751  0.1480
  423EOH      C 1696   0.545   4.888   2.494 -0.4282  0.1910  0.3300
  423EOH      H 1697   0.503   4.628   2.455  1.6843  1.9753  1.6506
  424EOH      O 1698   2.792   1.869   5.714 -0.8103  0.3007 -0.0425
  424EOH      C 1699   2.778   1.988   5.791  0.4308  0.3006  0.1965
  424EOH      C 1700   2.792   1.964   5.942  0.2281  0.0682  0.1773
  424EOH      H 1701   2.876   1.835   5.743 -0.9709  0.6082  0.7833
  425EOH      O 1702   5.119   4.165   4.487  0.2203 -0.0376  0.3388
  425EOH      C 1703   5.063   4.278   4.554 -0.0045  0.0363  0.0271
  425EOH      C 1704   5.182   4.334   4.634  0.0536 -0.1188  0.0493
  425EOH      H 1705   5.042   4.120   4.456 -1.4794  2.4099  0.8838
  426EOH      O 1706   0.476   5.513   2.680  0.4204 -0.6706 -0.4286
  426EOH      C 1707   0.564   5.623   2.657 -0.2551 -0.0204  0.0426
  426EOH      C 1708   0.519   5.745   2.738  0.3774  0.1830  0.0875
  426EOH      H 1709   0.479   5.473   2.766 -1.6096 -0.5331 -0.2611
  427EOH      O 1710   2.980   6.472   0.429 -0.3439  0.2580 -0.1002
  427EOH      C 1711   3.110   6.522   0.460 -0.1299 -0.4498  0.1581
  427EOH      C 1712   3.089   6.639   0.559  0.4359  0.0063 -0.2601
  427EOH      H 1713   2.909   6.535   0.434  0.8908  1.6119  1.1256
  428EOH      O 1714   0.168   3.034   7.569  0.3620 -0.1666  0.0620
  428EOH      C 1715   0.283   3.029   7.654  0.2291 -0.3604  0.2280
  428EOH      C 1716   0.271   2.885   7.707 -0.1546 -0.2047  0.5701
  428EOH      H 1717   0.162   3.120   7.528  2.2497 -0.1257 -0.1788
  429EOH      O 1718   3.021   7.691   1.875 -0.3222 -0.1244  0.0274
  429EOH      C 1719   3.145   7.746   1.921 -0.1328 -0.5072 -0.0291
  429EOH      C 1720   3.186   7.848   1.813  0.0974 -0.4322  0.1309
  429EOH      H 1721   2.956   7.728   1.933 -2.7844 -3.2421 -0.5883
  430EOH      O 1722   1.487   1.957   7.809  0.2039 -0.2624 -0.2456
  430EOH      C 1723   1.347   1.945   7.834  0.2728 -0.3206  0.1096
  430EOH      C 1724   1.313   1.797   7.858 -1.1776  0.0670  0.4774
  430EOH      H 1725   1.489   2.046   7.777  1.4983  0.9067  2.9327
  431EOH      O 1726   0.165   0.747   2.147  0.0364 -0.4271  0.2377
  431EOH      C 1727   0.226   0.876   2.158  0.1243 -0.4411 -0.0836
  431EOH      C 1728   0.132   0.998   2.161 -0.0338 -0.5722  0.2171
  431EOH      H 1729   0.226   0.679   2.173 -1.5490 -1.9851 -0.0485
  432EOH      O 1730   2.653   4.732   6.131  0.5438  0.5362  0.1983
  432EOH      C 1731   2.753   4.762   6.229  0.4222 -0.3080  0.5816
  432EOH      C 1732   2.691   4.807   6.363 -0.2738 -0.2368  0.2388
  432EOH      H 1733   2.696   4.664   6.082  4.0223  2.6198  0.1828
  433EOH      O 1734   2.165   0.615   4.562  0.2628 -0.2657  0.1396
  433EOH      C 1735   2.159   0.484   4.504 -0.2331 -0.1573 -0.0608
  433EOH      C 1736   2.027   0.411   4.533 -0.3470 -0.0340 -0.2689
  433EOH      H 1737   2.244   0.658   4.534  0.4453 -1.4421 -1.1965
  434EOH      O 1738   1.983   0.857   6.926  0.1015 -0.0043 -0.6555
  434EOH      C 1739   2.053   0.756   7.000 -0.3251  0.4832  0.4211
  434EOH      C 1740   1.951   0.682   7.089 -0.2674 -0.1555 -0.0457
  434EOH      H 1741   2.013   0.859   6.837  1.7227 -1.8580 -0.1943
  435EOH      O 1742   2.370   2.547   4.691 -0.4596  0.1480  0.1788
  435EOH      C 1743   2.397   2.624   4.573 -0.1084  0.1115  0.2350
  435EOH      C 1744   2.277   2.607   4.478  0.1353 -0.8862  0.1010
  435EOH      H 1745   2.453   2.552   4.734  0.3590  0.2066 -1.3698
  436EOH      O 1746   1.850   2.575   2.127  0.7946  0.6328  0.2764
  436EOH      C 1747   1.777   2.660   2.038  0.3601  0.0785  0.1010
  436EOH      C 1748   1.847   2.675   1.902 -0.0508  0.3265 -0.0844
  436EOH      H 1749   1.901   2.513   2.078  1.9606  2.4639 -0.8866
  437EOH      O 1750   3.544   6.912   2.974  0.7621  0.0223 -0.2096
  437EOH      C 1751   3.540   6.780   3.028  0.1458  0.2104  0.2052
  437EOH      C 1752   3.652   6.699   2.962 -0.2749  0.0488 -0.3148
  437EOH      H 1753   3.520   6.972   3.044  2.0073  1.0711 -0.6622
  438EOH      O 1754   1.530   2.698   3.991  0.4358  0.3285 -0.4257
  438EOH      C 1755   1.672   2.703   3.985  0.4736 -0.3597 -0.0942
  438EOH      C 1756   1.716   2.660   3.843  0.1540 -0.4897 -0.1527
  438EOH      H 1757   1.503   2.783   3.958 -1.3278  0.6787  1.7643
  439EOH      O 1758   1.064   3.311   6.112  0.4018  0.9097  0.3161
  439EOH      C 1759   0.957   3.350   6.198 -0.2959  0.5714 -0.3947
  439EOH      C 1760   0.913   3.495   6.171  0.4017  0.7351 -0.6402
  439EOH      H 1761   1.030   3.321   6.024 -2.1720 -2.3637  0.8508
  440EOH      O 1762   4.252   6.657   3.625  0.6743 -0.1684  0.6403
  440EOH      C 1763   4.207   6.771   3.551  0.4834 -0.5996  0.0914
  440EOH      C 1764   4.053   6.773   3.539  0.5073  0.4339 -0.0989
  440EOH      H 1765   4.215   6.576   3.595  1.4167  0.0586 -0.9553
  441EOH      O 1766   6.331   1.084   4.187 -0.1493  0.1768 -0.0864
  441EOH      C 1767   6.311   1.146   4.060  0.2472  0.2832 -0.0952
  441EOH      C 1768   6.428   1.125   3.961  0.2799 -0.2951  0.0665
  441EOH      H 1769   6.378   1.144   4.244 -1.4718  1.5430 -0.3804
  442EOH      O 1770   3.380   1.397   7.744  0.2820 -0.1610  0.7176
  442EOH      C 1771   3.345   1.506   7.830 -0.3077  0.3751 -0.1906
  442EOH      C 1772   3.221   1.488   7.920 -0.3107 -0.3940 -0.3424
  442EOH      H 1773   3.347   1.413   7.657 -2.3477 -1.1069  1.4951
  443EOH      O 1774   3.924   3.489   7.489 -0.7807  0.1763  0.6490
  443EOH      C 1775   3.979   3.397   7.584 -0.0943  0.4889  0.5556
  443EOH      C 1776   4.098   3.317   7.526 -0.3493  0.2479  0.3598
  443EOH      H 1777   3.989   3.555   7.470  0.4638 -0.4728  2.4758
  444EOH      O 1778   7.679   6.415   2.831  0.1140  0.8400 -0.4370
  444EOH      C 1779   7.548   6.420   2.773 -0.1122 -0.5112 -0.0854
  444EOH      C 1780   7.553   6.507   2.646  0.2111 -0.0336  0.2487
  444EOH      H 1781   7.717   6.330   2.813 -2.5403 -1.3557  3.3808
  445EOH      O 1782   1.336   2.257   7.500  0.4021  0.6902  0.4133
  445EOH      C 1783   1.370   2.232   7.363 -0.0827  0.0571  0.4071
  445EOH      C 1784   1.316   2.334   7.261 -0.4025 -0.6350 -0.1254
  445EOH      H 1785   1.250   2.224   7.522  1.3511 -0.9754  1.7504
  446EOH      O 1786   4.486   3.920   7.851  0.0490 -0.3383  1.0775
  446EOH      C 1787   4.616   3.863   7.832  0.0560 -0.0511  0.2330
  446EOH      C 1788   4.705   3.893   7.954  0.3178  0.0234  0.0219
  446EOH      H 1789   4.445   3.880   7.926 -0.3332 -1.5677  0.2215
  447EOH      O 1790   1.912   0.094   5.761  0.2521  0.0675 -0.6028
  447EOH      C 1791   1.854  -0.026   5.709  0.8596 -0.6095  0.2680
  447EOH      C 1792   1.949  -0.063   5.594  0.1768  0.1485 -0.5508
  447EOH      H 1793   1.980   0.066   5.820 -0.1806  1.3581  0.5456
  448EOH      O 1794   0.711   0.924   2.824  0.0822 -0.2257  0.0729
  448EOH      C 1795   0.772   0.880   2.945  0.1081  0.1783  0.2084
  448EOH      C 1796   0.876   0.983   2.993  0.4021  0.0296 -0.1098
  448EOH      H 1797   0.683   1.014   2.833  1.8374  0.6432 -2.3409
  449EOH      O 1798   7.802   3.086   4.319 -0.2777 -0.1776 -0.9276
  449EOH      C 1799   7.714   3.033   4.418 -0.1505  0.4708 -0.4616
  449EOH      C 1800   7.679   3.140   4.522  0.2019  0.0732  0.0708
  449EOH      H 1801   7.763   3.158   4.272  1.3839 -1.0397 -3.7841
  450EOH      O 1802   3.998   0.952   6.680  0.2321  0.1176 -0.5101
  450EOH      C 1803   4.099   0.902   6.769 -0.6367  0.2497  0.5652
  450EOH      C 1804   4.051   0.760   6.804 -0.0897 -0.1411 -0.2471
  450EOH      H 1805   4.024   0.933   6.591  2.1446  0.2964 -0.0193
  451EOH      O 1806   5.399   4.281   5.176  0.3706 -0.3103  0.0302
  451EOH      C 1807   5.323   4.342   5.072  0.2179 -0.2589  0.1730
  451EOH      C 1808   5.417   4.390   4.960 -0.3333 -0.4848 -0.3927
  451EOH      H 1809   5.349   4.286   5.256  0.0800  0.0631 -0.1732
  452EOH      O 1810   2.508   5.604   4.808 -0.0716  0.3869  0.4572
  452EOH      C 1811   2.366   5.610   4.821 -0.1410 -0.1861  0.0302
  452EOH      C 1812   2.336   5.699   4.944  0.4841  0.1804 -0.0795
  452EOH      H 1813   2.542   5.539   4.868  3.5077 -0.5177 -2.3330
  453EOH      O 1814   1.970   1.351   7.156  0.7395  0.0265 -0.3447
  453EOH      C 1815   1.885   1.260   7.087  0.3765  0.3577 -0.3325
  453EOH      C 1816   1.986   1.170   7.015  0.3793 -0.4696  0.6984
  453EOH      H 1817   1.933   1.368   7.242 -1.7471  0.5401 -1.4786
  454EOH      O 1818   0.724   2.830   2.556 -0.1140  0.0903 -0.0131
  454EOH      C 1819   0.855   2.874   2.518 -0.0609 -0.0577  0.0007
  454EOH      C 1820   0.885   2.787   2.394  0.3084 -0.1023  0.1223
  454EOH      H 1821   0.688   2.892   2.618  0.2146  0.4210 -0.1532
  455EOH      O 1822   2.053   4.985   0.929 -0.5572  0.1755 -0.6904
  455EOH      C 1823   2.099   4.947   1.059 -0.0593  0.0496 -0.9025
  455EOH      C 1824   2.006   5.022   1.156  0.0036 -0.2985 -0.5685
  455EOH      H 1825   2.112   4.959   0.861  0.7244 -1.3843  0.9739
  456EOH      O 1826   0.140   3.485   7.618 -0.6380  0.0043 -0.4743
  456EOH      C 1827   0.028   3.559   7.667 -0.4794  0.0288 -0.1476
  456EOH      C 1828   0.077   3.697   7.713 -0.2246 -0.2852  0.5347
  456EOH      H 1829   0.190   3.448   7.689  2.4492  2.3407 -1.3165
  457EOH      O 1830   4.668   3.827   5.266  0.2767 -0.2904 -0.5280
  457EOH      C 1831   4.721   3.864   5.393  0.0671 -0.6215 -0.3439
  457EOH      C 1832   4.611   3.945   5.464  0.3393 -0.4694 -0.0941
  457EOH      H 1833   4.621   3.745   5.270  0.0277 -0.1242  0.0022
  458EOH      O 1834   2.838   3.361   1.701  0.1512 -0.1056  0.0999
  458EOH      C 1835   2.919   3.479   1.695 -0.4395  0.3134  0.3960
  458EOH      C 1836   2.827   3.592   1.644 -0.1140  0.4279  0.0600
  458EOH      H 1837   2.875   3.305   1.768  1.2447  0.5829  0.0903
  459EOH      O 1838   3.636   6.706   5.634  0.1105 -0.2200  0.0999
  459EOH      C 1839   3.665   6.801   5.532 -0.0344 -0.0996  0.1700
  459EOH      C 1840   3.676   6.937   5.602 -0.1166 -0.0040 -0.0024
  459EOH      H 1841   3.544   6.683   5.630 -0.1132  0.3225  1.5163
  460EOH      O 1842   1.640   4.037   2.882 -0.4215  0.2612  0.6222
  460EOH      C 1843   1.631   3.927   2.973  0.2742 -0.0239  0.3513
  460EOH      C 1844   1.615   3.978   3.118  0.5008 -0.3235  0.4821
  460EOH      H 1845   1.570   4.096   2.903 -0.0540  0.4394  1.3306
  461EOH      O 1846   4.804   3.833   3.958  0.5297  0.7986 -0.2556
  461EOH      C 1847   4.857   3.814   4.089 -0.4554 -0.0457  0.0321
  461EOH      C 1848   4.789   3.683   4.134 -0.6695  0.0542 -0.0036
  461EOH      H 1849   4.862   3.779   3.906 -0.8157  0.8909 -1.9075
  462EOH      O 1850   2.261   6.622   3.913 -0.1989  0.5084  0.3649
  462EOH      C 1851   2.331   6.529   3.996 -0.2412 -0.0237 -0.1916
  462EOH      C 1852   2.390   6.607   4.115  0.2561 -0.2246 -0.3036
  462EOH      H 1853   2.244   6.576   3.832 -0.4825  0.9883  0.1469
  463EOH      O 1854   1.855   5.052   5.244 -0.1006  0.2605 -0.4912
  463EOH      C 1855   1.966   4.984   5.303 -0.0777  0.5974 -0.1454
  463EOH      C 1856   2.095   5.065   5.278  0.3440 -0.1274 -0.3372
  463EOH      H 1857   1.779   4.998   5.259 -1.5969  2.1541 -1.0657
  464EOH      O 1858   3.892   4.911   3.166  0.2346  0.1375 -0.0375
  464EOH      C 1859   3.758   4.961   3.155  0.2168  0.1980  0.4100
  464EOH      C 1860   3.680   4.926   3.282 -0.2080  0.0922  0.1217
  464EOH      H 1861   3.950   4.984   3.152 -0.2815  0.6902  0.6765
  465EOH      O 1862   3.119   5.553   2.596  0.0961 -0.0959 -0.3964
  465EOH      C 1863   3.178   5.505   2.717  0.4091 -0.1457 -0.5680
  465EOH      C 1864   3.297   5.591   2.764  0.7996 -0.5814 -0.7476
  465EOH      H 1865   3.025   5.550   2.608 -0.1370  1.4185 -1.7095
  466EOH      O 1866   1.317   6.475   4.894 -0.2187  0.3552 -0.3381
  466EOH      C 1867   1.331   6.606   4.838 -0.4398  0.2876 -0.5517
  466EOH      C 1868   1.457   6.680   4.886 -0.0866 -0.2375 -0.6693
  466EOH      H 1869   1.270   6.419   4.834  2.4926  0.6192 -2.7877
  467EOH      O 1870   0.768   3.203   3.470 -0.5220 -0.0167  0.0035
  467EOH      C 1871   0.721   3.292   3.368 -0.0338  0.5785  0.2852
  467EOH      C 1872   0.771   3.433   3.402  0.8306  0.3684 -0.1024
  467EOH      H 1873   0.734   3.117   3.452 -0.9977  0.0772  0.4674
  468EOH      O 1874   1.560   2.905   0.745 -0.8308 -0.0146  0.3585
  468EOH      C 1875   1.535   2.964   0.617  0.2272 -0.4753 -0.0649
  468EOH      C 1876   1.590   2.888   0.495 -0.0035 -0.4239 -0.2007
  468EOH      H 1877   1.523   2.956   0.815 -0.6370  1.8645 -0.8861
  469EOH      O 1878   5.207   5.030   6.063 -0.4140 -0.1499  0.2952
  469EOH      C 1879   5.116   5.105   5.984 -0.0604 -0.3365 -0.2899
  469EOH      C 1880   5.099   5.245   6.044  0.2958 -0.3516 -0.1551
  469EOH      H 1881   5.250   4.971   6.004  0.3255 -0.7647  1.4150
  470EOH      O 1882   7.632   2.906   0.062  0.1323  0.9160 -0.2754
  470EOH      C 1883   7.762   2.912   0.119  0.0452 -0.3122  0.0719
  470EOH      C 1884   7.752   2.888   0.271  0.5838  0.2534  0.2017
  470EOH      H 1885   7.633   2.972  -0.005 -0.8321  1.4090  0.1850
  471EOH      O 1886   7.710   1.626   0.373  0.1413  0.0513 -0.2740
  471EOH      C 1887   7.573   1.631   0.331  0.0416  0.0617  0.0513
  471EOH      C 1888   7.529   1.489   0.291 -0.3808  0.2373 -0.1156
  471EOH      H 1889   7.709   1.633   0.467 -2.6603  1.9258 -0.3596
  472EOH      O 1890   1.008   6.603   1.265 -0.0185 -0.0382 -0.3258
  472EOH      C 1891   1.049   6.740   1.272  0.6630 -0.2549 -0.1108
  472EOH      C 1892   0.978   6.828   1.167 -0.3144 -0.0767  0.7000
  472EOH      H 1893   0.921   6.597   1.302  0.2559 -0.5448  0.2381
  473EOH      O 1894   1.463   7.856   0.486  0.2030 -0.1511 -0.2058
  473EOH      C 1895   1.532   7.972   0.439 -0.3019  0.0084 -0.5602
  473EOH      C 1896   1.684   7.983   0.464 -0.3691 -0.1118 -0.0988
  473EOH      H 1897   1.461   7.791   0.417 -2.3522 -0.9327  0.5389
  474EOH      O 1898   1.071   2.400   5.304 -0.0915 -0.0797 -0.2259
  474EOH      C 1899   1.169   2.504   5.312 -0.0456 -0.1161 -0.3069
  474EOH      C 1900   1.092   2.637   5.329  0.0358 -0.0770 -0.2454
  474EOH      H 1901   1.101   2.325   5.352 -2.1504 -1.0337 -0.3818
  475EOH      O 1902   2.484   6.337   4.563 -0.0321  0.0735  0.3866
  475EOH      C 1903   2.412   6.451   4.513 -0.2819 -0.2407  0.0274
  475EOH      C 1904   2.504   6.575   4.510 -0.0887 -0.3829  0.0218
  475EOH      H 1905   2.419   6.273   4.588 -1.1771  0.8996 -0.4132
  476EOH      O 1906   1.224   6.739   4.356 -0.1374 -0.0455 -0.3135
  476EOH      C 1907   1.187   6.833   4.458  0.1017 -0.1251 -0.1545
  476EOH      C 1908   1.100   6.927   4.373  0.2493 -0.1144 -0.2970
  476EOH      H 1909   1.290   6.683   4.394 -0.4707 -0.6321 -0.5840
  477EOH      O 1910   3.679   7.008   2.752  0.1531  0.0742  0.0642
  477EOH      C 1911   3.601   6.971   2.638 -0.2732  0.2947  0.2835
  477EOH      C 1912   3.456   7.021   2.626 -0.3301 -0.0202 -0.3917
  477EOH      H 1913   3.642   6.960   2.825  1.2713 -0.8081  0.0720
  478EOH      O 1914   3.003   1.405   2.264 -0.1763 -0.9870  0.1577
  478EOH      C 1915   2.996   1.439   2.125  0.2336  0.7001  0.5305
  478EOH      C 1916   3.109   1.366   2.049 -0.4294  0.2130  0.0028
  478EOH      H 1917   3.076   1.451   2.303 -0.8650 -0.4134  0.7857
  479EOH      O 1918   2.812   0.130   7.362 -0.0447  0.4679 -0.3957
  479EOH      C 1919   2.780   0.268   7.379  0.2429  0.4538  0.2837
  479EOH      C 1920   2.830   0.343   7.255 -0.6099 -0.0722 -0.3839
  479EOH      H 1921   2.902   0.111   7.386  0.4544  1.6759 -1.2302
  480EOH      O 1922   7.435   7.163   3.865  0.1204  0.2466  0.1798
  480EOH      C 1923   7.458   7.073   3.974 -0.2142  0.0275  0.0702
  480EOH      C 1924   7.598   7.015   3.944 -0.5998 -0.7582 -0.2290
  480EOH      H 1925   7.341   7.159   3.865  0.0481  1.7150  0.3126
  481EOH      O 1926   3.122   7.317   3.370  0.2451  0.1976  0.2480
  481EOH      C 1927   3.050   7.432   3.323  0.6371  0.3853  0.1102
  481EOH      C 1928   3.156   7.520   3.253  0.2221  0.3740 -0.5330
  481EOH      H 1929   3.078   7.276   3.443  0.2610 -1.8731 -0.8917
  482EOH      O 1930   3.577   1.398   5.997  0.0386  0.3062  0.1047
  482EOH      C 1931   3.677   1.365   5.900 -0.7216 -0.3002 -0.4866
  482EOH      C 1932   3.707   1.496   5.825 -0.3516  0.2202  0.5571
  482EOH      H 1933   3.545   1.320   6.041 -0.2791  0.9524  1.0338
  483EOH      O 1934   5.369   7.687   3.451  0.3183 -0.1895 -0.4803
  483EOH      C 1935   5.506   7.716   3.482  0.3330 -0.9322  0.1684
  483EOH      C 1936   5.588   7.705   3.352  0.0123  0.6246 -0.1745
  483EOH      H 1937   5.322   7.682   3.533  0.8894 -1.3212 -0.2039
  484EOH      O 1938   2.738   5.674   6.323  0.3445  0.4979  0.7348
  484EOH      C 1939   2.848   5.677   6.414  0.4067  0.1563  0.6696
  484EOH      C 1940   2.871   5.819   6.468  0.3901  0.4813 -0.1650
  484EOH      H 1941   2.687   5.598   6.343  0.5279  0.7028  1.9944
  485EOH      O 1942   2.086   3.669   7.253  0.2727  0.5188 -0.1042
  485EOH      C 1943   2.039   3.614   7.129  0.2387  0.2323  0.0367
  485EOH      C 1944   2.158   3.632   7.034  0.3178 -0.4721  0.0006
  485EOH      H 1945   2.110   3.760   7.239 -2.4160  1.2126 -0.5278
  486EOH      O 1946   6.639   0.159   2.506  0.1812 -0.0292  0.2118
  486EOH      C 1947   6.765   0.169   2.573  0.0942  0.3990  0.3129
  486EOH      C 1948   6.875   0.238   2.490  0.2926 -0.4753 -0.1552
  486EOH      H 1949   6.574   0.196   2.563  1.0124  0.4207  0.8839
  487EOH      O 1950   3.704   4.087   6.148 -0.4737  0.0244  0.4088
  487EOH      C 1951   3.564   4.065   6.135 -0.4193 -0.1428  0.0911
  487EOH      C 1952   3.499   4.180   6.055 -0.7683 -0.2208  0.2606
  487EOH      H 1953   3.739   4.000   6.137 -0.9072  0.1763 -2.5326
  488EOH      O 1954   2.225   4.167   7.840 -0.4867  0.4560 -0.1644
  488EOH      C 1955   2.212   4.210   7.976 -0.1643 -0.1403  0.0548
  488EOH      C 1956   2.352   4.261   8.014 -0.0987 -0.1737 -0.1397
  488EOH      H 1957   2.237   4.241   7.782  0.5968 -0.7045 -1.4230
  489EOH      O 1958   3.287   1.055   1.407 -0.1799 -0.2970  0.4309
  489EOH      C 1959   3.379   1.133   1.484 -0.0333  0.5002 -0.5332
  489EOH      C 1960   3.517   1.082   1.440  0.1587  0.3157  0.2702
  489EOH      H 1961   3.265   0.973   1.447  1.1275  0.8310  3.5655
  490EOH      O 1962   5.446   1.248   3.679  0.2904  0.0269  0.0509
  490EOH      C 1963   5.379   1.296   3.563  0.0062 -0.2364  0.1074
  490EOH      C 1964   5.246   1.367   3.598  0.5265  0.7892  0.0200
  490EOH      H 1965   5.531   1.230   3.642 -0.7968 -1.7757 -1.6629
  491EOH      O 1966   4.016   7.011   5.811 -0.2782  0.0316 -0.1156
  491EOH      C 1967   3.999   7.148   5.774 -0.3567 -0.0648 -0.4344
  491EOH      C 1968   4.116   7.177   5.677 -0.3375  0.5463 -0.2278
  491EOH      H 1969   3.940   6.983   5.861  0.7146 -1.2206  0.7425
  492EOH      O 1970   1.132   4.905   6.518  0.2724 -0.1544  0.1945
  492EOH      C 1971   1.077   5.036   6.534 -0.5117 -0.4684  0.0769
  492EOH      C 1972   1.095   5.103   6.671 -0.1156 -0.6325  0.1055
  492EOH      H 1973   1.113   4.851   6.592 -1.6765  0.6512  0.3126
  493EOH      O 1974   2.237   7.072   0.117 -0.4615  0.0814  0.1946
  493EOH      C 1975   2.350   7.098   0.201  0.2237 -0.5904 -0.5116
  493EOH      C 1976   2.458   7.126   0.095  0.2287 -0.1527 -0.3919
  493EOH      H 1977   2.181   7.018   0.171  1.4732 -0.9873  1.1956
  494EOH      O 1978   1.902   5.885   0.354 -0.2017  0.1129 -0.2148
  494EOH      C 1979   1.919   5.955   0.230 -0.6564 -0.2103 -0.4598
  494EOH      C 1980   1.955   5.841   0.132 -0.3155 -0.3068 -0.2226
  494EOH      H 1981   1.858   5.804   0.333 -0.6690 -0.2744  2.0712
  495EOH      O 1982   0.592   3.020   2.698 -0.8255 -0.0923 -0.3779
  495EOH      C 1983   0.557   3.120   2.794 -0.1257 -0.0294 -0.1820
  495EOH      C 1984   0.698   3.167   2.833 -0.3965  0.3774  0.3041
  495EOH      H 1985   0.508   3.003   2.659 -0.0633  0.3335 -2.2912
  496EOH      O 1986   2.954   0.638   5.855  0.0157 -0.1304  0.6872
  496EOH      C 1987   2.991   0.503   5.885  0.4801 -0.0844  0.3354
  496EOH      C 1988   3.145   0.492   5.889  0.4858 -0.3061 -0.5562
  496EOH      H 1989   2.867   0.656   5.887  0.3149  1.1568  0.7858
  497EOH      O 1990   0.778   3.732   4.810 -0.0229 -0.0368  0.3961
  497EOH      C 1991   0.879   3.631   4.819 -0.2790 -0.4065 -0.7756
  497EOH      C 1992   0.839   3.527   4.925 -0.1979 -0.2412 -0.5843
  497EOH      H 1993   0.754   3.745   4.719 -0.7763 -1.4430  0.3778
  498EOH      O 1994   7.103   6.499   2.717  0.3345 -0.4656 -0.0825
  498EOH      C 1995   6.965   6.485   2.682  0.3358  0.1908 -0.3750
  498EOH      C 1996   6.907   6.627   2.690  0.3010  0.1626 -0.1211
  498EOH      H 1997   7.147   6.433   2.666  0.6313 -1.2278  1.1362
  499EOH      O 1998   2.010   1.599   2.173 -0.0775  0.0759 -0.0613
  499EOH      C 1999   1.974   1.505   2.275 -0.1367  0.1153 -0.0449
  499EOH      C 2000   2.079   1.481   2.385 -0.1696 -0.1697 -0.0760
  499EOH      H 2001   2.082   1.573   2.119  1.4387  0.5144  1.6982
  500EOH      O 2002   3.578   7.392   6.412  0.1001  0.7761 -0.1413
  500EOH      C 2003   3.646   7.398   6.538 -0.0779  0.0120 -0.0046
  500EOH      C 2004   3.612   7.535   6.601  0.0397 -0.1119  0.3302
  500EOH      H 2005   3.628   7.444   6.351  2.0726  0.0267  0.7825
  501EOH      O 2006   3.169   6.229   4.107 -0.1707  0.1597 -0.2050
  501EOH      C 2007   3.203   6.343   4.186  0.1932  0.2508 -0.4921
  501EOH      C 2008   3.103   6.460   4.179 -0.6545 -0.4824 -0.7075
  501EOH      H 2009   3.155   6.260   4.019 -4.8724 -0.7868  0.0880
  502EOH      O 2010   2.593   2.372   6.843  0.7746  0.5023 -0.2936
  502EOH      C 2011   2.559   2.447   6.726 -0.0045  0.2048 -0.2600
  502EOH      C 2012   2.470   2.351   6.647  0.0864 -0.1669  0.0886
  502EOH      H 2013   2.546   2.406   6.918 -1.8569 -0.3332 -1.5445
  503EOH      O 2014   2.674   7.099   3.809 -0.2318  0.1131  0.3131
  503EOH      C 2015   2.668   7.205   3.905  0.0079  0.5180 -0.1206
  503EOH      C 2016   2.530   7.207   3.972  0.1450  0.1450  0.1743
  503EOH      H 2017   2.647   7.022   3.856  2.0020 -0.1271  1.2761
  504EOH      O 2018   7.366   7.859   4.777  0.0858 -0.1138 -0.0760
  504EOH      C 2019   7.269   7.870   4.881  0.1686  0.0924 -0.0224
  504EOH      C 2020   7.155   7.967   4.845  0.4243  0.5070  0.2718
  504EOH      H 2021   7.450   7.827   4.808  0.6924 -0.0176 -1.5358
  505EOH      O 2022   3.014   4.816   7.383 -0.3496 -0.0570 -0.1938
  505EOH      C 2023   2.941   4.737   7.290  0.6113 -0.5775 -0.5149
  505EOH      C 2024   2.886   4.630   7.386  0.1135  0.1470  0.0125
  505EOH      H 2025   2.951   4.867   7.432 -0.8868  0.7120 -1.6582
  506EOH      O 2026   3.845   3.882   6.122 -0.2929  0.0017 -0.6369
  506EOH      C 2027   3.893   3.813   6.006  0.4099 -0.5575 -0.0239
  506EOH      C 2028   3.808   3.826   5.878 -0.4641 -0.6350  0.5442
  506EOH      H 2029   3.868   3.834   6.200  0.8070  0.2360 -0.8033
  507EOH      O 2030   4.439   4.307   7.340 -0.3031 -0.4164 -0.3158
  507EOH      C 2031   4.580   4.292   7.323 -0.1323  0.7610  0.0244
  507EOH      C 2032   4.616   4.332   7.179  0.4036  0.0355 -0.0462
  507EOH      H 2033   4.421   4.315   7.433 -1.9424 -0.7850 -0.5919
  508EOH      O 2034   4.205   6.057   0.381  0.1113  0.0471 -0.1486
  508EOH      C 2035   4.296   6.126   0.295 -0.2419  0.1442 -0.4453
  508EOH      C 2036   4.413   6.193   0.368 -0.2321 -0.2886 -0.0555
  508EOH      H 2037   4.117   6.089   0.373  0.1906  0.1136 -0.7576
  509EOH      O 2038   0.806   0.924   5.447  0.0233  0.8886 -0.2570
  509EOH      C 2039   0.663   0.920   5.444  0.0552 -0.7068 -0.2853
  509EOH      C 2040   0.616   1.067   5.442 -0.4002 -0.8469  0.0022
  509EOH      H 2041   0.847   0.840   5.432 -0.2953  1.0580 -2.1402
  510EOH      O 2042   2.137   2.273   6.242  0.6202  0.5593 -0.0787
  510EOH      C 2043   2.270   2.228   6.215  0.4580  0.0361 -0.0279
  510EOH      C 2044   2.327   2.169   6.346  0.0564  0.3525  0.2930
  510EOH      H 2045   2.135   2.352   6.293 -0.9396  0.1358  0.5380
  511EOH      O 2046   4.964   7.077   3.319  0.0927  0.0160 -0.1888
  511EOH      C 2047   4.826   7.083   3.283  0.1076 -0.0815 -0.2604
  511EOH      C 2048   4.738   7.115   3.406  0.4665 -0.1026 -0.0002
  511EOH      H 2049   5.018   7.109   3.249  0.6292 -0.2219  0.1084
  512EOH      O 2050   1.148   7.238   1.499 -0.1120  0.1654 -0.0691
  512EOH      C 2051   1.180   7.264   1.362 -0.3985 -0.0757 -0.1828
  512EOH      C 2052   1.055   7.254   1.273 -0.5553 -0.0099  0.0306
  512EOH      H 2053   1.160   7.145   1.514  1.5406  0.3099 -0.4336
  513EOH      O 2054   2.862   7.862   5.511  0.0364 -0.4909  0.2571
  513EOH      C 2055   2.755   7.895   5.421 -0.0453 -0.6742  0.2881
  513EOH      C 2056   2.764   7.794   5.305 -0.5557 -0.3433 -0.0351
  513EOH      H 2057   2.828   7.872   5.598 -2.1650  3.2374 -0.9047
  514EOH      O 2058   2.153   5.566   2.704 -0.2650  0.3241 -0.9943
  514EOH      C 2059   2.033   5.633   2.742  0.0199  0.3800 -0.1816
  514EOH      C 2060   2.053   5.704   2.877  0.2349 -0.2735  0.1339
  514EOH      H 2061   2.126   5.478   2.684 -1.4369  0.2716  0.6844
  515EOH      O 2062   2.560   4.878   3.934 -0.0954  0.6638  0.0327
  515EOH      C 2063   2.513   4.894   4.068 -0.6118  0.5591 -0.1363
  515EOH      C 2064   2.616   4.852   4.175 -0.6191  0.2340 -0.2576
  515EOH      H 2065   2.572   4.788   3.909 -1.6277  1.0126 -2.0373
  516EOH      O 2066   2.485   1.538   5.398 -0.0663 -0.1081 -0.2924
  516EOH      C 2067   2.529   1.639   5.307 -0.0712 -0.0928 -0.2776
  516EOH      C 2068   2.422   1.750   5.306 -0.2707 -0.2817  0.2347
  516EOH      H 2069   2.419   1.489   5.353 -2.5190  3.0415 -0.2772
  517EOH      O 2070   2.764   0.089   1.302 -0.3929 -0.4291 -0.2697
  517EOH      C 2071   2.816  -0.043   1.284 -0.2503 -0.4617  0.3685
  517EOH      C 2072   2.847  -0.117   1.415  0.2766 -0.3343  0.3191
  517EOH      H 2073   2.716   0.101   1.383  0.2213  1.0028 -0.1131
  518EOH      O 2074   4.703   6.236   5.134 -0.0769  0.2712 -0.1481
  518EOH      C 2075   4.823   6.213   5.209 -0.1684  0.9008  0.1977
  518EOH      C 2076   4.928   6.318   5.168  0.1186  0.3694 -0.4400
  518EOH      H 2077   4.671   6.159   5.090  0.0062  0.6300 -0.8378
  519EOH      O 2078   1.246   6.325   4.467  0.4327 -0.1631 -0.2086
  519EOH      C 2079   1.151   6.371   4.370  0.1934 -0.4283 -0.1029
  519EOH      C 2080   1.151   6.246   4.281  0.1058 -0.0263 -0.6667
  519EOH      H 2081   1.332   6.317   4.429 -0.8155 -0.3146 -3.1488
  520EOH      O 2082   0.593   2.118   4.275  0.0470  0.3992 -0.3634
  520EOH      C 2083   0.728   2.105   4.321  0.0886  0.1880 -0.5501
  520EOH      C 2084   0.757   1.953   4.323 -0.6641  0.0533  0.0160
  520EOH      H 2085   0.541   2.109   4.353 -1.4559  3.4983 -0.9134
  521EOH      O 2086   1.430   1.892   6.168 -0.4964 -0.3205  0.2569
  521EOH      C 2087   1.445   2.031   6.200 -0.4138 -0.2691 -0.0128
  521EOH      C 2088   1.378   2.100   6.080 -0.0456 -0.2603 -0.2175
  521EOH      H 2089   1.342   1.864   6.189 -0.6256 -1.1657 -1.3361
  522EOH      O 2090   2.775   4.733   1.456  0.7172 -0.3490  0.2811
  522EOH      C 2091   2.794   4.639   1.349 -0.1305 -0.4916  0.2518
  522EOH      C 2092   2.791   4.500   1.416 -0.1298 -0.4011  0.4397
  522EOH      H 2093   2.851   4.740   1.511  0.0313  1.1211  1.0506
  523EOH      O 2094   0.256   0.839   3.044  0.4301 -0.1675 -0.2159
  523EOH      C 2095   0.365   0.752   3.015  0.3754 -0.3066 -0.0100
  523EOH      C 2096   0.404   0.766   2.866  0.1577 -0.3187 -0.0682
  523EOH      H 2097   0.249   0.846   3.138 -2.8569  0.8450 -0.4521
  524EOH      O 2098   3.725   6.286   5.161  0.5263  0.0560  0.0840
  524EOH      C 2099   3.744   6.159   5.098  0.2252 -0.0048  0.1138
  524EOH      C 2100   3.622   6.068   5.119  0.0708  0.0726 -0.4286
  524EOH      H 2101   3.804   6.336   5.150  0.7160 -0.4417 -0.9094
  525EOH      O 2102   3.587   5.657   1.422 -0.2282 -0.0057  0.6164
  525EOH      C 2103   3.640   5.530   1.386 -0.0673  0.2820 -0.1692
  525EOH      C 2104   3.775   5.498   1.454 -0.3618  0.0650  0.3194
  525EOH      H 2105   3.544   5.650   1.506 -0.7855 -0.6391  0.2816
  526EOH      O 2106   0.637   6.184   0.243  0.3826 -0.3865 -0.1129
  526EOH      C 2107   0.584   6.114   0.130  0.0334 -0.4641  0.1010
  526EOH      C 2108   0.433   6.134   0.105  0.1248 -0.2062 -0.2414
  526EOH      H 2109   0.725   6.151   0.258  0.5404 -0.2521 -0.7314
  527EOH      O 2110   2.645   6.928   7.098  0.2774 -0.4019 -0.0124
  527EOH      C 2111   2.593   6.872   7.219 -0.0377  0.0858  0.0781
  527EOH      C 2112   2.650   6.730   7.234  0.2852  0.2115  0.0434
  527EOH      H 2113   2.739   6.938   7.097  0.1906  0.5999  1.0328
  528EOH      O 2114   1.081   7.562   4.480 -0.3969  0.0540  0.0311
  528EOH      C 2115   1.208   7.524   4.426 -0.2154  0.2399  0.3256
  528EOH      C 2116   1.220   7.377   4.382 -0.0432  0.1052  0.8218
  528EOH      H 2117   1.071   7.532   4.569 -0.3072 -0.5251 -0.1489
  529EOH      O 2118   0.170   1.633   0.190  0.3821 -0.0402  0.1217
  529EOH      C 2119   0.274   1.692   0.111 -0.1028  0.3337 -0.2352
  529EOH      C 2120   0.407   1.636   0.164 -0.5113 -0.4802 -0.0659
  529EOH      H 2121   0.129   1.711   0.224  1.1237  0.5625 -0.3266
  530EOH      O 2122   3.369   5.665   5.399 -0.1024 -0.3357 -0.0270
  530EOH      C 2123   3.305   5.793   5.396 -0.0740 -0.3024  0.6454
  530EOH      C 2124   3.163   5.787   5.455 -0.3564 -0.3933 -0.0354
  530EOH      H 2125   3.448   5.659   5.347 -0.1497 -0.6423 -0.0633
  531EOH      O 2126   3.898   3.201   5.326  0.4034 -0.2529  0.6544
  531EOH      C 2127   3.774   3.272   5.330  0.6808  0.2769 -0.1215
  531EOH      C 2128   3.739   3.325   5.189 -0.2694  0.0260  0.0158
  531EOH      H 2129   3.921   3.187   5.417 -1.6766 -0.5048  1.1834
  532EOH      O 2130   0.645   1.228   0.221  0.1283  0.2089 -0.4564
  532EOH      C 2131   0.510   1.265   0.247  0.0827  0.2113 -0.6950
  532EOH      C 2132   0.436   1.131   0.257  0.1842  0.2283  0.3041
  532EOH      H 2133   0.687   1.294   0.168  1.9665 -2.4682 -2.4628
  533EOH      O 2134   2.161   2.352   2.969  0.0253 -0.3129  0.5378
  533EOH      C 2135   2.271   2.298   2.896  0.1272  0.3934  0.1720
  533EOH      C 2136   2.266   2.147   2.868  0.0081  0.4950 -0.3566
  533EOH      H 2137   2.168   2.317   3.057  0.1165  2.3659  1.6294
  534EOH      O 2138   1.544   4.919   7.060  0.2480  0.1457  0.0957
  534EOH      C 2139   1.504   4.875   7.190  0.1041  0.1494  0.0525
  534EOH      C 2140   1.422   4.746   7.206  0.0801  0.0736 -0.6410
  534EOH      H 2141   1.525   5.011   7.047 -1.8994 -0.5303 -1.7644
  535EOH      O 2142   2.964   5.693   0.818  0.0956  0.4425  0.1408
  535EOH      C 2143   3.034   5.753   0.709  0.1858  0.2925  0.1168
  535EOH      C 2144   3.051   5.672   0.579 -0.8219 -0.2871  0.3430
  535EOH      H 2145   2.976   5.743   0.897 -2.2457 -0.5757  1.1734
  536EOH      O 2146   2.342   4.636   0.509  0.1409  0.6778  0.0665
  536EOH      C 2147   2.362   4.511   0.443 -0.2189  0.7001 -0.0822
  536EOH      C 2148   2.482   4.516   0.347 -0.1576  0.7568 -0.0031
  536EOH      H 2149   2.297   4.621   0.590 -0.6886  0.3843 -0.4446
  537EOH      O 2150   1.332   1.478   5.499  0.4117  0.0419  0.1640
  537EOH      C 2151   1.194   1.471   5.536  0.3592 -0.3760 -0.1042
  537EOH      C 2152   1.141   1.613   5.567  0.4521 -0.3951  0.1397
  537EOH      H 2153   1.367   1.390   5.494  3.0970  1.1408 -1.6696
  538EOH      O 2154   0.699   7.416   7.020 -0.3199  0.1270  0.1234
  538EOH      C 2155   0.837   7.397   7.053 -0.2152 -0.0275 -0.3998
  538EOH      C 2156   0.856   7.298   7.170  0.3214  0.1837 -0.3072
  538EOH      H 2157   0.662   7.452   7.100  0.6604  1.6140 -0.0543
  539EOH      O 2158   7.691   3.050   3.640 -0.1855  0.1508 -0.2288
  539EOH      C 2159   7.575   3.011   3.715  0.3252  0.3710  0.6751
  539EOH      C 2160   7.630   2.935   3.837  0.2977  0.2996  0.6426
  539EOH      H 2161   7.714   2.971   3.594  3.3822 -0.7317  2.8161
  540EOH      O 2162   1.944   2.342   2.132  0.1052 -0.5495 -0.0286
  540EOH      C 2163   1.848   2.239   2.156 -0.3966 -0.1489 -0.3112
  540EOH      C 2164   1.880   2.133   2.049 -0.3371 -0.1870 -0.2554
  540EOH      H 2165   1.993   2.336   2.212  0.4013 -0.1566 -0.1831
  541EOH      O 2166   4.010   7.642   4.782  0.5233 -0.1107  0.1975
  541EOH      C 2167   3.967   7.630   4.646  0.1557 -0.3062  0.3298
  541EOH      C 2168   3.830   7.562   4.665 -0.0407 -0.2062 -0.7427
  541EOH      H 2169   3.942   7.678   4.838  1.8252  0.6676  1.3146
  542EOH      O 2170   2.185   6.712   5.388 -0.1584  0.7264  0.0950
  542EOH      C 2171   2.310   6.781   5.383  0.1455  0.1983  0.3221
  542EOH      C 2172   2.399   6.744   5.262 -0.1779 -0.3054  0.2353
  542EOH      H 2173   2.175   6.673   5.473 -1.9314 -1.5377 -1.0973
  543EOH      O 2174   2.596   2.719   1.438 -0.1714  0.2389 -0.4295
  543EOH      C 2175   2.464   2.752   1.394 -0.2764 -0.2678 -0.5070
  543EOH      C 2176   2.483   2.838   1.268 -0.4579  0.7110  0.1209
  543EOH      H 2177   2.621   2.642   1.389  0.3936 -2.8592  4.3973
  544EOH      O 2178   0.549   0.045   1.706 -0.2591  0.2887 -0.1131
  544EOH      C 2179   0.547   0.139   1.813  0.5497 -0.0840  0.2355
  544EOH      C 2180   0.689   0.142   1.873  0.5140  0.6923  0.2872
  544EOH      H 2181   0.480   0.068   1.645 -1.5343 -1.6633  0.5427
  545EOH      O 2182   2.867   5.383   5.339  0.2250  0.0946 -0.0074
  545EOH      C 2183   2.816   5.479   5.245  0.2924  0.5466  0.4154
  545EOH      C 2184   2.895   5.474   5.113  0.0861  0.1963  0.3025
  545EOH      H 2185   2.795   5.339   5.380  0.9956  1.5131  3.0089
  546EOH      O 2186   1.879   1.056   4.263 -0.3164  0.0380  0.1093
  546EOH      C 2187   1.807   1.168   4.211 -0.1550 -0.0865 -0.3910
  546EOH      C 2188   1.830   1.171   4.059 -0.3117  0.1575 -0.4109
  546EOH      H 2189   1.943   1.091   4.324 -3.3293  0.9839  2.8644
  547EOH      O 2190   3.072   4.604   0.371 -0.1885 -0.1439 -0.1071
  547EOH      C 2191   2.989   4.632   0.258  0.4042  0.0346 -0.5033
  547EOH      C 2192   2.846   4.671   0.299  0.6633 -0.0332  0.4783
  547EOH      H 2193   3.152   4.574   0.330 -1.0091 -1.7393 -0.6153
  548EOH      O 2194   0.316   2.822   3.855 -0.5623  0.0426 -0.4340
  548EOH      C 2195   0.199   2.764   3.914 -0.1859 -0.1919  0.0864
  548EOH      C 2196   0.204   2.611   3.931  0.0112 -0.1532  0.3857
  548EOH      H 2197   0.304   2.915   3.845 -0.2169 -0.0024 -1.3046
  549EOH      O 2198   7.886   2.003   4.581 -0.2065 -0.1059  0.5628
  549EOH      C 2199   7.757   2.019   4.638 -0.3423 -0.4179  0.3452
  549EOH      C 2200   7.664   2.101   4.546 -0.3663 -0.6386  0.1737
  549EOH      H 2201   7.933   1.935   4.627  2.1861  1.4642  0.5585
  550EOH      O 2202   1.207   7.277   3.102  0.2280 -0.6190 -0.0955
  550EOH      C 2203   1.148   7.300   3.230  0.1731  0.5712 -0.3270
  550EOH      C 2204   0.998   7.272   3.217  0.4056 -0.5039 -0.8086
  550EOH      H 2205   1.209   7.358   3.054  0.2635  0.4305  1.6703
  551EOH      O 2206   1.689   6.992   6.142  0.3519 -0.4501 -0.1913
  551EOH      C 2207   1.657   6.945   6.273  0.3567  0.3905  0.1092
  551EOH      C 2208   1.775   6.958   6.372  0.3834 -0.4322  0.1877
  551EOH      H 2209   1.632   6.948   6.080 -0.1608 -0.4368  0.2690
  552EOH      O 2210   7.072   1.458   3.440 -0.2363  0.1874  0.0748
  552EOH      C 2211   6.954   1.439   3.362 -0.0966 -0.4442  0.0194
  552EOH      C 2212   6.959   1.534   3.241 -0.2156 -0.2979  0.1293
  552EOH      H 2213   7.141   1.405   3.404 -1.1153 -0.2898 -0.9245
  553EOH      O 2214   0.477   1.247   2.991 -0.1431 -0.2149  0.0324
  553EOH      C 2215   0.473   1.349   3.091  0.7500 -0.3690  0.2325
  553EOH      C 2216   0.552   1.290   3.209  0.1205 -0.3803  0.6545
  553EOH      H 2217   0.408   1.184   3.003 -2.3262  2.1503  0.4104
  554EOH      O 2218   2.355   6.284   2.179  0.3687 -0.4091 -0.3587
  554EOH      C 2219   2.400   6.332   2.052 -0.2104  0.2851 -0.3007
  554EOH      C 2220   2.533   6.406   2.076 -0.0311 -0.0992 -0.1086
  554EOH      H 2221   2.265   6.308   2.192  0.5005  0.2041 -0.5817
  555EOH      O 2222   3.847   6.162   2.035  0.2259  0.5396 -0.2244
  555EOH      C 2223   3.799   6.042   1.974  0.6393  0.1328  0.2602
  555EOH      C 2224   3.921   5.971   1.911 -0.0952 -0.6951 -0.2427
  555EOH      H 2225   3.810   6.234   1.985 -0.3806  0.0911 -0.4341
  556EOH      O 2226   1.297   7.659   1.241 -0.1074  0.3375 -0.1082
  556EOH      C 2227   1.268   7.732   1.361  0.1829  0.3206 -0.0269
  556EOH      C 2228   1.263   7.621   1.468  0.1776  0.1886 -0.1642
  556EOH      H 2229   1.258   7.689   1.161  2.1506 -0.6103 -1.6165
  557EOH      O 2230   1.069   0.710   4.088 -0.4252  0.0787 -0.0619
  557EOH      C 2231   0.985   0.825   4.082 -0.1170  0.3071 -0.0292
  557EOH      C 2232   0.858   0.830   4.169  0.0502  0.2855  0.2161
  557EOH      H 2233   1.068   0.666   4.004 -0.2743  0.0441 -0.0468
  558EOH      O 2234   2.706   2.471   5.733 -0.0844 -0.1955 -0.4449
  558EOH      C 2235   2.681   2.351   5.806  1.1498  0.0290  0.3742
  558EOH      C 2236   2.614   2.385   5.941  0.5568  0.0013  0.0908
  558EOH      H 2237   2.628   2.505   5.693 -0.1478 -2.0530 -1.9860
  559EOH      O 2238   3.407   5.742   3.200  0.1460 -0.2040 -0.0983
  559EOH      C 2239   3.292   5.812   3.151 -0.0926 -0.7684 -0.3540
  559EOH      C 2240   3.172   5.796   3.247  0.4000 -0.9190  0.2421
  559EOH      H 2241   3.474   5.806   3.214 -0.5902  0.7675 -0.9737
  560EOH      O 2242   0.766   5.664   0.773  0.5701  0.1598 -0.3849
  560EOH      C 2243   0.833   5.560   0.702 -0.2658 -0.4807 -0.2443
  560EOH      C 2244   0.980   5.586   0.741 -0.4526  0.4148 -0.1438
  560EOH      H 2245   0.750   5.738   0.717  1.4835 -0.0845 -0.9722
  561EOH      O 2246   3.191   6.132   0.136 -0.0138  1.0118 -0.2758
  561EOH      C 2247   3.100   6.144   0.026  0.1694  1.0360 -0.4251
  561EOH      C 2248   3.179   6.096  -0.098 -0.0302 -0.2635 -0.0547
  561EOH      H 2249   3.211   6.224   0.141 -0.8658  1.1465  0.9528
  562EOH      O 2250   1.837   4.653   6.898 -0.6321  0.2099  0.0912
  562EOH      C 2251   1.776   4.527   6.923 -0.4400  0.0097 -0.4631
  562EOH      C 2252   1.883   4.420   6.896 -0.0429  0.2758  0.0660
  562EOH      H 2253   1.771   4.708   6.859 -0.5342 -1.0434 -1.8976
  563EOH      O 2254   1.910   4.137   3.828 -0.3793 -0.2998  0.1105
  563EOH      C 2255   2.018   4.051   3.865 -0.0275  0.0555 -0.0912
  563EOH      C 2256   2.146   4.042   3.780  0.3297  0.6628  0.3808
  563EOH      H 2257   1.833   4.112   3.877  0.0688 -1.4226  0.2736
  564EOH      O 2258   4.996   5.677   4.615  0.0306 -0.0974 -0.6096
  564EOH      C 2259   5.021   5.634   4.749 -0.5833  0.3722 -0.3374
  564EOH      C 2260   4.957   5.741   4.840  0.2839  0.0695  0.6396
  564EOH      H 2261   5.069   5.733   4.593 -0.3542  1.2851  1.4134
  565EOH      O 2262   4.496   1.681   4.256 -0.5948  0.0054 -0.0963
  565EOH      C 2263   4.618   1.622   4.210 -0.3611  0.0938  0.4171
  565EOH      C 2264   4.604   1.470   4.232 -0.1109  0.0434  0.2309
  565EOH      H 2265   4.509   1.717   4.342 -0.0126 -1.6505  0.5159
  566EOH      O 2266   7.175   7.269   3.728  0.2026 -0.1198 -0.0501
  566EOH      C 2267   7.177   7.328   3.598  0.4282 -0.1182 -0.0453
  566EOH      C 2268   7.202   7.211   3.502  0.3195 -0.0607 -0.1441
  566EOH      H 2269   7.120   7.325   3.781 -0.0621 -2.3819  2.1810
  567EOH      O 2270   6.243   0.384   2.517  0.0065 -0.0573  0.0837
  567EOH      C 2271   6.155   0.285   2.462  0.4322 -0.2539 -0.2520
  567EOH      C 2272   6.064   0.242   2.579 -0.0868  0.1080 -0.5187
  567EOH      H 2273   6.234   0.464   2.469 -0.1820 -1.0437 -1.5849
  568EOH      O 2274   3.838   3.437   7.235  0.1496  0.1890 -0.3143
  568EOH      C 2275   3.760   3.552   7.201 -0.2376  0.0799  0.2014
  568EOH      C 2276   3.632   3.556   7.288 -0.4754 -0.3292 -0.1306
  568EOH      H 2277   3.858   3.459   7.325 -1.9454  2.6354 -0.3737
  569EOH      O 2278   3.507   6.026   3.951 -0.1496 -0.1939  0.3594
  569EOH      C 2279   3.431   6.020   3.830 -0.0443  0.1167  0.2769
  569EOH      C 2280   3.535   6.005   3.717 -0.7252  0.2520 -0.3742
  569EOH      H 2281   3.452   6.026   4.027  1.4717 -1.4211  1.5658
  570EOH      O 2282   5.582   7.013   4.150  0.2388  0.0878 -0.5856
  570EOH      C 2283   5.458   7.083   4.165  0.1054 -0.2902  0.1340
  570EOH      C 2284   5.370   7.030   4.279 -0.0885 -0.7941 -0.2514
  570EOH      H 2285   5.609   7.036   4.063  0.9505  1.4869 -0.0108
  571EOH      O 2286   1.510   3.119   5.157  0.2332 -0.8119 -0.0468
  571EOH      C 2287   1.646   3.154   5.131  0.0426  0.1351  0.2340
  571EOH      C 2288   1.722   3.053   5.218 -0.2122  0.3005  0.6508
  571EOH      H 2289   1.505   3.051   5.222 -1.0535 -1.1122 -0.4428
  572EOH      O 2290   0.452   2.922   0.536  0.5205  0.2943  0.1077
  572EOH      C 2291   0.429   3.041   0.460 -0.1242  0.1462  0.0655
  572EOH      C 2292   0.323   3.136   0.518 -0.6042 -0.2757 -0.1150
  572EOH      H 2293   0.538   2.905   0.570  0.2036 -1.9209 -0.1016
  573EOH      O 2294   2.557   1.867   3.401 -0.1426 -0.1471 -0.0211
  573EOH      C 2295   2.453   1.952   3.351 -0.0982 -0.3007 -0.3721
  573EOH      C 2296   2.327   1.863   3.361 -0.1810 -0.1027  0.3228
  573EOH      H 2297   2.559   1.780   3.365  1.3750  0.4141 -1.3730
  574EOH      O 2298   1.512   6.922   5.986 -0.1160  0.0789  0.2305
  574EOH      C 2299   1.449   7.027   5.914 -0.4901 -0.2144  0.1268
  574EOH      C 2300   1.512   7.034   5.773 -0.1495  0.5854  0.3128
  574EOH      H 2301   1.473   6.845   5.947  0.4875 -0.3685  0.4895
  575EOH      O 2302   2.279   0.379   2.536 -0.2441 -0.7175  0.1192
  575EOH      C 2303   2.207   0.490   2.590  0.5776  0.1048 -0.4722
  575EOH      C 2304   2.093   0.551   2.506  0.6407  0.3233 -0.3996
  575EOH      H 2305   2.304   0.399   2.447  2.6328  1.5396  1.3703
  576EOH      O 2306   2.791   0.297   1.185 -0.2634  0.0851  0.1203
  576EOH      C 2307   2.692   0.385   1.238  0.0078  0.3320  0.2184
  576EOH      C 2308   2.758   0.485   1.335  0.3823 -0.4189  0.7391
  576EOH      H 2309   2.791   0.212   1.227 -1.1546 -0.4363 -0.9088
  577EOH      O 2310   1.310   0.927   7.865 -0.0164  0.6061  0.5822
  577EOH      C 2311   1.202   0.956   7.955 -0.2073 -0.1493  0.5952
  577EOH      C 2312   1.258   1.030   8.078  0.0035  0.3130  0.2219
  577EOH      H 2313   1.267   0.886   7.792  2.0878  1.4196 -1.1366
  578EOH      O 2314   2.330   7.590   1.318 -0.1828  0.3949 -0.0597
  578EOH      C 2315   2.339   7.514   1.197 -0.5379  0.0626  0.1230
  578EOH      C 2316   2.480   7.523   1.136 -0.5043  0.2383  0.2277
  578EOH      H 2317   2.311   7.677   1.285 -0.4341  0.6722  0.8004
  579EOH      O 2318   3.792   5.338   6.871 -0.0034 -0.3043  0.3282
  579EOH      C 2319   3.725   5.382   6.990 -0.0775 -0.7635  0.4577
  579EOH      C 2320   3.834   5.378   7.098  0.2515  0.6669  0.1855
  579EOH      H 2321   3.804   5.408   6.810  3.0955 -1.9964 -1.1343
  580EOH      O 2322   2.554   7.582   3.599 -0.0028  0.2456  0.3380
  580EOH      C 2323   2.647   7.527   3.692 -0.1779 -0.3560  0.1602
  580EOH      C 2324   2.777   7.494   3.616 -0.4173 -0.1701 -0.3312
  580EOH      H 2325   2.588   7.661   3.559  0.2354 -0.6516 -1.2583
  581EOH      O 2326   2.181   7.317   2.296 -0.2880 -0.2758 -0.0846
  581EOH      C 2327   2.194   7.311   2.439  0.0786  0.1969 -0.0968
  581EOH      C 2328   2.284   7.187   2.450 -0.4575 -0.1675  0.1818
  581EOH      H 2329   2.116   7.255   2.266 -0.6576  0.0266  0.0930
  582EOH      O 2330   0.348   0.737   0.500 -0.6428  0.0462 -0.3898
  582EOH      C 2331   0.467   0.815   0.482 -0.3069 -0.3170  0.2330
  582EOH      C 2332   0.496   0.911   0.598 -0.1262 -0.2819  0.1588
  582EOH      H 2333   0.349   0.657   0.449  1.8980 -0.2366  0.0156
  583EOH      O 2334   3.950   5.060   0.038  0.2412 -0.6468 -0.3662
  583EOH      C 2335   3.982   4.923   0.061  0.4984 -0.4951  0.1792
  583EOH      C 2336   4.121   4.885   0.006  0.5589 -0.0625  0.0341
  583EOH      H 2337   3.870   5.064  -0.014  0.2114 -1.6682 -0.4068
  584EOH      O 2338   3.307   5.334   6.017 -0.1219  0.3112 -0.3345
  584EOH      C 2339   3.200   5.429   6.006 -0.3732  0.0395 -0.2580
  584EOH      C 2340   3.259   5.569   5.984 -0.2341  0.0513  0.1684
  584EOH      H 2341   3.280   5.248   5.987  1.1927  0.2752 -1.4631
  585EOH      O 2342   3.135   0.947   5.458 -0.0945  0.2269  0.4023
  585EOH      C 2343   3.203   1.016   5.353 -0.3702 -0.0213  0.0596
  585EOH      C 2344   3.124   1.146   5.331 -0.1514  0.1007 -0.0115
  585EOH      H 2345   3.188   0.944   5.537  0.7137  1.2800 -0.0816
  586EOH      O 2346   3.444   5.877   7.443  0.2868 -0.1198  0.1362
  586EOH      C 2347   3.553   5.954   7.494  0.4090 -0.0989 -0.1560
  586EOH      C 2348   3.515   6.103   7.494  0.3135 -0.1223 -0.2267
  586EOH      H 2349   3.435   5.799   7.496  2.0294 -0.0369  0.6043
  587EOH      O 2350   3.939   5.526   6.268 -0.2991  0.2948 -0.5452
  587EOH      C 2351   3.994   5.481   6.144  0.1346  0.2591 -0.3396
  587EOH      C 2352   4.124   5.400   6.163 -0.1570 -0.2179 -0.3853
  587EOH      H 2353   3.854   5.485   6.265  0.4135 -1.2188 -0.9347
  588EOH      O 2354   4.492   2.771   6.293 -0.4089 -0.0559 -0.4238
  588EOH      C 2355   4.546   2.768   6.426  0.2727 -0.1429 -0.6996
  588EOH      C 2356   4.593   2.912   6.452 -0.2094  0.0439 -0.8568
  588EOH      H 2357   4.504   2.689   6.248 -1.4394  0.1579 -1.1005
  589EOH      O 2358   2.224   2.699   6.243  0.0824  0.2717 -0.0775
  589EOH      C 2359   2.365   2.710   6.226  0.1020  0.2364  0.0668
  589EOH      C 2360   2.407   2.696   6.079 -0.2005 -0.1158  0.0131
  589EOH      H 2361   2.180   2.768   6.195  0.5650  2.1497  2.1116
  590EOH      O 2362   3.517   5.604   0.461 -0.7006 -0.2906  0.3139
  590EOH      C 2363   3.475   5.477   0.510 -0.0496 -0.3472  0.7353
  590EOH      C 2364   3.485   5.487   0.664 -0.0941  0.0720  0.7112
  590EOH      H 2365   3.610   5.617   0.477 -1.1605  1.5131  1.8033
  591EOH      O 2366   1.883   2.718   7.636  0.0725  0.1118 -0.0369
  591EOH      C 2367   1.977   2.687   7.740  0.0736  0.9919  0.2290
  591EOH      C 2368   1.897   2.665   7.869 -0.1183  0.6401  0.0513
  591EOH      H 2369   1.927   2.741   7.556 -0.6396 -2.5811 -1.2431
  592EOH      O 2370   2.762   6.596   0.453  0.0850  0.4149  0.1771
  592EOH      C 2371   2.714   6.718   0.395 -0.1449  0.2674  0.0569
  592EOH      C 2372   2.561   6.717   0.386 -0.1660 -0.5482  0.5262
  592EOH      H 2373   2.708   6.521   0.433  1.8114 -0.9805  0.6266
  593EOH      O 2374   0.363   3.116   1.352 -0.1713 -0.0827 -0.0737
  593EOH      C 2375   0.284   3.006   1.306  0.4119 -0.2660 -0.6487
  593EOH      C 2376   0.383   2.893   1.274  0.0404 -0.6868 -0.3310
  593EOH      H 2377   0.305   3.187   1.375  0.3974 -0.4062  2.5668
  594EOH      O 2378   1.048   4.146   2.354  0.4263 -0.4523  0.2165
  594EOH      C 2379   0.988   4.022   2.316  0.4053 -0.4578  0.2690
  594EOH      C 2380   0.989   3.967   2.173  0.1546  0.1404  0.0347
  594EOH      H 2381   1.141   4.151   2.338  0.4876  1.4039  1.0630
  595EOH      O 2382   1.176   5.115   0.980  0.4834  0.0670 -0.1356
  595EOH      C 2383   1.196   5.232   0.901  0.3080 -0.0309 -0.3273
  595EOH      C 2384   1.245   5.356   0.979  0.3314  0.0076 -0.4038
  595EOH      H 2385   1.107   5.062   0.941 -1.5097  2.9227 -0.6640
  596EOH      O 2386   2.521   7.743   2.551  0.0462 -0.4726  0.1454
  596EOH      C 2387   2.425   7.684   2.462 -0.8209  0.0202  0.7431
  596EOH      C 2388   2.413   7.748   2.323 -0.2449 -0.4714  0.4615
  596EOH      H 2389   2.549   7.671   2.606 -1.8345 -2.4872 -1.4346
  597EOH      O 2390   1.592   6.718   2.222 -0.4232  0.0082 -0.3662
  597EOH      C 2391   1.686   6.766   2.126  0.1927  0.4742  0.4661
  597EOH      C 2392   1.822   6.738   2.193  0.2164 -0.1945  0.1521
  597EOH      H 2393   1.544   6.647   2.182  1.6022 -0.1864 -2.5668
  598EOH      O 2394   3.608   4.634   2.759  0.2350  0.2590  0.1062
  598EOH      C 2395   3.563   4.517   2.829  0.6576  0.0725  0.0641
  598EOH      C 2396   3.617   4.519   2.973  0.0952 -0.4908  0.2816
  598EOH      H 2397   3.686   4.614   2.710 -1.1125 -1.0270 -1.6106
  599EOH      O 2398   0.224   0.207   5.418 -0.2540  0.4796 -0.5757
  599EOH      C 2399   0.097   0.218   5.483  0.2507  0.0654  0.4931
  599EOH      C 2400   0.042   0.361   5.469  0.3862  0.0080 -0.6866
  599EOH      H 2401   0.276   0.133   5.446 -1.3924 -0.2311 -0.3167
  600EOH      O 2402   2.372   5.627   2.620 -0.6128 -0.1631 -0.1021
  600EOH      C 2403   2.432   5.746   2.671 -0.5514 -0.0196 -0.5052
  600EOH      C 2404   2.513   5.818   2.561  0.0280  0.0105 -0.0625
  600EOH      H 2405   2.293   5.610   2.668  0.6577 -0.5551  1.8991
  601EOH      O 2406   3.739   6.311   4.146  0.8287 -0.0128  0.3509
  601EOH      C 2407   3.748   6.290   4.287  0.1456 -0.4065  0.3374
  601EOH      C 2408   3.883   6.218   4.310  0.0757 -0.5423  0.3200
  601EOH      H 2409   3.755   6.236   4.091 -0.0902  2.1430 -2.9963
  602EOH      O 2410   6.589   5.956   3.913  0.1825 -0.4940 -0.3784
  602EOH      C 2411   6.487   5.857   3.899  0.1617 -0.5425  0.0976
  602EOH      C 2412   6.474   5.797   4.040 -0.3328 -0.3394  0.1406
  602EOH      H 2413   6.553   6.043   3.923  1.3596 -0.1887  1.6948
  603EOH      O 2414   1.705   1.892   0.327 -0.4832  0.4561  0.3412
  603EOH      C 2415   1.580   1.933   0.271 -0.6773 -0.0471  0.3963
  603EOH      C 2416   1.484   1.974   0.385 -0.1545  0.2202  0.7420
  603EOH      H 2417   1.687   1.823   0.390 -0.5606  0.7108  0.6014
  604EOH      O 2418   0.373   0.674   4.218 -0.1548  0.5111  0.3887
  604EOH      C 2419   0.306   0.596   4.119  0.4505 -0.0040  0.3872
  604EOH      C 2420   0.367   0.455   4.136 -0.0848 -0.2963 -0.0927
  604EOH      H 2421   0.309   0.737   4.250 -1.4130  0.1248 -1.2914
  605EOH      O 2422   4.710   2.023   3.986  0.4791  0.1719  0.3070
  605EOH      C 2423   4.586   2.041   4.057  0.0753  0.3286 -0.4382
  605EOH      C 2424   4.556   2.192   4.070 -0.9478  0.1191 -0.3614
  605EOH      H 2425   4.779   1.992   4.043  1.2587 -0.6198 -1.0344
  606EOH      O 2426   1.395   5.003   7.710 -0.0139 -0.8239 -0.2901
  606EOH      C 2427   1.423   4.940   7.836  0.2297 -0.0890  0.0241
  606EOH      C 2428   1.344   4.809   7.851  0.0518  0.0210  0.0485
  606EOH      H 2429   1.410   5.095   7.719  2.4009 -1.1657 -0.3821
  607EOH      O 2430   0.858   3.544   2.829  0.1234  0.0909 -0.3367
  607EOH      C 2431   0.738   3.563   2.754 -0.0043 -0.1296 -0.1894
  607EOH      C 2432   0.767   3.506   2.614 -0.0969 -0.3327 -0.1259
  607EOH      H 2433   0.885   3.629   2.860 -0.9726  0.6334 -0.8714
  608EOH      O 2434   2.810   0.729   6.268  0.0055  0.2643 -0.0658
  608EOH      C 2435   2.922   0.817   6.270  0.1278  0.1304 -0.6971
  608EOH      C 2436   3.047   0.728   6.254  0.1294 -0.0983  0.5121
  608EOH      H 2437   2.801   0.690   6.353  1.9070 -0.7034 -0.2668
  609EOH      O 2438   5.313   4.819   5.973 -0.2862  0.0225  0.0262
  609EOH      C 2439   5.336   4.728   5.865  0.1518  0.1799 -0.0136
  609EOH      C 2440   5.269   4.770   5.732  0.7191  0.1654 -0.3045
  609EOH      H 2441   5.376   4.794   6.038  1.2138  1.2469 -0.9126
  610EOH      O 2442   2.296   1.551   0.692 -0.4138  0.0558  0.0202
  610EOH      C 2443   2.243   1.442   0.768 -0.0445 -0.1113  0.0390
  610EOH      C 2444   2.192   1.481   0.908 -0.4087 -0.1305 -0.0860
  610EOH      H 2445   2.365   1.514   0.639 -0.5443 -0.3492  0.1268
  611EOH      O 2446   7.210   1.632   3.598 -0.2490  0.4533 -0.3928
  611EOH      C 2447   7.262   1.753   3.543 -0.3789  0.7145  0.0522
  611EOH      C 2448   7.320   1.738   3.401 -0.6604 -0.1766  0.0345
  611EOH      H 2449   7.157   1.584   3.537  0.1820 -0.2424 -0.2200
  612EOH      O 2450   0.387   7.009   2.638 -0.2128  0.2654  0.1514
  612EOH      C 2451   0.487   6.932   2.704  0.0277  0.5602  0.1280
  612EOH      C 2452   0.566   6.839   2.610 -0.0242  0.3385  0.3041
  612EOH      H 2453   0.304   6.965   2.621  0.2910  0.1297 -2.2299
  613EOH      O 2454   4.371   3.935   7.066 -0.3397 -0.6211 -0.3628
  613EOH      C 2455   4.504   3.889   7.086 -0.0136  0.2116 -0.5993
  613EOH      C 2456   4.606   3.967   7.000 -0.0766  0.3239 -0.5706
  613EOH      H 2457   4.351   4.003   7.130 -0.8169 -1.6876  0.6447
  614EOH      O 2458   3.216   5.072   7.076  0.2113  0.2816  0.0195
  614EOH      C 2459   3.196   5.008   6.950 -0.0088 -0.3598  0.3778
  614EOH      C 2460   3.256   5.086   6.831 -0.6962 -0.4674 -0.0452
  614EOH      H 2461   3.216   5.006   7.143  2.0967  1.7898  1.5883
  615EOH      O 2462   2.461   5.860   1.928  0.1307 -0.2079  0.0068
  615EOH      C 2463   2.432   5.982   1.997 -0.0391 -0.2575  0.0229
  615EOH      C 2464   2.534   5.980   2.112  0.0833 -0.5678 -0.0894
  615EOH      H 2465   2.525   5.872   1.859  0.3169  0.7275  0.3350
  616EOH      O 2466   6.123   1.290   2.655 -0.4448 -0.4003  0.4856
  616EOH      C 2467   6.011   1.253   2.737 -1.0403 -0.0070 -0.1407
  616EOH      C 2468   5.980   1.109   2.693 -0.6997 -0.0684 -0.1801
  616EOH      H 2469   6.147   1.376   2.687 -2.4871  0.5766 -0.4949
  617EOH      O 2470   0.938   2.216   3.913 -0.2414  0.2945  0.1781
  617EOH      C 2471   0.970   2.240   4.050 -0.6560 -0.1065  0.3464
  617EOH      C 2472   0.911   2.374   4.100 -0.1194  0.2568  0.0179
  617EOH      H 2473   1.010   2.158   3.892  0.9168  1.8302 -0.2132
  618EOH      O 2474   1.800   4.536   7.599 -0.4395 -0.3983 -0.1160
  618EOH      C 2475   1.823   4.668   7.550 -0.0597 -0.3260  0.2622
  618EOH      C 2476   1.893   4.755   7.656  0.5363  0.1213 -0.4832
  618EOH      H 2477   1.742   4.541   7.673  2.2800  0.7808  1.9901
  619EOH      O 2478   4.165   4.608   4.523  0.1338 -0.1488 -0.1125
  619EOH      C 2479   4.033   4.660   4.510  0.0656 -0.3392 -0.1842
  619EOH      C 2480   3.972   4.655   4.369 -0.7274 -0.2774  0.1545
  619EOH      H 2481   4.161   4.517   4.497 -1.4284 -0.0696 -0.1651
  620EOH      O 2482   3.331   5.955   6.811  0.0138 -0.1364  0.0925
  620EOH      C 2483   3.256   5.840   6.773  0.1871 -0.0589 -0.4784
  620EOH      C 2484   3.158   5.872   6.659 -0.3491 -0.0664 -0.0205
  620EOH      H 2485   3.367   5.942   6.897  1.0163 -0.3243 -0.3513
  621EOH      O 2486   7.838   2.954   7.516  0.4424 -0.4664  0.4191
  621EOH      C 2487   7.835   2.812   7.500  0.3315 -0.4010 -0.1307
  621EOH      C 2488   7.711   2.776   7.584  0.0715 -0.0936 -0.3773
  621EOH      H 2489   7.930   2.977   7.520 -0.4524  3.6990 -0.7755
  622EOH      O 2490   1.501   1.230   1.059  0.1157 -0.3034  0.4743
  622EOH      C 2491   1.502   1.316   1.174 -0.6831 -0.2819  0.4685
  622EOH      C 2492   1.473   1.246   1.308  0.0076 -0.6372  0.4338
  622EOH      H 2493   1.589   1.200   1.040  1.0638  1.6865  1.5461
  623EOH      O 2494   1.401   7.305   6.887 -0.0033 -0.0729 -0.2566
  623EOH      C 2495   1.333   7.199   6.820  0.0434 -0.1474 -0.1870
  623EOH      C 2496   1.187   7.248   6.824  0.2695  0.5198  0.0175
  623EOH      H 2497   1.478   7.329   6.838 -1.0724  3.1557 -0.4977
  624EOH      O 2498   4.222   5.501   4.449  0.0648 -0.0996 -0.2395
  624EOH      C 2499   4.148   5.410   4.531  0.5740 -0.0220  0.3066
  624EOH      C 2500   4.061   5.326   4.437  0.6063 -0.5255  0.7241
  624EOH      H 2501   4.289   5.531   4.508  0.4958 -1.0662 -0.2195
  625EOH      O 2502   2.420   2.437   0.579  0.2377  0.1081  0.1088
  625EOH      C 2503   2.498   2.447   0.698  0.3029 -0.1784  0.0902
  625EOH      C 2504   2.610   2.553   0.686 -0.1489  0.3165  0.2318
  625EOH      H 2505   2.435   2.351   0.542 -0.3498 -0.0107  0.1510
  626EOH      O 2506   4.100   5.660   2.824 -0.5098 -0.0253  0.5475
  626EOH      C 2507   4.184   5.708   2.929  0.0038  0.4229 -0.0567
  626EOH      C 2508   4.200   5.592   3.030  0.5840  0.1581 -0.4550
  626EOH      H 2509   4.111   5.713   2.746  1.0574 -1.1460 -0.0363
  627EOH      O 2510   3.916   6.260   2.261  0.2008  0.1676 -0.5158
  627EOH      C 2511   4.009   6.169   2.321 -0.0066  0.2562 -0.0613
  627EOH      C 2512   4.129   6.181   2.225 -0.0241  0.0399 -0.1117
  627EOH      H 2513   3.908   6.245   2.168  0.4225  2.3812 -0.9267
  628EOH      O 2514   2.344   1.817   0.569 -0.3136  0.0712 -0.1577
  628EOH      C 2515   2.357   1.817   0.427  0.3790 -0.5254 -0.0967
  628EOH      C 2516   2.229   1.866   0.356  0.4910 -0.3435 -0.1732
  628EOH      H 2517   2.314   1.738   0.611  1.5279  0.9109  2.8939
  629EOH      O 2518   0.151   7.813   1.504 -0.0742  0.0720 -0.0677
  629EOH      C 2519   0.009   7.796   1.509 -0.1001  0.1362 -0.5383
  629EOH      C 2520  -0.044   7.878   1.390 -0.4074  0.2665 -0.3111
  629EOH      H 2521   0.198   7.739   1.538  0.6409  1.3649  1.8641
  630EOH      O 2522   3.951   4.680   3.216  0.3122 -0.1843  0.2630
  630EOH      C 2523   3.978   4.644   3.352  0.2124 -0.0927  0.3074
  630EOH      C 2524   4.047   4.506   3.353 -0.0111 -0.2112 -0.3770
  630EOH      H 2525   3.927   4.772   3.219 -0.0013 -0.2616  0.0095
  631EOH      O 2526   1.671   4.317   6.134  0.5226  0.1808  0.0184
  631EOH      C 2527   1.681   4.453   6.091 -0.1670  0.1814 -0.1567
  631EOH      C 2528   1.828   4.499   6.084 -0.0295 -0.2625 -0.2298
  631EOH      H 2529   1.584   4.305   6.171  0.3361 -0.9546 -0.7537
  632EOH      O 2530   1.695   2.342   4.826 -0.3036 -0.0091 -0.1180
  632EOH      C 2531   1.734   2.261   4.938 -0.0730  0.3329  0.0530
  632EOH      C 2532   1.605   2.257   5.023 -0.0500 -1.1006  0.0220
  632EOH      H 2533   1.617   2.302   4.791 -0.2833 -0.6530  0.5527
  633EOH      O 2534   7.559   0.033   3.305 -0.0396  0.3550  0.3449
  633EOH      C 2535   7.458   0.130   3.336 -0.1133  0.3420  0.1499
  633EOH      C 2536   7.309   0.100   3.312 -0.2030  0.4853  0.5254
  633EOH      H 2537   7.560  -0.031   3.375 -0.5568 -0.2057 -0.1545
  634EOH      O 2538   3.200   0.232   5.074 -0.3617  0.1470  0.2107
  634EOH      C 2539   3.073   0.246   5.009 -0.2231  0.3527 -0.0154
  634EOH      C 2540   3.005   0.108   5.016  0.1799  0.1604  0.1596
  634EOH      H 2541   3.257   0.167   5.036 -0.1119  0.2803  0.3572
  635EOH      O 2542   3.481   3.327   6.581 -0.6824 -0.2636 -0.5582
  635EOH      C 2543   3.406   3.449   6.583 -0.1636  0.0456  0.0486
  635EOH      C 2544   3.327   3.470   6.453  0.3009  0.3788 -0.1801
  635EOH      H 2545   3.500   3.322   6.673 -1.9244  0.1378 -0.2693
  636EOH      O 2546   1.004   3.372   2.925 -0.2122 -0.1684 -0.1720
  636EOH      C 2547   0.946   3.332   3.049 -0.3088  0.1076 -0.1271
  636EOH      C 2548   1.030   3.211   3.094  0.2970  0.3960 -0.4807
  636EOH      H 2549   0.956   3.449   2.898 -1.5691 -1.2771 -0.9649
  637EOH      O 2550   2.528   6.292   2.381 -0.1585 -0.7572  0.0719
  637EOH      C 2551   2.633   6.198   2.404 -0.1166 -0.6234  0.4319
  637EOH      C 2552   2.622   6.174   2.555 -0.7757 -0.4645  0.4091
  637EOH      H 2553   2.484   6.276   2.299  2.3050  0.3864 -1.5438
  638EOH      O 2554   1.698   1.110   7.887  0.5085 -0.0316  0.4391
  638EOH      C 2555   1.578   1.178   7.925  0.1646 -0.3824 -0.0258
  638EOH      C 2556   1.487   1.178   7.800 -0.1266  0.0137  0.1842
  638EOH      H 2557   1.676   1.019   7.878 -0.1804  0.2413 -0.6423
  639EOH      O 2558   4.506   5.555   3.421 -0.4164  0.1445  0.1732
  639EOH      C 2559   4.490   5.440   3.337 -0.2386  0.0655  0.2469
  639EOH      C 2560   4.601   5.438   3.231 -0.4114 -0.2021  0.0736
  639EOH      H 2561   4.421   5.580   3.454 -0.1157  1.1708  0.2050
  640EOH      O 2562   1.255   3.474   5.079 -0.7293  0.1452 -0.2195
  640EOH      C 2563   1.331   3.592   5.053  0.0319 -0.3947 -0.4424
  640EOH      C 2564   1.337   3.671   5.185  0.2193  0.0282 -0.7041
  640EOH      H 2565   1.295   3.404   5.030  0.5752 -0.6824  1.9572
  641EOH      O 2566   7.656   0.428   4.188 -0.6574 -0.3994 -0.2630
  641EOH      C 2567   7.763   0.396   4.279 -0.4134  0.0846 -0.3825
  641EOH      C 2568   7.739   0.436   4.425 -0.2425 -0.6404 -0.1564
  641EOH      H 2569   7.703   0.429   4.106 -0.9762 -1.0214 -0.4595
  642EOH      O 2570   3.555   4.869   2.690 -0.0249  0.2023  0.1079
  642EOH      C 2571   3.569   4.989   2.765  0.6511 -0.0688  0.4161
  642EOH      C 2572   3.561   5.119   2.683  0.2669 -0.3584 -0.0015
  642EOH      H 2573   3.582   4.793   2.739 -0.0935 -0.0052 -0.1719
  643EOH      O 2574   3.841   2.523   4.580  0.3661  0.1044  0.4402
  643EOH      C 2575   3.836   2.385   4.545 -0.0796  0.2419 -0.0345
  643EOH      C 2576   3.711   2.315   4.602  0.0104 -0.0424 -0.1837
  643EOH      H 2577   3.811   2.535   4.668 -1.6368 -0.2852 -0.1755
  644EOH      O 2578   0.641   7.812   7.170 -0.0152  0.0129  0.3369
  644EOH      C 2579   0.601   7.911   7.075  0.0622 -0.2525  0.0259
  644EOH      C 2580   0.527   7.841   6.960 -0.2062  0.1993 -0.0750
  644EOH      H 2581   0.733   7.825   7.191  0.3118  0.3277 -1.2407
  645EOH      O 2582   2.295   6.867   3.895 -0.4152 -0.1781 -0.1182
  645EOH      C 2583   2.194   6.953   3.842 -0.2190  0.1077 -0.0250
  645EOH      C 2584   2.054   6.922   3.898 -0.1621 -0.2313 -0.0723
  645EOH      H 2585   2.266   6.783   3.928  1.5721 -0.1477  1.7876
  646EOH      O 2586   2.580   1.580   4.583 -0.0395  0.0281 -0.0477
  646EOH      C 2587   2.625   1.563   4.448 -0.0135  0.2874 -0.0715
  646EOH      C 2588   2.545   1.448   4.382  0.4306  0.2002 -0.4632
  646EOH      H 2589   2.501   1.631   4.589 -0.0429 -0.0302  0.3529
  647EOH      O 2590   4.123   1.633   7.394  0.2008 -0.0389  0.0639
  647EOH      C 2591   4.132   1.535   7.290  0.0570  0.3958 -0.3624
  647EOH      C 2592   4.270   1.480   7.249  0.2380  0.1351  0.5628
  647EOH      H 2593   4.049   1.606   7.447 -0.1522  1.8746  0.5958
  648EOH      O 2594   2.821   3.789   6.155 -0.1310  0.1223 -0.7009
  648EOH      C 2595   2.945   3.856   6.181 -0.0098 -0.2392 -0.3433
  648EOH      C 2596   3.026   3.845   6.051  0.0871 -0.0168 -0.3003
  648EOH      H 2597   2.766   3.804   6.231 -0.9026 -1.0134 -1.0330
  649EOH      O 2598   1.874   2.869   6.177  0.2839  0.5656 -0.1710
  649EOH      C 2599   1.835   2.994   6.235 -0.1353  0.2348  0.2666
  649EOH      C 2600   1.947   3.047   6.327 -0.1710 -0.4758  0.7190
  649EOH      H 2601   1.842   2.798   6.230 -0.5069  1.6853  0.8848
  650EOH      O 2602   2.617   5.745   6.922  0.0315  0.5793 -0.0100
  650EOH      C 2603   2.681   5.845   6.843  0.1352  0.3313 -0.2430
  650EOH      C 2604   2.593   5.857   6.717  0.0386 -0.4690 -0.2533
  650EOH      H 2605   2.658   5.664   6.898 -1.5643 -0.8058  1.7426
  651EOH      O 2606   5.599   0.074   3.766 -0.8185 -0.1067 -0.3282
  651EOH      C 2607   5.546   0.155   3.661 -0.5234  0.2292 -0.2205
  651EOH      C 2608   5.642   0.271   3.630 -0.0973  0.0406  0.3967
  651EOH      H 2609   5.551   0.079   3.847  0.6452 -2.4482  0.7495
  652EOH      O 2610   1.935   5.643   0.627  0.3388  0.0923 -0.0658
  652EOH      C 2611   2.069   5.592   0.632  0.3052 -0.0396 -0.5297
  652EOH      C 2612   2.157   5.648   0.519 -0.0645 -0.4300 -1.0129
  652EOH      H 2613   1.936   5.738   0.631 -2.6775  0.1400  0.1752
  653EOH      O 2614   2.324   7.866   1.265 -0.7128  0.0515 -0.1678
  653EOH      C 2615   2.402   7.906   1.151 -0.0147 -0.2345  0.2040
  653EOH      C 2616   2.357   7.862   1.010  0.3439  0.1484 -0.0298
  653EOH      H 2617   2.235   7.888   1.243 -0.6949  0.1806 -0.1077
  654EOH      O 2618   1.398   3.315   0.818  0.5285 -0.2361  0.8398
  654EOH      C 2619   1.437   3.452   0.821 -0.9017  0.1856  0.2626
  654EOH      C 2620   1.484   3.486   0.964  0.8396 -0.0340 -0.2475
  654EOH      H 2621   1.350   3.314   0.737  0.2767 -0.8232  0.9957
  655EOH      O 2622   0.790   1.454   0.145  0.8466 -0.2074 -0.2416
  655EOH      C 2623   0.882   1.458   0.035  0.4767  0.0241 -0.5435
  655EOH      C 2624   0.879   1.329  -0.050  0.8000 -0.3134 -0.0485
  655EOH      H 2625   0.831   1.491   0.221  1.0114 -1.5675  0.3513
  656EOH      O 2626   3.214   4.932   7.275  0.2649  0.4444  0.0764
  656EOH      C 2627   3.327   4.864   7.330 -0.1230 -0.0098  0.3234
  656EOH      C 2628   3.339   4.901   7.479  0.1264  0.4366  0.1957
  656EOH      H 2629   3.136   4.900   7.317  0.3520  0.3133  0.1379
  657EOH      O 2630   0.597   7.488   6.166  0.0254 -0.2050  0.0108
  657EOH      C 2631   0.657   7.364   6.202  0.1550  0.0108  0.5485
  657EOH      C 2632   0.566   7.277   6.290 -0.4353  0.2107  0.1379
  657EOH      H 2633   0.666   7.529   6.115  2.0781 -0.4226  2.5300
  658EOH      O 2634   1.774   0.274   7.871 -0.3967 -0.0171  0.0209
  658EOH      C 2635   1.666   0.237   7.785 -0.0295  0.5262 -0.6823
  658EOH      C 2636   1.563   0.351   7.777  0.0396  0.6172 -0.2802
  658EOH      H 2637   1.814   0.191   7.889 -1.9848 -1.1584 -1.6206
  659EOH      O 2638   4.930   3.484   3.211 -0.2398  0.4984  0.0917
  659EOH      C 2639   4.801   3.440   3.168 -0.1158 -0.2588  0.4704
  659EOH      C 2640   4.721   3.375   3.282 -0.6285  0.1277  0.3331
  659EOH      H 2641   4.939   3.573   3.183  0.5007  0.2677 -0.4288
  660EOH      O 2642   2.397   3.071   3.631  0.0046  0.0809 -0.0939
  660EOH      C 2643   2.349   3.176   3.716  0.1635 -0.0811  0.1945
  660EOH      C 2644   2.198   3.178   3.742  0.0086 -0.0056 -0.7017
  660EOH      H 2645   2.480   3.031   3.649 -0.1426 -0.6641 -1.0536
  661EOH      O 2646   2.238   5.604   1.458  0.3082 -0.7700  0.7661
  661EOH      C 2647   2.150   5.509   1.518 -0.0116 -0.9498  0.0122
  661EOH      C 2648   2.228   5.382   1.559  0.7482 -0.3257  0.5104
  661EOH      H 2649   2.285   5.568   1.385  1.4995  1.6058  0.3112
  662EOH      O 2650   2.562   2.475   4.862 -0.0808  0.0413 -0.2076
  662EOH      C 2651   2.616   2.565   4.960 -0.1381  0.3479 -0.4581
  662EOH      C 2652   2.514   2.679   4.978  0.0333  0.3676  0.4056
  662EOH      H 2653   2.627   2.422   4.819 -0.8534 -1.2732  0.2025
  663EOH      O 2654   4.348   4.808   4.524  0.1413 -0.2731  0.1847
  663EOH      C 2655   4.322   4.887   4.408  0.2184 -0.2029  0.2153
  663EOH      C 2656   4.450   4.903   4.323 -0.4725  0.7865 -0.6466
  663EOH      H 2657   4.293   4.733   4.507  0.6504 -0.4499 -0.6645
  664EOH      O 2658   1.496   5.065   1.749  0.8252  0.1783 -0.4262
  664EOH      C 2659   1.520   4.943   1.821  0.0035  0.3976  0.2296
  664EOH      C 2660   1.413   4.840   1.780  0.4428 -0.0256  0.1357
  664EOH      H 2661   1.531   5.054   1.662  0.0605 -0.2263 -0.6878
  665EOH      O 2662   1.280   1.748   4.936  0.1149 -0.3916  0.0650
  665EOH      C 2663   1.253   1.871   5.002  0.5538 -0.3388  0.1505
  665EOH      C 2664   1.379   1.956   5.028  0.1727  0.4014 -0.3967
  665EOH      H 2665   1.196   1.706   4.933 -0.7470  1.2586  0.8037
  666EOH      O 2666   3.625   3.392   0.354  0.2550 -0.6016 -0.7973
  666EOH      C 2667   3.522   3.379   0.453  0.4273 -0.4029 -0.5901
  666EOH      C 2668   3.541   3.269   0.559  0.2179  0.1059 -0.0199
  666EOH      H 2669   3.634   3.312   0.305  4.0529  0.3942 -1.8866
  667EOH      O 2670   5.614   0.741   4.114 -0.1241  0.2165  0.0986
  667EOH      C 2671   5.505   0.728   4.206  0.1264 -0.1076  0.3534
  667EOH      C 2672   5.504   0.859   4.286 -0.4991  0.2963 -0.2968
  667EOH      H 2673   5.601   0.812   4.054  1.3207 -0.9612 -1.6666
  668EOH      O 2674   2.763   3.046   6.491  0.3175  0.0666 -0.1575
  668EOH      C 2675   2.788   2.906   6.472  0.1541  0.0513 -0.2576
  668EOH      C 2676   2.661   2.832   6.517 -0.1079  0.2755 -0.6218
  668EOH      H 2677   2.846   3.088   6.509  0.0098  0.8321 -0.5122
  669EOH      O 2678   3.314   2.445   3.051 -0.0082  0.3086  0.2657
  669EOH      C 2679   3.384   2.352   3.134 -0.1548 -0.5232 -0.5353
  669EOH      C 2680   3.510   2.284   3.077  0.0421 -0.0981 -0.6085
  669EOH      H 2681   3.323   2.422   2.960  0.6291 -2.2483  0.9270
  670EOH      O 2682   0.863   7.775   2.458  0.0195 -0.4122  0.7381
  670EOH      C 2683   0.754   7.693   2.416 -0.3473  0.3339  0.2279
  670EOH      C 2684   0.684   7.620   2.531 -0.1363 -0.5663 -0.2091
  670EOH      H 2685   0.928   7.781   2.389 -0.7265  0.2123  0.0854
  671EOH      O 2686   7.043   0.535   3.997  0.3009  0.0952 -0.3137
  671EOH      C 2687   6.949   0.638   3.966  0.0453 -0.0153  0.0858
  671EOH      C 2688   7.004   0.778   3.998  0.0645 -0.0607  0.2535
  671EOH      H 2689   7.000   0.451   3.992  0.4546 -0.0045 -0.0019
  672EOH      O 2690   0.671   1.572   6.939 -0.5570 -0.6773  0.1851
  672EOH      C 2691   0.639   1.462   6.853 -0.0433 -0.3112 -0.4823
  672EOH      C 2692   0.714   1.336   6.900 -0.4308 -0.3686 -0.0101
  672EOH      H 2693   0.746   1.616   6.903 -0.6169 -2.9347 -2.9093
  673EOH      O 2694   5.684   3.406   5.091 -0.3567  0.0418  0.0959
  673EOH      C 2695   5.716   3.513   5.181 -0.0266 -0.1066  0.1519
  673EOH      C 2696   5.848   3.480   5.255  0.1987  0.7288  0.1208
  673EOH      H 2697   5.617   3.436   5.031 -1.8900 -2.5225  0.4737
  674EOH      O 2698   3.475   3.658   4.482 -0.2387 -0.0806  0.0569
  674EOH      C 2699   3.361   3.571   4.477 -0.1882 -0.1522  0.1676
  674EOH      C 2700   3.242   3.651   4.531 -0.1314  0.1028 -0.0846
  674EOH      H 2701   3.453   3.735   4.432 -0.3636  0.3144  0.7148
  675EOH      O 2702   0.580   5.618   2.012  0.3156  0.0175  0.3107
  675EOH      C 2703   0.637   5.503   1.948 -0.1874  0.0444 -0.1956
  675EOH      C 2704   0.710   5.558   1.823  0.3329 -0.2160 -0.0083
  675EOH      H 2705   0.647   5.669   2.053  0.2721  0.5293 -0.2523
  676EOH      O 2706   3.753   5.081   7.794  0.2007 -0.6838  0.1592
  676EOH      C 2707   3.675   5.000   7.705  0.0814 -0.2721 -0.1156
  676EOH      C 2708   3.628   5.096   7.595  0.0618 -0.0852  0.0570
  676EOH      H 2709   3.691   5.143   7.828  1.7775 -0.3073  2.4151
  677EOH      O 2710   3.419   5.278   4.227  0.1322  0.2473 -0.3891
  677EOH      C 2711   3.400   5.248   4.089  0.7448 -0.0773 -0.4066
  677EOH      C 2712   3.329   5.369   4.025  0.1141 -0.1957  0.0633
  677EOH      H 2713   3.440   5.193   4.263  0.0759  0.7354  0.8177
  678EOH      O 2714   0.880   6.110   0.273 -0.1170 -0.3976 -0.3994
  678EOH      C 2715   0.979   6.008   0.290  0.5434  0.2875 -0.0973
  678EOH      C 2716   1.033   6.015   0.434  0.1694  0.1743  0.0493
  678EOH      H 2717   0.895   6.157   0.193 -1.1945  0.4936 -0.0879
  679EOH      O 2718   3.354   1.641   6.872  0.1237 -0.3864  0.3393
  679EOH      C 2719   3.399   1.505   6.866  0.5203 -0.2605  0.4619
  679EOH      C 2720   3.508   1.485   6.758  0.0967  0.8986 -0.1970
  679EOH      H 2721   3.283   1.641   6.934  1.3058 -3.1231  1.7821
  680EOH      O 2722   2.173   5.273   7.839 -0.2873  0.1780 -0.3194
  680EOH      C 2723   2.117   5.201   7.949  0.2767  0.2924  0.0434
  680EOH      C 2724   2.176   5.263   8.078  0.8602 -0.6570  0.2387
  680EOH      H 2725   2.248   5.227   7.805 -0.2219 -0.7947  1.1016
  681EOH      O 2726   7.680   1.606   0.644 -0.2078 -0.3916 -0.6727
  681EOH      C 2727   7.731   1.490   0.711  0.3247  0.0216 -0.3632
  681EOH      C 2728   7.757   1.377   0.610 -0.1258 -0.0096 -0.4436
  681EOH      H 2729   7.639   1.659   0.711  2.6754 -1.0190  1.6921
  682EOH      O 2730   7.110   2.276   1.984 -0.6515  0.1964  0.3868
  682EOH      C 2731   7.022   2.291   1.872 -0.1586 -0.2462 -0.0622
  682EOH      C 2732   7.071   2.415   1.795 -0.6225 -0.2839 -0.4128
  682EOH      H 2733   7.112   2.184   2.006 -2.7801  0.2901  1.0920
  683EOH      O 2734   3.396   6.605   5.605 -0.0934 -0.0419  0.0853
  683EOH      C 2735   3.275   6.622   5.531 -0.2223 -0.3588  0.2210
  683EOH      C 2736   3.289   6.757   5.458  0.8465 -0.6666 -0.1354
  683EOH      H 2737   3.399   6.519   5.643 -0.7278 -0.3738 -0.6043
  684EOH      O 2738   7.701   3.078   7.693 -0.2025 -0.1545 -0.0288
  684EOH      C 2739   7.716   3.213   7.649 -0.1895 -0.2485 -0.3091
  684EOH      C 2740   7.615   3.296   7.730  0.3935  0.0368  0.1238
  684EOH      H 2741   7.736   3.031   7.619  1.4294  2.6164 -1.0592
  685EOH      O 2742   3.145   2.239   6.710  0.2779  0.0620  0.0879
  685EOH      C 2743   3.017   2.265   6.769  0.0762  0.4223 -0.5014
  685EOH      C 2744   2.991   2.417   6.763  0.0451  0.4672  0.6430
  685EOH      H 2745   3.135   2.199   6.625  0.0614 -0.8389  0.5355
  686EOH      O 2746   7.703   1.696   4.958  0.1243  0.0143  0.2890
  686EOH      C 2747   7.633   1.748   5.071  0.3437  0.1662  0.3538
  686EOH      C 2748   7.614   1.900   5.054 -0.3561  0.0172 -0.1725
  686EOH      H 2749   7.761   1.764   4.928 -2.5978  2.0567 -0.5667
  687EOH      O 2750   2.481   5.004   5.478 -0.4242 -0.0872  0.5027
  687EOH      C 2751   2.493   4.910   5.585  0.3886 -0.0121  0.4805
  687EOH      C 2752   2.365   4.825   5.578 -0.0108  0.6968 -0.9161
  687EOH      H 2753   2.477   4.961   5.394 -0.6458  1.7678 -0.4481
  688EOH      O 2754   3.113   6.325   2.190  0.0518  0.2552  0.1700
  688EOH      C 2755   3.064   6.194   2.158 -0.0117  0.2288  0.3755
  688EOH      C 2756   2.910   6.189   2.160 -0.0135  0.2790  0.4571
  688EOH      H 2757   3.156   6.311   2.274  1.0571 -0.0203 -0.3773
  689EOH      O 2758   2.693   2.259   2.226  0.0566  0.4180  0.2144
  689EOH      C 2759   2.726   2.121   2.248  0.1058  0.3647 -0.1861
  689EOH      C 2760   2.748   2.074   2.103  0.5879  0.0017  0.0035
  689EOH      H 2761   2.749   2.306   2.285  1.5798  0.5583 -1.2855
  690EOH      O 2762   0.875   6.668   2.085 -0.4666 -0.1431 -0.0477
  690EOH      C 2763   0.811   6.779   2.147 -0.5056  0.1150 -0.5518
  690EOH      C 2764   0.916   6.891   2.156 -0.1319 -0.2919  0.0728
  690EOH      H 2765   0.888   6.603   2.152 -2.4359  0.4834  0.9719
  691EOH      O 2766   4.310   4.034   6.830 -0.0411  0.0493 -0.1576
  691EOH      C 2767   4.169   4.032   6.809 -0.0131  0.2684 -0.3800
  691EOH      C 2768   4.133   4.135   6.701 -0.0194 -0.2808 -0.9077
  691EOH      H 2769   4.318   3.977   6.905  0.1025  2.3700  1.6556
  692EOH      O 2770   2.192   2.192   4.977  0.3524 -0.5409  0.3441
  692EOH      C 2771   2.311   2.191   5.057  0.6490  0.2403 -0.0920
  692EOH      C 2772   2.420   2.108   4.986 -0.0866 -0.5246 -0.3412
  692EOH      H 2773   2.204   2.253   4.906 -0.2607 -1.2575 -0.3846
  693EOH      O 2774   2.156   5.447   1.174  0.5657 -0.7432  0.3558
  693EOH      C 2775   2.070   5.407   1.067  0.4001 -0.1112  0.2463
  693EOH      C 2776   2.154   5.412   0.938  0.3859 -0.0157  0.2409
  693EOH      H 2777   2.100   5.510   1.217  1.3035  0.1043  0.0906
  694EOH      O 2778   1.722   6.048   3.228 -0.3792  0.0830  0.1611
  694EOH      C 2779   1.672   6.061   3.095 -0.0301 -0.3914 -0.0189
  694EOH      C 2780   1.793   6.069   3.000  0.1233 -0.1381  0.1981
  694EOH      H 2781   1.647   6.064   3.283 -1.0996  0.4459 -0.9160
  695EOH      O 2782   4.318   3.350   3.350 -0.2009 -0.7377  0.1385
  695EOH      C 2783   4.247   3.420   3.248  0.6236  0.0681  0.1185
  695EOH      C 2784   4.260   3.401   3.096  0.5455 -0.7824  0.2186
  695EOH      H 2785   4.321   3.404   3.427  3.5358 -0.5673 -0.0153
  696EOH      O 2786   2.198   2.353   4.763 -0.6661  0.5458  0.5404
  696EOH      C 2787   2.109   2.282   4.677  0.6781 -0.3322 -0.1334
  696EOH      C 2788   2.165   2.138   4.675 -0.1597 -0.6626 -0.4637
  696EOH      H 2789   2.257   2.409   4.715  0.3116 -1.0441 -0.1582
  697EOH      O 2790   2.304   7.288   1.863 -0.3708  0.0665  0.1294
  697EOH      C 2791   2.359   7.345   1.982 -0.0601  0.8862 -0.4073
  697EOH      C 2792   2.509   7.313   1.996 -0.1539  0.5298 -0.2119
  697EOH      H 2793   2.367   7.293   1.792  0.4013  0.1145  0.8109
  698EOH      O 2794   1.893   3.406   4.909 -0.0489 -0.1340 -0.7740
  698EOH      C 2795   1.755   3.396   4.874 -0.2544 -0.2225  0.0503
  698EOH      C 2796   1.742   3.300   4.754  0.5328 -0.1377 -0.1043
  698EOH      H 2797   1.893   3.476   4.973 -1.0474 -0.6388 -0.2071
  699EOH      O 2798   3.866   4.873   4.881  0.0532  0.1811  0.0169
  699EOH      C 2799   3.952   4.964   4.812  0.3751 -0.2324 -0.1320
  699EOH      C 2800   3.890   5.014   4.680  0.4481 -0.2381 -0.1684
  699EOH      H 2801   3.873   4.785   4.846  0.5828 -0.7342  2.3711
  700EOH      O 2802   2.299   4.672   0.051 -0.0504 -0.2713 -0.6861
  700EOH      C 2803   2.172   4.665   0.116  0.2712 -0.2912 -0.0447
  700EOH      C 2804   2.107   4.552   0.033 -0.9141  0.0774  0.3636
  700EOH      H 2805   2.342   4.747   0.089 -2.6391  1.1046 -0.3425
  701EOH      O 2806   2.291   3.500   2.049  0.0765 -0.0933 -0.0723
  701EOH      C 2807   2.190   3.574   1.981  0.3330 -0.0333 -0.3919
  701EOH      C 2808   2.127   3.678   2.077  0.3742 -0.2666 -0.1111
  701EOH      H 2809   2.370   3.548   2.031 -0.4908 -0.0083 -2.4831
  702EOH      O 2810   1.217   3.478   5.488  0.0167 -0.4099  0.1092
  702EOH      C 2811   1.358   3.469   5.465  0.0780 -0.2014  0.4102
  702EOH      C 2812   1.383   3.341   5.385  0.1867  0.1315 -0.0917
  702EOH      H 2813   1.177   3.464   5.403 -1.8137 -1.3047  1.0982
  703EOH      O 2814   2.390   1.817   2.648 -0.3086  0.4695 -0.1796
  703EOH      C 2815   2.276   1.818   2.734  0.1424  0.0651  0.4219
  703EOH      C 2816   2.219   1.677   2.759  0.1682 -0.0174  0.0110
  703EOH      H 2817   2.362   1.789   2.562  0.0514 -2.4089  0.5723
  704EOH      O 2818   4.201   3.492   7.203  0.1288 -0.3968 -0.2676
  704EOH      C 2819   4.303   3.545   7.118 -0.0993  0.6298  0.0887
  704EOH      C 2820   4.268   3.511   6.971 -0.5322  0.5048  0.2190
  704EOH      H 2821   4.163   3.409   7.178  1.5572 -1.1658 -0.0027
  705EOH      O 2822   1.884   6.693   3.472 -0.0687  0.0778 -0.3346
  705EOH      C 2823   1.796   6.798   3.514  0.2768 -0.1165  0.8931
  705EOH      C 2824   1.886   6.923   3.513  0.2716 -0.1155 -0.4847
  705EOH      H 2825   1.841   6.630   3.417  1.6173 -0.6871 -0.8150
  706EOH      O 2826   0.988   2.386   3.731 -0.4306 -0.1889 -0.3740
  706EOH      C 2827   0.882   2.457   3.666 -0.4391  0.1884  0.0460
  706EOH      C 2828   0.821   2.370   3.554 -0.4750  0.2617  0.0087
  706EOH      H 2829   0.946   2.316   3.776  1.2459 -2.3512 -2.0435
  707EOH      O 2830   5.471   2.134   3.293  0.0454 -0.1253 -0.4733
  707EOH      C 2831   5.543   2.227   3.211 -0.0291  0.1249 -0.2542
  707EOH      C 2832   5.437   2.304   3.131 -0.1092  0.0892 -0.1826
  707EOH      H 2833   5.537   2.066   3.299  2.1188  1.9420  0.7934
  708EOH      O 2834   3.314   1.940   4.254  0.0606  0.3010 -0.1607
  708EOH      C 2835   3.288   1.801   4.272  0.2781  0.3608  0.6416
  708EOH      C 2836   3.425   1.731   4.265  0.1250  0.1210 -0.0883
  708EOH      H 2837   3.264   1.975   4.326 -0.1227 -3.2273  1.5425
  709EOH      O 2838   7.510   7.067   2.527 -0.3131  0.3920  0.1279
  709EOH      C 2839   7.426   6.962   2.481 -0.3513  0.7437 -0.6175
  709EOH      C 2840   7.294   6.947   2.559  0.1919 -0.0127  0.1592
  709EOH      H 2841   7.579   7.065   2.461 -0.8440  1.3414 -0.4764
  710EOH      O 2842   2.111   1.724   4.117 -0.2325 -0.0974  0.2637
  710EOH      C 2843   2.171   1.645   4.013 -0.0272  0.0015  0.3065
  710EOH      C 2844   2.155   1.492   4.011  0.3116 -0.0284 -0.1054
  710EOH      H 2845   2.076   1.798   4.070  1.3020 -0.8545 -2.2094
  711EOH      O 2846   1.748   0.820   3.209  0.3051  0.2386  0.0417
  711EOH      C 2847   1.764   0.753   3.084 -0.5218 -0.3193  0.2337
  711EOH      C 2848   1.761   0.601   3.103 -0.8646 -0.4562 -0.8676
  711EOH      H 2849   1.658   0.817   3.237  0.8949 -3.2067  1.8519
  712EOH      O 2850   3.358   7.359   5.182  0.0571  0.5661  0.1692
  712EOH      C 2851   3.430   7.371   5.305  0.8118  0.0079 -0.2094
  712EOH      C 2852   3.444   7.229   5.364 -0.2676 -0.0233 -0.0071
  712EOH      H 2853   3.267   7.363   5.207 -0.3165  2.3938 -1.4347
  713EOH      O 2854   1.812   4.204   2.828 -1.3000  0.0356 -0.1907
  713EOH      C 2855   1.935   4.190   2.756 -0.8316  0.1145  0.5912
  713EOH      C 2856   1.979   4.312   2.673  0.3821 -0.5565  0.2377
  713EOH      H 2857   1.773   4.118   2.828 -3.5333  0.9986 -0.7891
  714EOH      O 2858   0.423   0.021   4.000  0.2675  0.1058 -0.2453
  714EOH      C 2859   0.493   0.051   3.879 -0.5063 -0.2094 -0.7818
  714EOH      C 2860   0.421   0.160   3.798  0.0488  0.5597 -0.2467
  714EOH      H 2861   0.369  -0.055   3.981  1.8289 -0.6180 -1.9110
  715EOH      O 2862   3.036   7.113   5.290  0.7400 -0.0318 -0.7170
  715EOH      C 2863   3.127   7.040   5.373 -0.5567 -0.7502  0.0912
  715EOH      C 2864   3.111   7.062   5.524  0.3293 -0.6920  0.1840
  715EOH      H 2865   3.035   7.073   5.204  0.2796 -2.8545  0.5266
  716EOH      O 2866   4.075   7.281   5.127 -0.4354 -0.7133 -0.0266
  716EOH      C 2867   4.191   7.216   5.181  0.5300  0.5325 -0.5854
  716EOH      C 2868   4.264   7.116   5.089  0.4001  0.4078 -0.5532
  716EOH      H 2869   4.107   7.344   5.065  1.3608 -0.5335  1.0249
  717EOH      O 2870   1.588   7.386   5.096  0.1218 -0.3992 -0.0741
  717EOH      C 2871   1.576   7.245   5.111  0.0696 -0.4013 -0.1425
  717EOH      C 2872   1.592   7.220   5.262 -0.1469  0.3168 -0.0006
  717EOH      H 2873   1.531   7.409   5.025 -2.2085  0.5299  2.0109
  718EOH      O 2874   1.067   0.224   6.655 -0.2385  0.2452  0.2381
  718EOH      C 2875   1.042   0.122   6.752 -0.2303  0.0932  0.0784
  718EOH      C 2876   0.906   0.055   6.729  0.1753 -0.7092 -0.0136
  718EOH      H 2877   1.162   0.229   6.655 -0.0857 -2.0306 -1.4076
  719EOH      O 2878   3.107   1.666   1.610  0.1735  0.1536 -0.4628
  719EOH      C 2879   3.180   1.588   1.515  0.0277 -0.1664 -0.3134
  719EOH      C 2880   3.085   1.534   1.406  0.0865 -0.2769 -0.3108
  719EOH      H 2881   3.169   1.714   1.663  0.9985 -0.2548 -1.0418
  720EOH      O 2882   3.268   3.520   5.483 -0.3816  0.6377 -0.0187
  720EOH      C 2883   3.365   3.500   5.380 -0.2910 -0.3627  0.2586
  720EOH      C 2884   3.416   3.632   5.321 -0.0096 -0.4510  0.3043
  720EOH      H 2885   3.258   3.437   5.527  2.5912  1.3729  2.2119
  721EOH      O 2886   2.765   5.511   0.786  0.5721  0.9706  0.0431
  721EOH      C 2887   2.659   5.557   0.870  0.2355  0.2132  0.0408
  721EOH      C 2888   2.550   5.629   0.789 -0.1695  0.2020  0.5729
  721EOH      H 2889   2.841   5.563   0.807  0.7366 -0.2856  2.7104
  722EOH      O 2890   1.395   3.821   0.194 -0.2366 -0.3321 -0.0980
  722EOH      C 2891   1.380   3.711   0.104  0.1737 -0.2100 -0.3177
  722EOH      C 2892   1.386   3.783  -0.032 -0.3397 -0.4335 -0.4629
  722EOH      H 2893   1.484   3.851   0.184  0.0446 -0.3036  2.2212
  723EOH      O 2894   1.251   5.023   1.200 -0.1263 -0.6485 -0.5387
  723EOH      C 2895   1.172   5.102   1.289  0.6775 -0.2751 -0.1523
  723EOH      C 2896   1.168   5.026   1.422 -0.1923 -0.0512 -0.0474
  723EOH      H 2897   1.242   5.064   1.115  0.4655 -1.6043 -1.0787
  724EOH      O 2898   4.162   6.421   3.258  0.1717  0.6393  0.2661
  724EOH      C 2899   4.020   6.428   3.240  0.1346  0.2949  0.4107
  724EOH      C 2900   3.975   6.575   3.231 -0.2455  0.1120 -0.7284
  724EOH      H 2901   4.197   6.484   3.198  0.4013 -1.0533 -1.4260
  725EOH      O 2902   1.492   1.598   4.863  0.2501 -0.2017  0.0509
  725EOH      C 2903   1.599   1.685   4.825  0.0918  0.1563  0.4275
  725EOH      C 2904   1.722   1.626   4.754 -0.3302  0.5810 -0.6551
  725EOH      H 2905   1.420   1.649   4.896  0.6282 -0.3249  1.0986
  726EOH      O 2906   1.179   1.644   6.104  0.2586  0.4846  0.3034
  726EOH      C 2907   1.226   1.660   5.970  0.1847 -0.5253  0.1521
  726EOH      C 2908   1.332   1.551   5.944  0.1889 -0.5070  0.0909
  726EOH      H 2909   1.126   1.565   6.107  1.1832 -0.1192  1.0869
  727EOH      O 2910   3.711   6.347   2.367 -0.1905 -0.4910 -0.1892
  727EOH      C 2911   3.616   6.400   2.274 -0.1687 -0.1148 -0.0005
  727EOH      C 2912   3.580   6.279   2.185  0.1391 -0.0800 -0.1735
  727EOH      H 2913   3.786   6.316   2.319 -0.6587 -0.7492 -0.7495
  728EOH      O 2914   2.962   0.811   1.758 -0.0153  0.1963  0.2000
  728EOH      C 2915   2.841   0.739   1.782  0.0324  0.0366 -0.0464
  728EOH      C 2916   2.867   0.640   1.897 -0.0537 -0.2658 -0.2830
  728EOH      H 2917   2.950   0.884   1.698  0.2687  0.7819  0.8454
  729EOH      O 2918   1.398   4.075   0.613 -0.6385 -0.0536 -0.0915
  729EOH      C 2919   1.320   3.960   0.582 -0.6052  0.0061 -0.3960
  729EOH      C 2920   1.408   3.840   0.541  0.2691  0.5326 -0.0736
  729EOH      H 2921   1.418   4.059   0.704  2.6981  0.2270 -0.7326
  730EOH      O 2922   1.018   6.714   1.876  0.0291 -0.4945 -0.6844
  730EOH      C 2923   1.105   6.600   1.866  0.1497 -0.5010  0.4011
  730EOH      C 2924   1.040   6.475   1.806  0.5410 -0.9374  0.8822
  730EOH      H 2925   0.957   6.708   1.947 -0.4107  0.9391 -0.9237
  731EOH      O 2926   4.110   3.620   7.412 -0.8898  0.4242 -0.0964
  731EOH      C 2927   4.198   3.726   7.450 -0.4391 -0.0003  0.0448
  731EOH      C 2928   4.171   3.831   7.341 -0.7014  0.2310  0.3315
  731EOH      H 2929   4.137   3.589   7.327 -0.1801  0.1789  0.2124
  732EOH      O 2930   4.157   0.784   4.630 -0.3832 -0.0350 -0.4879
  732EOH      C 2931   4.110   0.911   4.584 -0.2124  0.2552  0.1336
  732EOH      C 2932   4.039   0.895   4.448  0.5111 -0.5964 -0.1494
  732EOH      H 2933   4.223   0.803   4.695  1.5685 -1.2275 -2.0723
  733EOH      O 2934   3.344   6.405   3.772 -0.1428  0.0031  0.2350
  733EOH      C 2935   3.463   6.390   3.851  0.0430 -0.6018 -0.1561
  733EOH      C 2936   3.453   6.488   3.969 -0.2134 -0.5045 -0.2579
  733EOH      H 2937   3.358   6.475   3.711 -0.9098 -0.5610 -0.5999
  734EOH      O 2938   4.914   4.001   4.490  0.0342  0.1175 -0.0865
  734EOH      C 2939   4.959   3.883   4.423 -0.7128 -0.1729 -0.0788
  734EOH      C 2940   4.923   3.754   4.500 -0.5537 -0.6847 -0.8504
  734EOH      H 2941   4.843   3.980   4.548  0.8814 -0.3984  0.7760
  735EOH      O 2942   2.010   0.695   6.330  0.4942 -0.3125  0.4582
  735EOH      C 2943   1.937   0.619   6.234  0.1408  0.1418  0.3687
  735EOH      C 2944   1.973   0.470   6.246 -0.0653  0.0578 -0.0224
  735EOH      H 2945   2.025   0.782   6.297 -3.2379  0.3250  0.2998
  736EOH      O 2946   1.272   5.173   7.312  0.0610 -0.2587 -0.1561
  736EOH      C 2947   1.192   5.283   7.355  0.8165  0.4268 -0.5049
  736EOH      C 2948   1.071   5.291   7.259  0.2901  0.3946  0.1507
  736EOH      H 2949   1.256   5.099   7.369  0.3161 -0.1839  0.0141
  737EOH      O 2950   5.664   3.361   3.777  0.1018 -0.1787 -0.1155
  737EOH      C 2951   5.523   3.341   3.765  0.0748 -0.0033 -0.0918
  737EOH      C 2952   5.482   3.259   3.889 -0.3101 -0.5023 -0.5499
  737EOH      H 2953   5.677   3.441   3.730 -1.3239  0.3485  0.3567
  738EOH      O 2954   0.617   7.474   4.569  0.1162  0.3335 -0.4875
  738EOH      C 2955   0.635   7.342   4.516  0.2315  0.3841 -0.5731
  738EOH      C 2956   0.506   7.265   4.482  0.2984  0.0544 -0.0840
  738EOH      H 2957   0.640   7.537   4.502 -0.3285  0.3689 -0.6033
  739EOH      O 2958   0.482   6.499   2.823 -0.8761 -0.7279  0.6049
  739EOH      C 2959   0.354   6.513   2.760 -0.0226  0.5991 -0.8833
  739EOH      C 2960   0.294   6.639   2.825  0.3035  0.0845  0.4449
  739EOH      H 2961   0.460   6.470   2.910 -0.6130  2.6730  1.9018
  740EOH      O 2962   3.269   2.734   3.684  0.1241  0.9519 -0.1227
  740EOH      C 2963   3.394   2.713   3.750 -0.0896  0.1430  0.0258
  740EOH      C 2964   3.385   2.688   3.902 -0.0484 -0.7091 -0.1097
  740EOH      H 2965   3.266   2.662   3.623  0.7134  0.3296  0.5774
  741EOH      O 2966   4.516   2.593   3.544  0.4862 -0.0505  0.0145
  741EOH      C 2967   4.620   2.542   3.460 -0.2092 -0.3239 -0.6798
  741EOH      C 2968   4.584   2.397   3.423 -0.4146 -0.4531  0.0207
  741EOH      H 2969   4.513   2.688   3.545 -0.6801 -0.0975  1.0439
  742EOH      O 2970   3.029   0.778   4.371  0.0237  0.6525 -0.5248
  742EOH      C 2971   2.894   0.779   4.325 -0.2015 -0.2970  0.1094
  742EOH      C 2972   2.844   0.923   4.343  0.8058  0.0720 -0.0417
  742EOH      H 2973   3.032   0.779   4.465 -0.0963 -1.9403 -0.4677
  743EOH      O 2974   2.596   3.962   1.223 -0.4296 -0.0320 -0.3887
  743EOH      C 2975   2.566   3.986   1.361  0.4230 -0.4895 -0.1183
  743EOH      C 2976   2.555   4.135   1.399 -0.2407 -0.4372 -0.5136
  743EOH      H 2977   2.681   4.003   1.212 -0.4645  0.5185  1.2567
  744EOH      O 2978   2.528   3.225   6.199 -0.1952 -0.4428 -0.1381
  744EOH      C 2979   2.443   3.338   6.178 -0.1483 -0.3641  0.0927
  744EOH      C 2980   2.297   3.291   6.161 -0.3205  0.4190 -0.5989
  744EOH      H 2981   2.560   3.236   6.287 -0.2069  1.1201 -0.3229
  745EOH      O 2982   2.938   5.727   1.773  0.5560 -0.2847 -0.7057
  745EOH      C 2983   3.026   5.829   1.820 -0.1260 -0.0052 -0.0227
  745EOH      C 2984   3.051   5.912   1.692  0.1441  0.1082  0.1022
  745EOH      H 2985   2.912   5.677   1.849  2.1842  0.4158  0.3422
  746EOH      O 2986   3.277   6.101   6.404  0.2524 -0.1617  0.7415
  746EOH      C 2987   3.307   6.000   6.308 -0.0280  0.8600 -0.4284
  746EOH      C 2988   3.195   5.917   6.243  0.1409 -0.1275  0.5310
  746EOH      H 2989   3.336   6.081   6.475  1.1286 -0.6320 -0.1191
  747EOH      O 2990   3.243   3.597   7.298  0.5481  0.1694  0.0072
  747EOH      C 2991   3.162   3.710   7.334  0.1319  0.0343 -0.4990
  747EOH      C 2992   3.011   3.682   7.319  0.0382  0.0764  0.3829
  747EOH      H 2993   3.235   3.582   7.205 -0.8757  1.2978 -0.0900
  748EOH      O 2994   7.072   0.866   2.326 -0.7643 -0.1387 -0.1487
  748EOH      C 2995   7.140   0.982   2.278 -0.3118 -0.4075 -0.1567
  748EOH      C 2996   7.051   1.070   2.188 -0.2870 -0.4619 -0.2342
  748EOH      H 2997   7.064   0.817   2.246 -2.0425  2.9643 -2.0367
  749EOH      O 2998   1.942   5.550   2.216 -0.2005  0.1956  0.4611
  749EOH      C 2999   1.828   5.464   2.224  0.0464 -0.1578  0.2449
  749EOH      C 3000   1.749   5.521   2.344 -0.6045  0.4285 -0.4586
  749EOH      H 3001   2.001   5.509   2.154 -0.7304 -0.9724  0.7063
  750EOH      O 3002   3.162   1.059   7.040  0.5948 -0.1577 -0.7019
  750EOH      C 3003   3.189   0.939   7.112  0.1842  0.1373 -0.0438
  750EOH      C 3004   3.333   0.884   7.102 -0.0790 -0.6354  0.3930
  750EOH      H 3005   3.083   1.096   7.076 -0.7090 -0.9585 -2.6270
  751EOH      O 3006   3.604   2.997   2.202  0.3467 -0.2321 -0.3811
  751EOH      C 3007   3.599   2.924   2.079  0.2815 -0.4222 -0.2645
  751EOH      C 3008   3.456   2.881   2.044  0.0619  0.0875  0.0057
  751EOH      H 3009   3.623   3.087   2.177 -1.1464 -0.4222 -2.3661
  752EOH      O 3010   2.304   4.697   2.865  0.0488 -0.0709 -0.4299
  752EOH      C 3011   2.215   4.601   2.923 -0.1043  0.1700 -0.2651
  752EOH      C 3012   2.255   4.593   3.072 -0.5297  0.4118 -0.1396
  752EOH      H 3013   2.292   4.690   2.771 -5.2329  0.2346  0.0666
  753EOH      O 3014   2.204   6.809   5.897  0.1607 -0.3538  0.5634
  753EOH      C 3015   2.279   6.930   5.886 -0.3113 -0.0981  0.1354
  753EOH      C 3016   2.259   7.003   5.752 -0.2312  0.0966  0.2284
  753EOH      H 3017   2.254   6.755   5.957  0.0484  0.3148  1.2564
  754EOH      O 3018   3.253   4.436   4.732  0.3781  0.3111  0.4185
  754EOH      C 3019   3.277   4.307   4.791 -0.5326  0.0671  0.2664
  754EOH      C 3020   3.172   4.208   4.739 -0.4272  0.1738 -0.1558
  754EOH      H 3021   3.296   4.501   4.785  2.4395 -1.2238  0.6985
  755EOH      O 3022   5.720   7.631   4.047  0.1948 -0.0508  0.1505
  755EOH      C 3023   5.817   7.618   4.152  0.2005  0.5304  0.2209
  755EOH      C 3024   5.895   7.487   4.132  0.2566  0.5289  0.4494
  755EOH      H 3025   5.756   7.708   4.005  1.9894  0.1832  1.9993
  756EOH      O 3026   1.218   1.924   7.478 -0.6776 -0.2677  0.4044
  756EOH      C 3027   1.187   1.789   7.514 -0.3961 -0.4206  0.0747
  756EOH      C 3028   1.043   1.781   7.569 -0.4415  0.4223  0.0790
  756EOH      H 3029   1.311   1.938   7.479 -1.1569  3.4852  2.3949
  757EOH      O 3030   1.450   4.904   0.843 -0.1709  0.0904 -0.3462
  757EOH      C 3031   1.577   4.878   0.783  0.0402  0.7166 -0.1754
  757EOH      C 3032   1.666   5.001   0.811 -0.0526  0.8173 -0.3219
  757EOH      H 3033   1.456   4.898   0.938 -0.7673  2.6376 -0.1197
  758EOH      O 3034   3.083   0.811   4.819 -0.0421 -0.0135 -0.5132
  758EOH      C 3035   3.020   0.881   4.927  0.4094 -0.2857 -0.0703
  758EOH      C 3036   2.985   0.777   5.035 -1.1267 -0.3835 -0.6496
  758EOH      H 3037   3.177   0.810   4.830  0.0451  0.1382 -1.2255
  759EOH      O 3038   1.707   3.472   2.926 -0.3864 -0.6351  0.5592
  759EOH      C 3039   1.712   3.381   2.816 -0.3111  0.1589 -0.0905
  759EOH      C 3040   1.568   3.348   2.775 -0.2824  0.1715 -0.2031
  759EOH      H 3041   1.796   3.492   2.950 -0.5580  0.2234  0.4769
  760EOH      O 3042   0.316   6.427   1.125  0.1257 -0.4291  0.1786
  760EOH      C 3043   0.209   6.512   1.083  0.4970 -0.2694 -0.4602
  760EOH      C 3044   0.244   6.655   1.038 -0.1813  0.1547  0.3370
  760EOH      H 3045   0.288   6.390   1.207  0.5991 -1.5629 -0.1490
  761EOH      O 3046   2.358   6.755   7.812  0.2125 -0.0343  0.7734
  761EOH      C 3047   2.476   6.675   7.805  0.0424 -0.2443  0.2674
  761EOH      C 3048   2.605   6.755   7.783  0.2429 -0.5508  0.3187
  761EOH      H 3049   2.377   6.843   7.782  1.6121 -1.0951 -1.6540
  762EOH      O 3050   5.051   3.496   3.954  0.1828  0.4473 -0.3627
  762EOH      C 3051   5.184   3.480   4.005 -0.1400 -0.2366  0.2789
  762EOH      C 3052   5.230   3.602   4.086  0.1832 -0.2560  0.1250
  762EOH      H 3053   5.009   3.413   3.938 -0.7389  0.3486  2.2351
  763EOH      O 3054   4.977   2.158   4.032  0.1063 -0.3632  0.1345
  763EOH      C 3055   4.911   2.255   4.114  0.2034  0.0208 -0.2411
  763EOH      C 3056   4.933   2.385   4.034  0.2546  0.1266 -0.0580
  763EOH      H 3057   4.954   2.163   3.941 -0.0905 -0.6624  0.1650
  764EOH      O 3058   3.120   1.485   6.254  0.1476 -0.2419 -0.0824
  764EOH      C 3059   3.166   1.437   6.381 -0.5741  0.4064  0.4319
  764EOH      C 3060   3.281   1.339   6.351 -0.2021  0.8948  0.2525
  764EOH      H 3061   3.183   1.549   6.228  0.6290 -0.7909 -0.2826
  765EOH      O 3062   2.832   3.337   3.756 -0.5579  0.5882 -0.0785
  765EOH      C 3063   2.814   3.258   3.638 -0.3034 -0.1004  0.3380
  765EOH      C 3064   2.696   3.325   3.565 -0.0683  0.2843  0.3086
  765EOH      H 3065   2.877   3.419   3.741  1.8368 -0.3717  1.6199
  766EOH      O 3066   5.406   0.310   3.984  0.0055 -0.1882 -0.4784
  766EOH      C 3067   5.458   0.435   3.937 -0.3391  0.1167 -0.0488
  766EOH      C 3068   5.610   0.430   3.957 -0.3476  0.0450 -0.0058
  766EOH      H 3069   5.314   0.321   4.000  0.6429  2.2142  1.9863
  767EOH      O 3070   1.827   3.521   1.127 -0.2560  0.3582  0.0493
  767EOH      C 3071   1.817   3.386   1.080  0.2326  0.3666 -0.0771
  767EOH      C 3072   1.918   3.292   1.149 -0.3354  0.2247  0.5616
  767EOH      H 3073   1.785   3.514   1.212 -0.0482 -2.4116 -0.0174
  768EOH      O 3074   7.291   6.172   3.541 -0.6021  0.5917  0.0123
  768EOH      C 3075   7.204   6.078   3.478 -0.4211  0.1698  0.3855
  768EOH      C 3076   7.247   5.936   3.516  0.0493  0.1652 -0.1520
  768EOH      H 3077   7.302   6.234   3.470  0.6454  0.5989  0.1974
  769EOH      O 3078   2.479   7.591   5.965 -0.1466 -0.3585  0.0857
  769EOH      C 3079   2.585   7.532   6.041 -0.2352 -0.3116  0.2474
  769EOH      C 3080   2.710   7.553   5.953 -0.1862 -0.4377  0.2865
  769EOH      H 3081   2.453   7.542   5.889  3.0425 -0.6140 -0.9142
  770EOH      O 3082   7.649   1.915   1.010 -0.4749  0.1137  0.1706
  770EOH      C 3083   7.701   2.047   0.992  0.2740 -0.1181  0.6531
  770EOH      C 3084   7.666   2.101   0.853  0.5229 -0.3324  0.5050
  770EOH      H 3085   7.633   1.907   1.103  0.8812 -0.8284  0.3324
  771EOH      O 3086   2.492   6.949   4.990  0.0150 -0.1382 -0.3362
  771EOH      C 3087   2.621   6.889   4.994 -0.0220 -0.1981  0.0137
  771EOH      C 3088   2.717   6.993   5.055 -0.1842 -0.2015  0.2728
  771EOH      H 3089   2.433   6.886   4.951 -0.6715 -0.1828  0.7548
  772EOH      O 3090   3.273   5.091   1.220 -0.0642  0.1608 -0.2314
  772EOH      C 3091   3.413   5.115   1.204 -0.0187 -0.3101 -0.5625
  772EOH      C 3092   3.448   5.203   1.082 -0.0594  0.2290 -0.1862
  772EOH      H 3093   3.254   5.014   1.168 -2.6799  2.5685 -3.0960
  773EOH      O 3094   0.949   0.723   5.396  0.0677  0.6250  0.6880
  773EOH      C 3095   0.960   0.583   5.371  0.4418  0.6616  0.6426
  773EOH      C 3096   1.018   0.514   5.496 -0.0906  0.6757  0.9003
  773EOH      H 3097   0.995   0.760   5.322 -1.6902 -1.1162 -1.3201
  774EOH      O 3098   2.740   4.679   6.985  0.1215  0.0342 -0.2006
  774EOH      C 3099   2.694   4.679   6.850 -0.2281  0.3831 -0.0837
  774EOH      C 3100   2.763   4.796   6.778 -0.4782  0.5013 -0.1321
  774EOH      H 3101   2.697   4.609   7.032  0.7465 -0.2673 -0.0729
  775EOH      O 3102   2.493   7.000   6.261  0.0479 -0.2363 -0.1474
  775EOH      C 3103   2.529   7.131   6.215 -0.4178  0.0029  0.1655
  775EOH      C 3104   2.584   7.226   6.323 -0.1294  0.0201  0.0035
  775EOH      H 3105   2.561   6.961   6.314 -0.9340  1.2562  2.3077
  776EOH      O 3106   2.083   7.879   7.765  0.1722 -0.0794  0.0572
  776EOH      C 3107   2.045   7.870   7.627 -0.9480 -0.3058  0.3735
  776EOH      C 3108   2.092   7.734   7.574 -0.2623 -0.0445  0.3117
  776EOH      H 3109   2.107   7.966   7.793 -1.3700 -0.5288  3.0115
  777EOH      O 3110   3.547   2.396   5.920  0.3440 -0.0908  0.5529
  777EOH      C 3111   3.511   2.506   6.005 -0.0097  0.4778 -0.3300
  777EOH      C 3112   3.516   2.443   6.145  0.0391  0.0365 -0.5278
  777EOH      H 3113   3.599   2.431   5.849  1.7218 -0.7562  1.2106
  778EOH      O 3114   1.307   7.049   3.080 -0.1733  0.2953  0.0419
  778EOH      C 3115   1.450   7.045   3.087 -0.2120 -0.7363  0.2442
  778EOH      C 3116   1.491   7.098   3.226 -0.1846 -0.1073 -0.0029
  778EOH      H 3117   1.278   7.138   3.095 -1.3103 -0.0569 -0.0426
  779EOH      O 3118   0.635   1.716   1.692  0.2033  0.6197  0.6254
  779EOH      C 3119   0.497   1.738   1.725 -0.1654  0.2324 -0.6290
  779EOH      C 3120   0.416   1.619   1.671 -0.0281 -0.1487  0.0116
  779EOH      H 3121   0.676   1.800   1.689  0.2046  0.6854  2.0276
  780EOH      O 3122   2.354   0.716   4.200 -0.2957  0.4678 -0.0154
  780EOH      C 3123   2.385   0.607   4.112  0.6767  0.6949  0.0453
  780EOH      C 3124   2.486   0.509   4.175 -0.5431 -0.3599  0.3834
  780EOH      H 3125   2.289   0.772   4.160  0.5951  2.4164  1.2511
  781EOH      O 3126   0.550   0.687   7.486  0.5069  0.5019  0.0965
  781EOH      C 3127   0.424   0.753   7.498  0.2425 -0.0130  0.1619
  781EOH      C 3128   0.431   0.889   7.570  0.0829 -0.0209  0.1926
  781EOH      H 3129   0.529   0.604   7.526  0.3655  0.2863 -0.4297
  782EOH      O 3130   1.447   6.667   4.037 -0.3479  0.9331  0.1610
  782EOH      C 3131   1.495   6.737   3.922 -0.0078  0.1211 -0.1957
  782EOH      C 3132   1.646   6.713   3.910 -0.0392 -0.1286 -0.0731
  782EOH      H 3133   1.355   6.692   4.038 -1.7559 -3.7393 -0.9289
  783EOH      O 3134   4.980   3.157   4.560  0.2183  0.7200  0.6657
  783EOH      C 3135   4.850   3.213   4.577 -0.2539 -0.2373  0.2553
  783EOH      C 3136   4.850   3.336   4.670 -0.1244  0.3219 -0.4784
  783EOH      H 3137   5.039   3.208   4.506 -1.0976  0.4318 -1.1109
  784EOH      O 3138   1.732   3.383   6.919  0.2644 -0.2495  0.0415
  784EOH      C 3139   1.600   3.402   6.970  0.3237 -0.2337  0.1865
  784EOH      C 3140   1.593   3.508   7.082  0.6140  0.0501 -0.0607
  784EOH      H 3141   1.754   3.455   6.861 -0.8406  0.5767  0.6339
  785EOH      O 3142   2.382   0.391   0.255  0.2874 -0.1935 -0.3085
  785EOH      C 3143   2.492   0.371   0.344 -0.4583 -0.3109  0.6034
  785EOH      C 3144   2.618   0.316   0.275 -0.4166  0.2940  0.1936
  785EOH      H 3145   2.303   0.415   0.301  0.2389 -0.4712 -0.2425
  786EOH      O 3146   6.425   0.697   2.483  0.6521  0.5457 -0.2550
  786EOH      C 3147   6.511   0.583   2.480 -0.2252 -0.1309  0.1692
  786EOH      C 3148   6.616   0.604   2.369  0.3158  0.1880  0.7363
  786EOH      H 3149   6.468   0.771   2.523  0.8443  0.0646  0.4232
  787EOH      O 3150   0.625   0.543   2.511  0.3074 -0.4286 -0.1338
  787EOH      C 3151   0.689   0.449   2.597  0.0952 -0.2798  0.1861
  787EOH      C 3152   0.842   0.464   2.606  0.1627 -0.8505  0.0051
  787EOH      H 3153   0.635   0.625   2.557 -2.9658 -1.1471  2.0595
  788EOH      O 3154   2.657   6.559   5.750 -0.4115 -0.3910 -0.7993
  788EOH      C 3155   2.599   6.640   5.648 -0.7772  0.3571 -0.0023
  788EOH      C 3156   2.697   6.752   5.605 -0.5094  0.1675  0.1141
  788EOH      H 3157   2.652   6.609   5.829 -2.6778 -0.6346 -0.7450
  789EOH      O 3158   0.186   0.847   6.019  0.6836 -0.4793 -0.0639
  789EOH      C 3159   0.177   0.986   6.054 -0.7169 -0.4668 -0.4496
  789EOH      C 3160   0.247   1.067   5.944 -0.0293 -0.1659  0.2123
  789EOH      H 3161   0.146   0.789   6.083  2.2257 -3.1206 -1.4234
  790EOH      O 3162   4.199   6.452   3.510  0.1412  0.2977 -0.3777
  790EOH      C 3163   4.264   6.339   3.568 -0.4990  0.2808  0.3190
  790EOH      C 3164   4.344   6.257   3.465  0.2663 -0.0067  1.1426
  790EOH      H 3165   4.188   6.431   3.419  1.3679  1.5513 -0.8259
  791EOH      O 3166   5.075   1.667   6.420  0.0956 -0.4443  0.4309
  791EOH      C 3167   5.102   1.657   6.560  0.1042 -0.4024  0.4323
  791EOH      C 3168   5.228   1.731   6.610  0.4274 -0.0775 -0.8610
  791EOH      H 3169   4.986   1.638   6.413 -0.5376  1.7509 -1.0958
  792EOH      O 3170   3.261   3.983   5.159  0.3176  0.2560 -0.0442
  792EOH      C 3171   3.236   3.922   5.032  0.2060  0.8772 -0.3244
  792EOH      C 3172   3.370   3.873   4.973  0.1060  0.0998  0.0819
  792EOH      H 3173   3.178   3.995   5.205  0.4734 -1.6949  0.8094
  793EOH      O 3174   2.049   1.134   4.457  0.1754 -0.5306 -0.6016
  793EOH      C 3175   2.180   1.165   4.506  0.0620  0.0484 -0.6577
  793EOH      C 3176   2.188   1.317   4.527 -0.5351 -0.0340  0.2303
  793EOH      H 3177   2.001   1.135   4.538  0.1323  0.9953 -0.6239
  794EOH      O 3178   5.454   6.240   4.147 -0.1503  0.3520  0.0026
  794EOH      C 3179   5.533   6.234   4.266 -0.0323 -0.4834 -0.1151
  794EOH      C 3180   5.624   6.357   4.288 -0.3907 -0.1585 -0.4382
  794EOH      H 3181   5.417   6.327   4.142 -1.1968 -0.1325 -0.9412
  795EOH      O 3182   2.586   3.093   4.340  0.1485 -0.6102  0.2726
  795EOH      C 3183   2.465   3.106   4.414  0.0529 -0.0498  0.0236
  795EOH      C 3184   2.436   2.989   4.511  0.4603 -0.0760  0.1137
  795EOH      H 3185   2.568   3.077   4.248 -1.0313 -0.9871  0.5726
  796EOH      O 3186   4.213   6.003   0.642 -0.2975 -0.0761 -0.0378
  796EOH      C 3187   4.319   5.917   0.682  0.0389  0.4577  0.2283
  796EOH      C 3188   4.244   5.799   0.746 -0.1348  0.3166 -0.2369
  796EOH      H 3189   4.222   6.018   0.549 -2.2198 -2.2457 -0.6083
  797EOH      O 3190   1.965   6.217   4.572 -0.4166  0.5449  0.2575
  797EOH      C 3191   2.089   6.276   4.611  0.0660 -0.2178 -0.1170
  797EOH      C 3192   2.063   6.403   4.695  0.0841 -0.3030  0.0165
  797EOH      H 3193   1.914   6.194   4.649  0.3862 -0.1246  0.5966
  798EOH      O 3194   3.638   7.035   4.614 -0.4988 -0.0277 -0.0671
  798EOH      C 3195   3.762   7.106   4.623 -0.6559  0.2155  0.1702
  798EOH      C 3196   3.764   7.193   4.751 -0.2030  0.2813  0.1219
  798EOH      H 3197   3.647   6.988   4.533 -2.2298 -0.7191  0.1190
  799EOH      O 3198   2.751   1.828   1.365 -0.2905  0.1632  0.0766
  799EOH      C 3199   2.785   1.712   1.289 -0.0708  0.3322 -0.0813
  799EOH      C 3200   2.796   1.732   1.136 -0.0092 -0.0274 -0.1234
  799EOH      H 3201   2.791   1.823   1.451  0.2220 -2.2081 -0.2647
  800EOH      O 3202   1.983   4.571   0.626 -0.6190  0.3217 -0.0246
  800EOH      C 3203   1.916   4.678   0.559 -0.5304  0.0160 -0.6018
  800EOH      C 3204   2.015   4.791   0.528 -0.4887 -0.0119 -0.5675
  800EOH      H 3205   1.919   4.503   0.635 -0.1751  0.0481  1.1407
  801EOH      O 3206   2.410   7.787   6.513 -0.1462 -0.1270  0.0218
  801EOH      C 3207   2.352   7.789   6.382 -0.3419 -0.1920  0.1057
  801EOH      C 3208   2.355   7.648   6.320 -0.2854 -0.2006  0.1284
  801EOH      H 3209   2.415   7.700   6.550  0.7364 -0.6155 -1.2146
  802EOH      O 3210   4.689   2.769   5.974 -0.6048 -0.4999 -0.6490
  802EOH      C 3211   4.784   2.820   5.880 -0.0311 -0.0982  0.1399
  802EOH      C 3212   4.874   2.705   5.829  0.3097  0.4202 -0.4343
  802EOH      H 3213   4.634   2.844   5.991  0.1641  0.2349 -1.3843
  803EOH      O 3214   5.718   6.807   4.203  0.4605 -0.0948  0.0707
  803EOH      C 3215   5.688   6.744   4.328  0.1827 -0.2126 -0.0565
  803EOH      C 3216   5.673   6.848   4.440  0.0516 -0.5349  0.2288
  803EOH      H 3217   5.648   6.867   4.184  1.2018  0.6433 -0.3671
  804EOH      O 3218   1.582   1.555   1.559 -0.1196  0.4263  0.1177
  804EOH      C 3219   1.673   1.445   1.547  0.0418  0.6214 -0.4346
  804EOH      C 3220   1.626   1.325   1.631  0.2229  0.6810 -0.2499
  804EOH      H 3221   1.593   1.611   1.484 -2.3413  1.2825  0.3918
  805EOH      O 3222   2.278   7.041   1.299 -0.2096  0.5124  0.5444
  805EOH      C 3223   2.356   6.940   1.364 -0.1175 -0.1963 -0.6359
  805EOH      C 3224   2.271   6.885   1.480 -0.0807 -0.3176 -0.6662
  805EOH      H 3225   2.253   7.109   1.359 -0.9406  2.1461 -1.5674
  806EOH      O 3226   4.602   5.742   5.092 -0.0034 -0.2096 -0.0595
  806EOH      C 3227   4.570   5.605   5.065  0.4938 -0.4289  0.4556
  806EOH      C 3228   4.536   5.588   4.916  1.0152  0.0258  0.2835
  806EOH      H 3229   4.614   5.755   5.185  0.2158 -0.8102 -0.0035
  807EOH      O 3230   2.127   5.358   4.450  0.5601  0.8472 -0.4889
  807EOH      C 3231   2.029   5.426   4.369 -0.3469  0.1925  0.0500
  807EOH      C 3232   1.896   5.417   4.446 -0.2533  0.5630  0.2585
  807EOH      H 3233   2.207   5.362   4.400  0.0867  1.8325 -1.2101
  808EOH      O 3234   1.273   5.430   3.069 -0.2348 -0.0025  0.7102
  808EOH      C 3235   1.158   5.420   2.984  0.4114 -0.0015 -0.1614
  808EOH      C 3236   1.024   5.382   3.048  0.5515  0.3145  0.3225
  808EOH      H 3237   1.299   5.521   3.059 -0.5741  0.3705  2.9330
  809EOH      O 3238   3.335   1.085   7.637 -0.3030 -0.4927  0.1120
  809EOH      C 3239   3.192   1.091   7.645 -0.2927 -0.3551  0.2023
  809EOH      C 3240   3.137   1.083   7.501  0.1016 -0.6984  0.0695
  809EOH      H 3241   3.370   1.128   7.714  1.8225  0.5769 -1.4032
  810EOH      O 3242   2.819   5.306   4.798 -0.0079  0.1984 -0.4938
  810EOH      C 3243   2.830   5.179   4.732  0.8934  0.1696 -0.2987
  810EOH      C 3244   2.831   5.079   4.849  0.0436  0.0507 -0.3847
  810EOH      H 3245   2.907   5.332   4.818  0.3436 -0.7022 -0.8423
  811EOH      O 3246   0.401   1.965   2.548  0.1995 -0.2442  0.4212
  811EOH      C 3247   0.516   1.997   2.627 -0.0053  0.3652  0.4805
  811EOH      C 3248   0.644   1.960   2.549 -0.3365  0.7028 -0.2219
  811EOH      H 3249   0.327   1.978   2.606 -0.0577  1.7933 -0.3123
  812EOH      O 3250   3.357   5.114   4.540  0.1730  0.0870 -0.2592
  812EOH      C 3251   3.219   5.147   4.559  0.2391  0.0822  0.2204
  812EOH      C 3252   3.145   5.077   4.444  0.4497 -0.4265  0.3917
  812EOH      H 3253   3.400   5.135   4.621  1.1644  1.2108 -1.0568
  813EOH      O 3254   2.786   2.103   0.992 -0.1818 -0.1283  0.1735
  813EOH      C 3255   2.821   2.212   0.905  0.1470 -0.4247 -0.0667
  813EOH      C 3256   2.971   2.189   0.878  0.2346  0.1683 -0.0892
  813EOH      H 3257   2.813   2.135   1.077 -2.4641  2.4721  0.0014
  814EOH      O 3258   2.274   3.930   7.442  0.1837 -0.1491  0.4156
  814EOH      C 3259   2.401   3.995   7.436 -0.1085  0.3849 -0.0592
  814EOH      C 3260   2.506   3.893   7.386  0.0232  0.1975  0.5947
  814EOH      H 3261   2.232   3.949   7.525  1.1129 -2.5985  1.4794
  815EOH      O 3262   1.635   2.756   6.959  0.3634  0.0071 -0.0942
  815EOH      C 3263   1.642   2.616   6.932 -0.6517 -0.0220 -0.2276
  815EOH      C 3264   1.556   2.563   7.048 -0.3945  0.2647  0.0961
  815EOH      H 3265   1.597   2.803   6.887 -1.4302 -1.6364 -0.2510
  816EOH      O 3266   0.258   1.096   2.993 -0.4514  0.0577 -0.5182
  816EOH      C 3267   0.140   1.136   2.922 -0.4428  0.0014 -0.5640
  816EOH      C 3268   0.139   1.290   2.923 -0.1895 -0.0004  0.3892
  816EOH      H 3269   0.258   1.003   3.005 -0.4693  0.1378  0.1253
  817EOH      O 3270   0.471   2.482   3.689 -0.0202 -0.2978  0.0687
  817EOH      C 3271   0.367   2.529   3.603 -0.2160  0.8343  0.9205
  817EOH      C 3272   0.421   2.643   3.515 -0.1539  0.1714  0.0999
  817EOH      H 3273   0.504   2.550   3.745 -1.6971  0.5453  0.0750
  818EOH      O 3274   4.308   2.023   4.389  0.2447  0.1827 -0.7832
  818EOH      C 3275   4.225   2.137   4.369 -0.3999 -0.1257  0.0884
  818EOH      C 3276   4.269   2.256   4.456 -0.1908 -0.3110  0.2379
  818EOH      H 3277   4.283   1.963   4.321  1.4357  0.4797 -1.4946
  819EOH      O 3278   4.326   4.404   5.536 -0.0974  0.5072  0.2922
  819EOH      C 3279   4.289   4.327   5.421  0.5023  0.4335  0.1465
  819EOH      C 3280   4.164   4.398   5.366  0.0039 -0.3944  0.1883
  819EOH      H 3281   4.420   4.414   5.536  0.0412 -0.5814 -1.3553
  820EOH      O 3282   3.187   2.172   6.045  0.8542  0.1165  0.4585
  820EOH      C 3283   3.156   2.299   5.986  0.0164 -0.1917  0.2220
  820EOH      C 3284   3.096   2.281   5.846  0.0932 -0.1968  0.1887
  820EOH      H 3285   3.280   2.158   6.032 -0.0968 -3.2267 -4.0742
  821EOH      O 3286   3.342   5.941   7.220  0.3888  0.2545  0.1944
  821EOH      C 3287   3.204   5.966   7.245  0.3627  1.1229 -0.8297
  821EOH      C 3288   3.119   5.983   7.117 -0.1875  0.0852 -0.6029
  821EOH      H 3289   3.390   5.922   7.300 -1.4837 -1.3733  0.9892
  822EOH      O 3290   4.257   2.540   3.607  0.5637  0.0200  0.2372
  822EOH      C 3291   4.203   2.647   3.685 -0.2108 -0.2177  0.0340
  822EOH      C 3292   4.109   2.734   3.599  0.3572  0.0766 -0.2918
  822EOH      H 3293   4.347   2.563   3.592  0.9142 -0.4759  1.4910
  823EOH      O 3294   1.821   4.132   6.074 -0.7934  0.8816  0.3890
  823EOH      C 3295   1.924   4.173   5.984 -0.4599 -0.1932  0.2734
  823EOH      C 3296   2.059   4.134   6.047 -0.1046  0.1229 -0.2897
  823EOH      H 3297   1.762   4.203   6.097 -1.5208  0.2712  0.4242
  824EOH      O 3298   2.171   0.204   7.803  0.0277 -0.5783  0.4537
  824EOH      C 3299   2.311   0.230   7.799 -0.0671 -0.1087  0.1707
  824EOH      C 3300   2.360   0.204   7.656  0.1412 -0.5166  0.3173
  824EOH      H 3301   2.125   0.284   7.781 -2.3557 -2.3423 -1.2663
  825EOH      O 3302   1.322   3.947   6.822  0.5196  0.4038 -0.5151
  825EOH      C 3303   1.367   3.887   6.700  0.1718  0.3399 -0.6115
  825EOH      C 3304   1.289   3.766   6.644 -0.3397  0.5333 -0.3157
  825EOH      H 3305   1.331   3.881   6.889 -1.6907  0.5305 -0.0763
  826EOH      O 3306   3.184   2.211   4.854  0.0216 -0.0831 -0.0772
  826EOH      C 3307   3.280   2.148   4.769  0.0796 -0.1723  0.0547
  826EOH      C 3308   3.422   2.192   4.809 -0.1894  0.3667  0.4105
  826EOH      H 3309   3.189   2.171   4.939 -1.4031  1.0711  0.5709
  827EOH      O 3310   2.648   0.057   2.511 -0.5076  0.0553  0.4883
  827EOH      C 3311   2.565   0.173   2.504 -0.5480 -0.0097 -0.1335
  827EOH      C 3312   2.622   0.301   2.439  0.2301 -0.2364  0.0911
  827EOH      H 3313   2.598  -0.021   2.531  0.4376  0.0804  3.0854
  828EOH      O 3314   6.492   6.188   3.941  0.2469 -0.1645 -0.2219
  828EOH      C 3315   6.363   6.230   3.985  0.3938  0.5093 -0.4364
  828EOH      C 3316   6.353   6.151   4.117  0.4493  0.0770 -0.6902
  828EOH      H 3317   6.563   6.242   3.973  0.7523 -0.0753 -1.4556
  829EOH      O 3318   3.108   1.741   3.332 -0.0150 -0.0649  0.3541
  829EOH      C 3319   3.060   1.607   3.346  0.1814 -0.1412  0.2959
  829EOH      C 3320   2.983   1.603   3.479 -0.5171 -0.4042 -0.1174
  829EOH      H 3321   3.198   1.748   3.359  0.3987 -0.8432 -0.7628
  830EOH      O 3322   2.604   4.631   3.815 -0.2282  0.2447 -0.4395
  830EOH      C 3323   2.665   4.508   3.855 -0.5951  0.3147  0.3564
  830EOH      C 3324   2.745   4.549   3.980  0.1409 -0.1771  0.0473
  830EOH      H 3325   2.551   4.624   3.738 -0.0613  1.5661 -0.6954
  831EOH      O 3326   2.341   2.644   0.451 -0.1821  0.4488  0.1989
  831EOH      C 3327   2.320   2.588   0.321  0.4042 -0.6436  0.5631
  831EOH      C 3328   2.168   2.610   0.312  0.5505  0.2471  0.1548
  831EOH      H 3329   2.350   2.571   0.511 -0.6297 -0.5737 -0.9604
  832EOH      O 3330   6.453   0.007   3.864  0.1934  0.2922  0.3173
  832EOH      C 3331   6.350  -0.067   3.799  0.2001  0.0897  0.5385
  832EOH      C 3332   6.257   0.026   3.718 -0.0800 -0.4938  0.1852
  832EOH      H 3333   6.399   0.061   3.920 -2.3432  0.2668 -1.9800
  833EOH      O 3334   1.260   2.008   2.192  0.1274 -0.0525 -0.4969
  833EOH      C 3335   1.356   2.110   2.220 -0.2833  0.0766  0.4212
  833EOH      C 3336   1.450   2.122   2.099 -0.6606 -0.2578  0.0938
  833EOH      H 3337   1.307   1.925   2.189 -1.5785 -1.0597  0.2455
  834EOH      O 3338   1.357   1.756   1.227 -0.0137 -0.3886  0.3223
  834EOH      C 3339   1.260   1.652   1.214  0.1433 -0.4169 -0.6221
  834EOH      C 3340   1.276   1.555   1.332  0.0796  0.1140 -0.1765
  834EOH      H 3341   1.311   1.837   1.211 -0.9362 -0.3498  2.9721
  835EOH      O 3342   3.963   0.543   5.363  0.1510 -0.3052 -0.0838
  835EOH      C 3343   4.000   0.681   5.353 -0.0849 -0.2346  0.0058
  835EOH      C 3344   3.926   0.762   5.461 -0.3184  0.1349 -0.4297
  835EOH      H 3345   3.903   0.519   5.293  1.6469 -2.1672 -0.7660
  836EOH      O 3346   2.731   6.349   5.825  0.4062  0.0503  0.1146
  836EOH      C 3347   2.715   6.352   5.967  0.0861  0.1666  0.0769
  836EOH      C 3348   2.791   6.235   6.032 -0.2259  0.1670  0.4517
  836EOH      H 3349   2.708   6.434   5.789 -1.3189 -0.7157 -0.6350
  837EOH      O 3350   1.408   7.519   3.562 -0.4161 -0.1243 -0.2774
  837EOH      C 3351   1.471   7.492   3.437  0.5722  0.2117  0.1467
  837EOH      C 3352   1.614   7.543   3.465  0.6198  0.0666  0.1653
  837EOH      H 3353   1.354   7.442   3.573  0.7857 -1.1809 -1.5003
  838EOH      O 3354   4.199   4.369   4.412 -0.3545 -0.2571 -0.1499
  838EOH      C 3355   4.224   4.285   4.526 -0.9107  0.6508  0.6506
  838EOH      C 3356   4.340   4.342   4.610  0.3021 -0.2596 -0.3922
  838EOH      H 3357   4.269   4.348   4.351 -0.9475 -1.0164 -0.5763
  839EOH      O 3358   1.219   0.964   0.913  0.1273  0.2587 -0.1693
  839EOH      C 3359   1.085   0.943   0.868 -0.0794  0.4161  0.3645
  839EOH      C 3360   0.984   0.950   0.984  0.0055  0.7185  0.4216
  839EOH      H 3361   1.228   1.058   0.916 -0.8469  0.4125 -1.5801
  840EOH      O 3362   1.903   6.073   7.141  0.0068  0.0245 -0.6320
  840EOH      C 3363   2.039   6.068   7.097  0.3694 -0.6180  0.5458
  840EOH      C 3364   2.031   6.057   6.944 -0.1600  0.0070  0.5248
  840EOH      H 3365   1.891   6.003   7.203 -2.3680 -0.9829 -2.1758
  841EOH      O 3366   3.379   2.567   4.652 -0.3478  0.4053  0.6768
  841EOH      C 3367   3.379   2.531   4.514 -0.0931  0.2477  0.7171
  841EOH      C 3368   3.418   2.664   4.447 -0.2428  0.0229  0.1800
  841EOH      H 3369   3.305   2.522   4.690 -0.1176 -0.7305 -0.1893
  842EOH      O 3370   1.360   1.777   2.153  0.1184 -0.0872 -0.0001
  842EOH      C 3371   1.336   1.665   2.238 -0.0965  0.2698  0.4100
  842EOH      C 3372   1.193   1.611   2.220 -0.0941  0.5224 -0.3936
  842EOH      H 3373   1.441   1.758   2.107  0.4789  0.0075  0.5967
  843EOH      O 3374   1.657   5.188   7.882 -0.0458  0.0438  0.8922
  843EOH      C 3375   1.769   5.197   7.794 -0.6966 -0.0749  0.0418
  843EOH      C 3376   1.755   5.085   7.690  0.5808 -0.1770 -0.0283
  843EOH      H 3377   1.684   5.127   7.949 -0.0551 -1.9449 -0.8613
  844EOH      O 3378   3.819   3.886   5.096 -0.4566 -0.0200  0.2039
  844EOH      C 3379   3.825   3.951   4.968 -0.4671  0.0699  0.2493
  844EOH      C 3380   3.786   3.856   4.853 -0.8243 -0.1529  0.5498
  844EOH      H 3381   3.780   3.942   5.160  1.4359  1.1671  0.3616
  845EOH      O 3382   3.889   4.822   5.151  0.5230  0.1376 -0.6931
  845EOH      C 3383   4.021   4.875   5.165  0.5448 -0.0718 -0.0965
  845EOH      C 3384   4.067   4.870   5.312 -0.0388  0.2837  0.0996
  845EOH      H 3385   3.859   4.826   5.062 -0.2502  3.2538 -0.3636
  846EOH      O 3386   7.277   7.756   2.695  0.1012 -0.0734 -0.3594
  846EOH      C 3387   7.201   7.654   2.630 -0.4960  0.2628 -0.1928
  846EOH      C 3388   7.296   7.553   2.562 -0.0570  0.4112  0.2012
  846EOH      H 3389   7.275   7.732   2.786 -0.3652 -1.2314 -0.6659
  847EOH      O 3390   3.906   2.743   4.487 -0.2342  0.4662  0.2434
  847EOH      C 3391   3.825   2.847   4.543 -0.4359  0.4012  0.0713
  847EOH      C 3392   3.874   2.896   4.680 -0.1906 -0.4621  0.2937
  847EOH      H 3393   3.880   2.665   4.533  0.2061  0.2517  0.1249
  848EOH      O 3394   1.002   6.877   1.687  0.1916  0.0799 -0.2597
  848EOH      C 3395   0.877   6.883   1.618 -0.1930  0.6465  0.4730
  848EOH      C 3396   0.890   6.992   1.509  0.2957  0.5050  0.3887
  848EOH      H 3397   1.000   6.806   1.750 -0.1897  0.8007  0.5459
  849EOH      O 3398   1.827   7.580   7.828  0.3117  0.0085 -0.3044
  849EOH      C 3399   1.789   7.504   7.712 -0.1024  0.0172 -0.1754
  849EOH      C 3400   1.702   7.610   7.641  0.0622  0.0578 -0.3165
  849EOH      H 3401   1.874   7.518   7.881 -2.1994 -2.7858 -1.2185
  850EOH      O 3402   2.013   4.650   6.460  0.1654 -0.5860 -0.2889
  850EOH      C 3403   1.891   4.629   6.388  0.0098  0.1066 -0.2298
  850EOH      C 3404   1.812   4.752   6.436  0.5255  0.1941  0.4110
  850EOH      H 3405   2.069   4.693   6.398 -0.7087 -0.8262 -1.2582
  851EOH      O 3406   2.124   0.094   2.783  0.3407 -0.3847  0.0847
  851EOH      C 3407   2.240   0.160   2.835  0.2631 -0.6059  0.5355
  851EOH      C 3408   2.195   0.280   2.919  0.4622  0.3265 -0.6712
  851EOH      H 3409   2.114   0.126   2.694  0.3281  0.1532  0.2793
  852EOH      O 3410   0.862   7.856   7.261  0.3545  0.3470  0.2776
  852EOH      C 3411   0.930   7.791   7.368  0.7794  0.4810  0.0926
  852EOH      C 3412   0.862   7.831   7.500 -0.3391  0.0827 -0.3592
  852EOH      H 3413   0.876   7.950   7.261  1.1449  0.2446 -0.7511
  853EOH      O 3414   4.957   2.911   3.628  0.1447  0.2319  0.6080
  853EOH      C 3415   4.952   2.769   3.614  0.0740  0.3654 -0.8206
  853EOH      C 3416   5.074   2.727   3.531  0.7276  0.7613 -0.0644
  853EOH      H 3417   4.953   2.950   3.542  0.1288 -1.2491 -0.0746
  854EOH      O 3418   4.937   7.090   4.747  0.0839 -0.2701 -0.0243
  854EOH      C 3419   4.800   7.123   4.769  0.2233  0.0134  0.4452
  854EOH      C 3420   4.782   7.274   4.795 -0.2359  0.0522 -0.0918
  854EOH      H 3421   4.949   7.000   4.772  4.2852 -0.1769 -1.2389
  855EOH      O 3422   2.888   1.546   5.648 -0.1834  0.2424  0.0752
  855EOH      C 3423   2.916   1.462   5.536 -0.1614  0.5402 -0.1450
  855EOH      C 3424   2.844   1.326   5.553  0.1997  0.4799  0.9551
  855EOH      H 3425   2.794   1.553   5.648 -0.1070  1.5533  1.2590
  856EOH      O 3426   2.672   4.268   4.738  0.5126  0.0001 -0.1769
  856EOH      C 3427   2.553   4.342   4.708  0.0447 -0.3770  0.7330
  856EOH      C 3428   2.452   4.330   4.823 -0.2559  0.2270  0.5317
  856EOH      H 3429   2.704   4.278   4.826  3.2644 -0.7503 -1.0247
  857EOH      O 3430   4.052   3.578   6.371 -0.3456 -0.4065  0.2340
  857EOH      C 3431   4.068   3.509   6.496  0.0137 -0.5790  0.0925
  857EOH      C 3432   4.129   3.595   6.607  0.3946 -0.7969  0.0523
  857EOH      H 3433   4.113   3.544   6.308  0.4099  2.2837 -0.5502
  858EOH      O 3434   3.518   0.286   5.396 -0.0253 -0.2776  0.0795
  858EOH      C 3435   3.511   0.156   5.456 -0.2195 -0.3426 -0.0848
  858EOH      C 3436   3.646   0.114   5.517  0.2197  0.1915 -0.6710
  858EOH      H 3437   3.431   0.321   5.404  0.2524  0.9092 -1.7976
  859EOH      O 3438   2.416   5.477   7.763  0.5334 -0.0730 -0.1590
  859EOH      C 3439   2.497   5.504   7.877  0.1442 -0.6995  0.2704
  859EOH      C 3440   2.632   5.429   7.877  0.3681 -0.3082 -0.2736
  859EOH      H 3441   2.324   5.491   7.781  0.6100  1.6046 -0.9427
  860EOH      O 3442   6.957   7.470   3.126  0.0417 -0.1385 -0.4685
  860EOH      C 3443   7.093   7.437   3.097  0.4095  0.1932  0.8161
  860EOH      C 3444   7.111   7.289   3.057 -0.4002  0.2839  0.1014
  860EOH      H 3445   6.924   7.415   3.195  1.9159 -1.0101 -0.2265
  861EOH      O 3446   1.993   0.393   7.779 -0.9948 -0.4992 -0.1823
  861EOH      C 3447   1.997   0.533   7.807  0.1434 -0.4671 -0.4644
  861EOH      C 3448   2.139   0.591   7.795  0.1181 -0.2416  0.3010
  861EOH      H 3449   1.919   0.366   7.830 -0.8264 -0.8172 -0.1069
  862EOH      O 3450   3.558   1.813   6.885 -0.2162 -0.0438 -0.0403
  862EOH      C 3451   3.533   1.899   6.774  0.0296  0.2873  0.1596
  862EOH      C 3452   3.405   1.981   6.794 -0.4099 -0.3493 -0.0275
  862EOH      H 3453   3.486   1.751   6.890 -0.2874 -0.1944 -2.6507
  863EOH      O 3454   1.414   4.878   1.098 -0.0368  0.7426 -0.1793
  863EOH      C 3455   1.497   4.853   1.211 -0.5536  0.0274  0.0421
  863EOH      C 3456   1.622   4.781   1.158 -0.2942 -0.1035  0.8238
  863EOH      H 3457   1.344   4.929   1.136 -0.8965 -1.5927  1.4240
  864EOH      O 3458   0.183   0.075   1.967  0.1530 -0.2852  0.6149
  864EOH      C 3459   0.182  -0.001   1.846 -0.1415  0.4955  0.1231
  864EOH      C 3460   0.177  -0.147   1.896  0.2105  0.5264  0.2497
  864EOH      H 3461   0.158   0.164   1.948 -2.4259 -1.0496  0.3360
  865EOH      O 3462   2.841   7.418   7.278  0.1251 -0.0780 -0.4062
  865EOH      C 3463   2.830   7.417   7.421  0.4249  0.4038 -0.3798
  865EOH      C 3464   2.743   7.528   7.484 -0.2410 -0.6339  0.5449
  865EOH      H 3465   2.844   7.508   7.249  2.2105  0.7015  2.0522
  866EOH      O 3466   1.552   0.863   1.751  0.0538 -0.4424 -0.4308
  866EOH      C 3467   1.672   0.885   1.676  0.3203 -0.2362  0.0536
  866EOH      C 3468   1.651   0.876   1.524  0.1528 -0.2837  0.0787
  866EOH      H 3469   1.525   0.773   1.738 -1.1720 -0.3931  1.5772
  867EOH      O 3470   2.788   3.236   7.457 -0.4954  0.8533 -0.2361
  867EOH      C 3471   2.791   3.355   7.377  0.2420  0.6096 -0.5779
  867EOH      C 3472   2.739   3.469   7.467 -0.2250 -0.1126  0.0832
  867EOH      H 3473   2.843   3.247   7.533  2.0083 -2.3763 -1.4636
  868EOH      O 3474   2.933   7.231   6.983 -0.2770 -0.5627  0.4156
  868EOH      C 3475   2.945   7.297   6.857 -0.3841 -0.1551  0.6194
  868EOH      C 3476   3.050   7.228   6.769 -0.7665 -0.0566  0.0816
  868EOH      H 3477   2.881   7.293   7.031 -0.0405  0.8089 -1.0746
  869EOH      O 3478   2.138   4.534   4.397 -0.1604 -0.5441 -0.2516
  869EOH      C 3479   2.167   4.437   4.296 -0.0225 -0.5642 -0.1937
  869EOH      C 3480   2.057   4.329   4.294 -0.0730 -0.5279  0.4324
  869EOH      H 3481   2.058   4.577   4.371 -0.7255 -2.1182 -1.1916
  870EOH      O 3482   6.783   6.686   3.743 -0.2447  0.0277 -0.5763
  870EOH      C 3483   6.720   6.578   3.812 -0.2203  0.0618 -0.5006
  870EOH      C 3484   6.580   6.615   3.862 -0.0638 -0.0285  0.0059
  870EOH      H 3485   6.877   6.673   3.750 -0.0389  2.1525  1.4395
  871EOH      O 3486   1.338   4.980   6.346 -0.0486  0.2771  0.4544
  871EOH      C 3487   1.395   4.874   6.269 -0.1521  0.5411  0.0111
  871EOH      C 3488   1.398   4.895   6.116 -0.3247  0.0348 -0.0637
  871EOH      H 3489   1.275   4.944   6.407 -3.0199  1.5690 -1.7316
  872EOH      O 3490   7.706   3.257   4.175  0.3450  0.3903 -0.1174
  872EOH      C 3491   7.581   3.269   4.108  0.3127 -0.0498 -0.1347
  872EOH      C 3492   7.486   3.358   4.190 -0.1447 -0.5567 -0.1098
  872EOH      H 3493   7.754   3.339   4.177  1.5657 -0.3228  0.7190
  873EOH      O 3494   3.216   3.878   1.017 -0.0734 -0.1134 -0.2403
  873EOH      C 3495   3.327   3.892   1.106 -0.3144  0.2698 -0.0034
  873EOH      C 3496   3.460   3.904   1.030 -0.5330  0.2447 -0.3933
  873EOH      H 3497   3.238   3.838   0.934  0.4692  2.5423 -1.4336
  874EOH      O 3498   3.461   5.889   7.021  0.3061 -0.0437  0.0957
  874EOH      C 3499   3.593   5.932   7.057  0.1317  0.4304  0.1696
  874EOH      C 3500   3.693   5.850   6.974  0.6698  0.0008  1.2352
  874EOH      H 3501   3.404   5.915   7.092  0.0314  0.8303 -0.4322
  875EOH      O 3502   0.198   2.553   1.953 -0.4746 -0.0503  0.6824
  875EOH      C 3503   0.207   2.694   1.971  0.0272  0.0373 -0.1929
  875EOH      C 3504   0.072   2.766   1.983  0.2990  0.6097 -0.5583
  875EOH      H 3505   0.166   2.552   1.864  0.5147  0.6600  0.3076
  876EOH      O 3506   1.039   1.383   3.438 -0.4132  0.1136  0.0867
  876EOH      C 3507   1.125   1.466   3.360  0.1733 -0.7760 -0.2274
  876EOH      C 3508   1.146   1.406   3.221  0.1370 -0.4614 -0.3704
  876EOH      H 3509   0.950   1.409   3.419  0.8999  3.4163 -1.9798
  877EOH      O 3510   0.077   6.693   2.611  0.1320 -0.1717 -0.3655
  877EOH      C 3511   0.089   6.597   2.506  0.1962 -0.5527 -0.0108
  877EOH      C 3512  -0.043   6.537   2.454 -0.1619  0.1764  0.0589
  877EOH      H 3513   0.031   6.651   2.682  1.6314 -0.2142  0.5958
  878EOH      O 3514   0.579   4.904   0.145 -0.0464  0.0337  0.0625
  878EOH      C 3515   0.459   4.966   0.190 -0.0689 -0.0991  0.1851
  878EOH      C 3516   0.494   5.101   0.255 -0.2899 -0.2050  0.5277
  878EOH      H 3517   0.642   4.896   0.215 -0.9567 -2.5356  0.6417
  879EOH      O 3518   0.081   3.418   4.432 -0.0646  0.1269 -0.6553
  879EOH      C 3519   0.154   3.479   4.538 -0.2914 -0.2795 -0.2624
  879EOH      C 3520   0.194   3.614   4.475 -0.7230  0.0573  0.1733
  879EOH      H 3521   0.122   3.334   4.417  0.7897  0.2850  0.7588
  880EOH      O 3522   0.524   4.141   6.710 -0.2718 -0.0345  0.1755
  880EOH      C 3523   0.433   4.204   6.619 -0.1514  0.5163  0.4307
  880EOH      C 3524   0.518   4.309   6.546 -0.3408  0.0654 -0.4516
  880EOH      H 3525   0.484   4.059   6.732  0.4894 -0.4242  0.1366
  881EOH      O 3526   1.307   1.183   1.792  0.2680 -0.0290  0.4043
  881EOH      C 3527   1.306   1.315   1.849 -0.3886  0.0387  0.2324
  881EOH      C 3528   1.260   1.414   1.739 -0.3139  0.1616  0.3125
  881EOH      H 3529   1.373   1.133   1.838 -1.2795 -1.5191  1.0355
  882EOH      O 3530   7.750   2.865   3.477 -0.2432 -0.2187  0.1453
  882EOH      C 3531   7.822   2.757   3.536 -0.1711 -0.0743  0.3218
  882EOH      C 3532   7.928   2.738   3.425 -0.2404  0.0982  0.2264
  882EOH      H 3533   7.727   2.848   3.387 -0.6729  0.2026  0.1737
  883EOH      O 3534   7.483   6.831   3.619  0.2735  0.4831 -0.1459
  883EOH      C 3535   7.602   6.754   3.639  0.0076  0.0436 -0.2297
  883EOH      C 3536   7.560   6.621   3.703  0.6047 -0.2093 -0.3618
  883EOH      H 3537   7.508   6.904   3.565 -0.3261  0.2585 -0.7359
  884EOH      O 3538   2.799   3.221   0.774  0.5140 -0.0085  0.3523
  884EOH      C 3539   2.807   3.307   0.660 -0.4149  0.3681  0.5674
  884EOH      C 3540   2.944   3.377   0.656 -0.0063 -0.4252  0.5589
  884EOH      H 3541   2.727   3.259   0.822  1.3441  0.5538  1.1827
  885EOH      O 3542   1.535   7.350   5.979 -0.4792  0.1753 -0.2250
  885EOH      C 3543   1.577   7.457   5.894  0.0812  0.0174 -0.1429
  885EOH      C 3544   1.645   7.415   5.762  0.2496 -0.4635  0.0941
  885EOH      H 3545   1.611   7.297   5.994 -0.5316 -0.0588 -0.7690
  886EOH      O 3546   3.324   3.436   2.210 -0.7078 -0.2150  0.4846
  886EOH      C 3547   3.217   3.457   2.118 -0.0273 -0.3612 -0.3462
  886EOH      C 3548   3.243   3.578   2.026  0.1827 -0.2220 -0.1035
  886EOH      H 3549   3.332   3.514   2.262  0.5145 -0.7450  1.1075
  887EOH      O 3550   5.116   7.149   3.149 -0.0883 -0.2183 -0.3520
  887EOH      C 3551   5.099   7.274   3.082 -0.3610 -0.1196 -0.0996
  887EOH      C 3552   4.995   7.264   2.969 -0.3553 -0.4881 -0.0704
  887EOH      H 3553   5.182   7.107   3.096 -0.2082 -0.5005 -0.2822
  888EOH      O 3554   2.010   7.834   2.943 -0.6042 -0.6004  0.0673
  888EOH      C 3555   1.870   7.843   2.918 -0.5612 -0.4701 -0.1324
  888EOH      C 3556   1.831   7.971   2.993 -0.0100 -0.2921 -0.1514
  888EOH      H 3557   2.041   7.897   2.879  2.4311 -2.5115 -0.4614
  889EOH      O 3558   4.636   5.538   3.838  0.0727  0.0759  0.2072
  889EOH      C 3559   4.512   5.522   3.767 -0.1448  0.3305  0.5266
  889EOH      C 3560   4.392   5.558   3.855 -0.1902  0.1315  0.5471
  889EOH      H 3561   4.686   5.460   3.823  1.1553  0.8249 -0.1277
  890EOH      O 3562   3.892   3.759   6.331  0.0821  0.3601 -0.0587
  890EOH      C 3563   3.778   3.779   6.415 -0.0600  0.0730 -0.1829
  890EOH      C 3564   3.838   3.832   6.546 -0.0014 -0.1397 -0.1249
  890EOH      H 3565   3.942   3.683   6.355  0.3947  1.0033  1.3708
  891EOH      O 3566   0.592   0.473   5.799  0.2791 -0.2268 -0.2631
  891EOH      C 3567   0.615   0.446   5.660  0.4264  0.3410 -0.3487
  891EOH      C 3568   0.567   0.302   5.636  0.0895  0.4694 -0.4471
  891EOH      H 3569   0.563   0.562   5.811 -0.7662 -0.3622 -1.6818
  892EOH      O 3570   0.522   0.361   3.368  0.3684  0.4613  0.1160
  892EOH      C 3571   0.396   0.428   3.375  0.1913  0.1456 -0.0016
  892EOH      C 3572   0.323   0.436   3.511  0.4008 -0.5834  0.1534
  892EOH      H 3573   0.576   0.430   3.333  1.2726 -0.3422 -0.1077
  893EOH      O 3574   4.185   4.009   3.660  0.3365  0.4225  0.1497
  893EOH      C 3575   4.159   4.128   3.737  0.0219  0.1319  0.4960
  893EOH      C 3576   4.044   4.104   3.836  0.0110 -0.8230  0.2602
  893EOH      H 3577   4.122   4.001   3.590 -0.1688 -0.3522  0.6870
  894EOH      O 3578   3.013   1.886   4.610  0.3969 -0.4826 -0.2299
  894EOH      C 3579   2.968   1.943   4.733 -0.3366 -0.0874 -0.6743
  894EOH      C 3580   2.816   1.965   4.724 -0.3192  0.4181  0.2250
  894EOH      H 3581   3.015   1.794   4.635  0.6407 -0.3413  0.2735
  895EOH      O 3582   0.486   0.045   6.124  0.2023 -0.2573 -0.3896
  895EOH      C 3583   0.391   0.048   6.018 -0.3274 -0.1758  0.0836
  895EOH      C 3584   0.381   0.192   5.963  0.2043 -0.0564  0.2931
  895EOH      H 3585   0.494  -0.044   6.155 -1.5963 -0.2166  0.2477
  896EOH      O 3586   1.883   5.505   5.032  0.1237  0.4716  0.5223
  896EOH      C 3587   2.009   5.467   4.976 -0.1479  0.1941  0.1062
  896EOH      C 3588   1.983   5.328   4.914  0.2726 -0.0296  0.4303
  896EOH      H 3589   1.861   5.437   5.093  0.4919 -0.6170 -0.5446
  897EOH      O 3590   2.191   4.764   6.317 -0.2392 -0.4088  0.5166
  897EOH      C 3591   2.272   4.824   6.419  0.3065 -0.0278 -0.1360
  897EOH      C 3592   2.311   4.970   6.390  0.4411 -0.0868 -0.2544
  897EOH      H 3593   2.250   4.741   6.246  0.3361 -0.4593  1.0040
  898EOH      O 3594   0.482   7.709   6.224 -0.8998 -0.4899 -0.4427
  898EOH      C 3595   0.401   7.694   6.341 -0.0294 -0.2978  0.1859
  898EOH      C 3596   0.271   7.614   6.318 -0.1131 -0.0627 -0.1541
  898EOH      H 3597   0.522   7.627   6.201  1.7063  0.4692  0.5570
  899EOH      O 3598   0.462   2.486   4.800  0.3120  0.3302  0.2340
  899EOH      C 3599   0.605   2.499   4.797  0.3766 -0.4155  0.0314
  899EOH      C 3600   0.673   2.460   4.665  0.0179 -0.1610 -0.2292
  899EOH      H 3601   0.421   2.554   4.748 -0.6701 -0.8279 -0.5107
  900EOH      O 3602   3.504   2.892   6.909 -0.3703 -0.4647 -0.2896
  900EOH      C 3603   3.473   2.860   6.773  0.0533  0.4816 -0.6136
  900EOH      C 3604   3.323   2.879   6.748 -0.0091  0.1858 -0.4731
  900EOH      H 3605   3.592   2.858   6.921 -0.1836  0.2421  0.3642
  901EOH      O 3606   3.584   3.421   4.146  0.1967  0.2574 -0.0565
  901EOH      C 3607   3.675   3.489   4.059  0.4189  0.1023  0.0536
  901EOH      C 3608   3.737   3.613   4.126  0.3159  0.0878  0.1765
  901EOH      H 3609   3.626   3.388   4.224 -2.7947 -1.6443  0.8135
  902EOH      O 3610   7.754   7.809   5.061  0.2554 -0.5337 -0.1787
  902EOH      C 3611   7.730   7.871   5.188 -0.5255 -0.2386 -0.4679
  902EOH      C 3612   7.624   7.982   5.183 -0.0999  0.2042  0.2999
  902EOH      H 3613   7.844   7.779   5.057  0.4078 -0.2102  0.6345
  903EOH      O 3614   2.626   2.463   2.083  0.2167 -0.4003  0.6011
  903EOH      C 3615   2.638   2.576   2.170  0.1951 -0.2988  0.4732
  903EOH      C 3616   2.727   2.695   2.129 -0.4915 -0.1752 -0.6780
  903EOH      H 3617   2.635   2.381   2.130 -0.1197 -0.5073  0.4775
  904EOH      O 3618   4.195   5.501   5.256  0.3116  0.2708  0.7862
  904EOH      C 3619   4.207   5.626   5.188  0.0911 -0.3807 -0.4692
  904EOH      C 3620   4.090   5.682   5.105  0.4937  0.2254 -0.6363
  904EOH      H 3621   4.179   5.436   5.189  0.5747  0.4828  0.5140
  905EOH      O 3622   1.928   4.678   4.345 -0.1516 -0.0673 -0.0853
  905EOH      C 3623   1.842   4.687   4.230  0.3306  0.0704 -0.4382
  905EOH      C 3624   1.703   4.736   4.273  0.4402  0.1998 -0.2293
  905EOH      H 3625   1.935   4.762   4.387  0.1250 -0.7068  1.1760
  906EOH      O 3626   1.526   0.842   2.582  0.1231  0.4293 -0.0009
  906EOH      C 3627   1.590   0.931   2.674  0.1633  0.2466  0.1504
  906EOH      C 3628   1.711   0.859   2.736 -0.0754 -0.4241 -0.1590
  906EOH      H 3629   1.452   0.888   2.546 -0.7144 -1.4276 -0.7130
  907EOH      O 3630   3.027   0.677   4.611 -0.5780  0.0569 -0.3639
  907EOH      C 3631   2.987   0.546   4.652 -0.2346 -0.0255 -0.2938
  907EOH      C 3632   3.113   0.469   4.698 -0.5191 -0.0051  0.5339
  907EOH      H 3633   3.034   0.737   4.684  1.4099  1.6538 -1.8131
  908EOH      O 3634   3.096   6.374   2.656  0.2269  0.0537  0.1651
  908EOH      C 3635   2.956   6.366   2.685  0.2132 -0.0843  0.0589
  908EOH      C 3636   2.929   6.351   2.836 -0.0256 -0.9806 -0.0739
  908EOH      H 3637   3.137   6.441   2.709  0.6858 -1.6579  2.0275
  909EOH      O 3638   5.094   3.583   5.703  0.2150 -0.6070 -0.2239
  909EOH      C 3639   5.006   3.618   5.595  0.0122  0.2591  0.2191
  909EOH      C 3640   4.894   3.705   5.655  0.1973  1.0321 -0.5461
  909EOH      H 3641   5.170   3.546   5.661  0.7274 -0.4350  0.5403
  910EOH      O 3642   0.347   7.691   3.923 -0.2518 -0.0910  0.5315
  910EOH      C 3643   0.348   7.615   3.802  0.1338 -0.2583  0.6378
  910EOH      C 3644   0.495   7.593   3.762 -0.0872 -0.2361 -0.1791
  910EOH      H 3645   0.320   7.639   3.997 -2.2657  0.8887  0.5037
  911EOH      O 3646   0.516   3.800   0.070 -0.4079 -0.1429 -0.0825
  911EOH      C 3647   0.449   3.926   0.072  0.0843  0.1222 -0.2484
  911EOH      C 3648   0.471   3.999   0.206 -0.1845 -0.0638 -0.1025
  911EOH      H 3649   0.484   3.763   0.151  0.7230 -0.5583  0.1809
  912EOH      O 3650   0.507   3.589   7.833 -0.0038  0.0689 -0.2073
  912EOH      C 3651   0.527   3.638   7.700  0.0129  0.4115 -0.0810
  912EOH      C 3652   0.516   3.518   7.603 -0.1698  0.0264  0.4145
  912EOH      H 3653   0.506   3.665   7.889  0.1251 -0.3776  0.4113
  913EOH      O 3654   1.579   4.721   2.568 -0.3684 -0.1278 -0.9562
  913EOH      C 3655   1.442   4.758   2.589 -0.3146 -0.2806 -0.3313
  913EOH      C 3656   1.359   4.635   2.548 -0.1120 -0.6012  0.2069
  913EOH      H 3657   1.635   4.789   2.601 -0.0509  0.6591 -3.0306
  914EOH      O 3658   5.042   3.470   5.927 -0.1232  0.7540 -0.6949
  914EOH      C 3659   5.135   3.538   6.011 -0.0815 -0.2888  0.1137
  914EOH      C 3660   5.245   3.438   6.051 -0.3044 -0.3528  0.5682
  914EOH      H 3661   5.056   3.497   5.838  2.6062 -0.2620 -0.6003
  915EOH      O 3662   0.384   3.668   0.254  0.3843  0.1342 -0.4701
  915EOH      C 3663   0.411   3.604   0.379  0.3086  0.2536 -0.3928
  915EOH      C 3664   0.555   3.634   0.425  0.1449 -0.0959  0.3564
  915EOH      H 3665   0.295   3.661   0.223  0.3780  0.7890 -0.6077
  916EOH      O 3666   3.248   5.093   5.950  0.2813 -0.0116 -0.1736
  916EOH      C 3667   3.365   5.023   5.907  0.1586 -0.0392 -0.4646
  916EOH      C 3668   3.460   5.039   6.027 -0.4130  0.1734 -0.0420
  916EOH      H 3669   3.165   5.069   5.911  0.0347  1.8669 -0.8242
  917EOH      O 3670   2.176   6.976   4.210 -0.1453  0.0977  0.5555
  917EOH      C 3671   2.281   6.966   4.306 -0.0396 -0.2869  0.4004
  917EOH      C 3672   2.394   7.069   4.287  0.0028 -0.2377  0.8988
  917EOH      H 3673   2.132   7.059   4.216 -1.5844 -0.4940 -1.2694
  918EOH      O 3674   1.780   3.239   6.625 -0.0328 -0.1006  0.3871
  918EOH      C 3675   1.661   3.268   6.552 -0.0857  0.0294  0.5275
  918EOH      C 3676   1.681   3.408   6.489  0.1753 -0.4809 -0.5316
  918EOH      H 3677   1.755   3.173   6.688 -3.0707 -0.7008 -1.3457
  919EOH      O 3678   0.290   0.726   5.830 -0.3872 -0.2044 -0.1713
  919EOH      C 3679   0.231   0.775   5.709 -0.0194  0.1267 -0.2182
  919EOH      C 3680   0.274   0.677   5.599  0.0671 -0.6528  0.5062
  919EOH      H 3681   0.248   0.773   5.901 -0.4649 -0.0517 -0.3189
  920EOH      O 3682   1.297   6.945   7.813  0.1434 -0.1651  0.7485
  920EOH      C 3683   1.303   6.871   7.691 -0.0833  0.1149  0.5653
  920EOH      C 3684   1.410   6.760   7.701  0.0532  0.2206  0.2833
  920EOH      H 3685   1.260   6.896   7.885 -2.2809 -1.9602 -1.6321
  921EOH      O 3686   1.556   0.144   3.635 -0.3369 -0.0587 -0.3531
  921EOH      C 3687   1.508   0.021   3.580  0.1291 -0.5536  0.3296
  921EOH      C 3688   1.355   0.008   3.590  0.0505 -0.2963 -0.4426
  921EOH      H 3689   1.612   0.130   3.710 -1.2427 -0.7864  0.2113
  922EOH      O 3690   3.495   5.898   2.107 -0.0993 -0.3559 -0.0629
  922EOH      C 3691   3.398   6.002   2.107  0.0746 -0.1874  0.4360
  922EOH      C 3692   3.380   6.038   1.958  0.1449  0.2056  0.5201
  922EOH      H 3693   3.490   5.844   2.185 -2.3774  1.7780  1.3425
  923EOH      O 3694   2.625   6.400   0.365  0.8396 -0.0605  0.1797
  923EOH      C 3695   2.578   6.343   0.242  0.5058  0.2678  0.1526
  923EOH      C 3696   2.668   6.388   0.125  0.1096 -0.1273 -0.3013
  923EOH      H 3697   2.681   6.332   0.398  1.5209  0.4869  0.1652
  924EOH      O 3698   1.151   4.366   4.860  0.2083  0.1261 -0.0025
  924EOH      C 3699   1.073   4.320   4.971 -0.6429  0.5458 -0.4243
  924EOH      C 3700   0.979   4.211   4.915 -0.1089 -0.1373  0.0007
  924EOH      H 3701   1.209   4.298   4.831 -0.6529 -1.3449  1.5793
  925EOH      O 3702   2.468   2.201   7.160  0.1371 -0.0600  0.1625
  925EOH      C 3703   2.485   2.104   7.263  0.1480  0.2504  0.4510
  925EOH      C 3704   2.397   1.982   7.230  0.6784 -0.0650  0.1935
  925EOH      H 3705   2.520   2.170   7.088 -0.8809  0.2590 -0.7364
  926EOH      O 3706   1.003   3.019   6.810  0.3799  0.2673 -0.0724
  926EOH      C 3707   1.016   3.139   6.886  0.3238 -0.0831  0.4906
  926EOH      C 3708   1.044   3.257   6.792 -0.6467  0.0079  0.3092
  926EOH      H 3709   1.040   2.944   6.853  1.3990  0.9833  0.3184
  927EOH      O 3710   4.187   3.484   4.439 -0.0618  0.5138 -0.1018
  927EOH      C 3711   4.056   3.481   4.380 -0.1251  0.1428  0.0598
  927EOH      C 3712   4.026   3.345   4.314  0.2415 -0.1529  0.4970
  927EOH      H 3713   4.182   3.563   4.490 -1.8837  0.2477  0.1789
  928EOH      O 3714   6.016   0.740   3.195 -0.1356  0.4193  0.1140
  928EOH      C 3715   5.900   0.675   3.145 -0.2514  0.2231  0.6313
  928EOH      C 3716   5.803   0.780   3.086 -0.5441 -0.4191 -0.0399
  928EOH      H 3717   5.993   0.780   3.278  0.7046 -0.6408  0.8629
  929EOH      O 3718   1.436   6.381   5.131  0.0562 -0.3376  0.0292
  929EOH      C 3719   1.563   6.329   5.090  0.2478 -0.0434  0.2391
  929EOH      C 3720   1.541   6.212   4.991 -0.0501 -0.3483  0.6641
  929EOH      H 3721   1.409   6.427   5.053 -0.1886 -3.5208 -1.8598
  930EOH      O 3722   7.743   1.097   1.457  0.3131  0.3040 -0.3119
  930EOH      C 3723   7.834   0.987   1.461  0.1612  0.1918  0.0947
  930EOH      C 3724   7.911   1.005   1.329 -0.1813  0.0454 -0.1276
  930EOH      H 3725   7.709   1.104   1.545 -1.1386 -1.9306 -0.6527
  931EOH      O 3726   3.565   5.929   3.264 -0.1716 -0.0211 -0.2360
  931EOH      C 3727   3.584   6.057   3.205  0.2892 -0.1159 -0.2972
  931EOH      C 3728   3.587   6.175   3.305  0.1079 -0.2846 -0.0912
  931EOH      H 3729   3.644   5.878   3.264  0.5222  0.9706 -3.6776
  932EOH      O 3730   4.964   3.123   6.672 -0.5281  0.2514 -0.1039
  932EOH      C 3731   4.922   3.014   6.755 -0.1425 -0.2164 -0.5276
  932EOH      C 3732   4.953   2.872   6.703  0.6287 -0.1437 -0.2699
  932EOH      H 3733   4.895   3.187   6.682  0.8630  1.8744 -0.6398
  933EOH      O 3734   3.591   6.838   4.432 -0.6823  0.1660  0.4809
  933EOH      C 3735   3.646   6.707   4.412 -0.0197  0.4625  0.3161
  933EOH      C 3736   3.540   6.597   4.388  0.3221  0.0728  0.5899
  933EOH      H 3737   3.638   6.891   4.368 -0.3766 -0.7251 -0.0475
  934EOH      O 3738   2.978   4.262   6.614 -0.5793 -0.5173 -0.1217
  934EOH      C 3739   2.868   4.261   6.522 -0.2051 -0.0881 -0.5773
  934EOH      C 3740   2.751   4.178   6.577 -0.5478  0.1976 -0.8677
  934EOH      H 3741   3.027   4.182   6.601  0.5842  0.1856 -0.0884
  935EOH      O 3742   0.798   0.506   1.389  0.2987  0.1202 -0.2073
  935EOH      C 3743   0.847   0.597   1.488  0.1697 -0.0107 -0.0223
  935EOH      C 3744   0.853   0.741   1.434  0.0853  0.0335  0.0882
  935EOH      H 3745   0.788   0.417   1.421  1.0474  0.5344  1.2359
  936EOH      O 3746   3.007   5.880   1.012  0.5583 -0.1174 -0.1200
  936EOH      C 3747   2.885   5.927   1.070  0.6029  0.0092 -0.1274
  936EOH      C 3748   2.787   5.946   0.953 -0.0775  0.1711  0.4655
  936EOH      H 3749   3.076   5.870   1.076  0.5870 -0.5631 -0.2205
  937EOH      O 3750   2.837   6.280   0.519  0.6234  0.2611 -0.2409
  937EOH      C 3751   2.914   6.162   0.542  0.3116  0.0594 -0.2245
  937EOH      C 3752   2.942   6.101   0.403  0.1718  0.4020 -0.4048
  937EOH      H 3753   2.892   6.347   0.482 -0.5072  1.1503 -0.3423
  938EOH      O 3754   6.204   0.603   2.432 -0.5425  0.5296  0.1973
  938EOH      C 3755   6.122   0.702   2.370 -0.4282  0.2310 -0.4407
  938EOH      C 3756   6.115   0.679   2.218  0.1927 -0.1331 -0.4150
  938EOH      H 3757   6.279   0.647   2.470 -1.4876 -0.2100  3.0146
  939EOH      O 3758   3.177   1.662   3.866 -0.5017 -0.3063  0.8077
  939EOH      C 3759   3.194   1.792   3.923  0.1537 -0.0563  0.0434
  939EOH      C 3760   3.308   1.866   3.851  0.4262 -0.7993 -0.2921
  939EOH      H 3761   3.096   1.625   3.897  0.4881 -1.4172  2.1768
  940EOH      O 3762   5.244   3.216   5.535 -0.0989  0.5930  0.1246
  940EOH      C 3763   5.289   3.118   5.440 -0.6542  0.3064  0.1617
  940EOH      C 3764   5.196   3.138   5.318 -0.4634 -0.1929 -0.0660
  940EOH      H 3765   5.177   3.182   5.591 -0.6719  0.2202 -0.7812
  941EOH      O 3766   1.901   6.823   1.083  0.1892 -0.2440 -0.0363
  941EOH      C 3767   1.918   6.706   1.162  0.2003 -0.4151 -0.2906
  941EOH      C 3768   1.963   6.746   1.304 -0.3848  0.4769 -0.3551
  941EOH      H 3769   1.990   6.848   1.064  0.4370 -0.8963  0.2645
  942EOH      O 3770   0.372   1.546   0.695  0.1891  0.5804  0.4538
  942EOH      C 3771   0.350   1.429   0.616  0.2312  0.6635  0.3193
  942EOH      C 3772   0.236   1.445   0.515 -0.3210  0.2633  0.8780
  942EOH      H 3773   0.309   1.541   0.765  0.1250 -1.3420  0.3014
  943EOH      O 3774   1.766   5.798   7.590  0.0857  0.3801 -0.3863
  943EOH      C 3775   1.738   5.750   7.721 -0.1965  0.3511 -0.4568
  943EOH      C 3776   1.590   5.733   7.761  0.0573 -0.5946  0.1079
  943EOH      H 3777   1.721   5.880   7.597 -0.4915 -0.0161  0.6611
  944EOH      O 3778   7.510   1.221   3.988  0.0808 -0.0673  0.2316
  944EOH      C 3779   7.424   1.293   3.899  0.4594 -0.1346 -0.1921
  944EOH      C 3780   7.320   1.197   3.838  0.2105 -0.1677  0.2805
  944EOH      H 3781   7.475   1.135   4.002  0.7219 -0.5380 -1.0005
  945EOH      O 3782   0.809   0.418   3.819 -0.0543 -0.2431 -0.4515
  945EOH      C 3783   0.683   0.445   3.757 -0.2062 -0.1483 -0.0999
  945EOH      C 3784   0.604   0.521   3.866  0.2143  0.1519 -0.0029
  945EOH      H 3785   0.850   0.352   3.766 -0.6474 -1.0014  0.0364
  946EOH      O 3786   6.239   1.795   2.995 -0.1940  0.6549  0.5171
  946EOH      C 3787   6.098   1.795   3.021 -0.3723 -0.1377 -0.4220
  946EOH      C 3788   6.058   1.654   3.067 -0.2921 -0.0151  0.0260
  946EOH      H 3789   6.292   1.794   3.074 -1.4157  1.5160  1.3710
  947EOH      O 3790   0.407   1.823   2.333 -0.3664 -0.1038  0.2926
  947EOH      C 3791   0.285   1.808   2.259  0.1822 -0.5088 -0.5446
  947EOH      C 3792   0.299   1.836   2.108 -0.1844  0.6141 -0.3786
  947EOH      H 3793   0.406   1.892   2.397  0.8616  0.6336 -0.4594
  948EOH      O 3794   2.658   0.133   1.532  0.2789  0.1991  0.1129
  948EOH      C 3795   2.720   0.166   1.657  0.2322  0.5323  0.0498
  948EOH      C 3796   2.854   0.241   1.642  0.3411  0.3219 -0.0294
  948EOH      H 3797   2.564   0.129   1.543  0.1831 -2.0548 -1.2576
  949EOH      O 3798   3.056   5.416   4.835  0.0333  0.4782  0.1256
  949EOH      C 3799   3.195   5.384   4.852 -0.1039  0.1225  0.6024
  949EOH      C 3800   3.264   5.450   4.973 -0.2740  0.5529  0.4651
  949EOH      H 3801   3.052   5.510   4.829 -3.0515  0.3164 -1.0110
  950EOH      O 3802   3.307   5.995   4.133 -0.0363  0.5961  0.0972
  950EOH      C 3803   3.204   5.898   4.152  0.5909 -0.1639 -0.3405
  950EOH      C 3804   3.184   5.853   4.007  0.0637 -0.6374 -0.1234
  950EOH      H 3805   3.262   6.078   4.133  1.5481  1.4956 -1.9346
  951EOH      O 3806   1.870   4.610   3.795 -0.0391 -0.7652 -0.1795
  951EOH      C 3807   2.006   4.568   3.803  0.0980 -0.1927  0.5651
  951EOH      C 3808   2.083   4.675   3.883  0.2023  0.0961  0.0786
  951EOH      H 3809   1.817   4.534   3.779  1.4680 -1.4809 -1.8522
  952EOH      O 3810   4.057   1.948   7.613 -0.1141 -0.1527  0.4592
  952EOH      C 3811   4.052   2.074   7.681  0.0191  0.1983 -0.1801
  952EOH      C 3812   3.912   2.133   7.654  0.1593  0.6000 -0.0234
  952EOH      H 3813   4.110   1.948   7.535 -0.6953 -2.4536  0.0031
  953EOH      O 3814   2.707   7.621   2.927  0.2809 -0.2060  0.5559
  953EOH      C 3815   2.709   7.763   2.915  0.0302 -0.2254  0.2396
  953EOH      C 3816   2.845   7.816   2.966  0.2219 -0.5228  0.0399
  953EOH      H 3817   2.692   7.597   3.017  0.1450 -0.0477  0.5747
  954EOH      O 3818   2.628   5.903   6.261 -0.2607 -0.2777 -0.0474
  954EOH      C 3819   2.568   5.889   6.132 -0.2764 -0.3117 -0.0368
  954EOH      C 3820   2.483   6.016   6.115  0.5527  0.2569  0.0445
  954EOH      H 3821   2.683   5.829   6.284 -1.4972 -1.5252 -1.0349
  955EOH      O 3822   1.198   6.701   3.080 -0.2354  0.2840 -0.0236
  955EOH      C 3823   1.311   6.661   3.002 -0.0309  0.6122  0.1017
  955EOH      C 3824   1.440   6.692   3.080 -0.0197 -0.0368  0.3470
  955EOH      H 3825   1.152   6.767   3.031 -0.7613 -0.5221 -0.6285
  956EOH      O 3826   3.639   4.254   6.847 -0.5275  0.4390  0.5634
  956EOH      C 3827   3.544   4.220   6.746  0.0220 -0.6100  0.3973
  956EOH      C 3828   3.540   4.067   6.731 -0.0753 -0.5466 -0.2295
  956EOH      H 3829   3.653   4.347   6.843 -2.9422  0.8126  0.1290
  957EOH      O 3830   0.522   6.773   3.157  0.1058  0.1482  0.5649
  957EOH      C 3831   0.586   6.889   3.103  0.1648 -0.2613 -0.2402
  957EOH      C 3832   0.696   6.943   3.195 -0.0434 -0.0575 -0.1114
  957EOH      H 3833   0.578   6.701   3.132 -1.8470 -1.4174  0.5739
  958EOH      O 3834   5.170   4.235   5.714  0.2013  0.0123 -0.5106
  958EOH      C 3835   5.045   4.167   5.697  0.0549  0.1078  0.1739
  958EOH      C 3836   5.023   4.086   5.826  0.0281  0.3401  0.3157
  958EOH      H 3837   5.164   4.305   5.777  0.3294  0.6982 -1.2402
  959EOH      O 3838   3.187   6.858   4.243 -0.0790  0.4193  0.0220
  959EOH      C 3839   3.275   6.837   4.132 -0.2855 -0.3751  0.0048
  959EOH      C 3840   3.209   6.854   3.994 -0.5122  0.1520  0.1766
  959EOH      H 3841   3.234   6.834   4.322 -2.2060  0.9780  1.4956
  960EOH      O 3842   3.057   0.783   0.670  0.1246  0.0095  0.1054
  960EOH      C 3843   3.038   0.790   0.812  0.4347 -0.2908  0.1629
  960EOH      C 3844   3.144   0.714   0.894  0.4719  0.3293  0.7003
  960EOH      H 3845   3.014   0.860   0.637  1.0880  0.9496  1.0177
  961EOH      O 3846   3.403   5.674   7.612  0.4603  0.4964  0.2720
  961EOH      C 3847   3.275   5.681   7.676  0.2316 -0.0175 -0.1277
  961EOH      C 3848   3.157   5.659   7.579  0.2914 -0.5121 -0.0917
  961EOH      H 3849   3.455   5.638   7.681 -2.5563 -0.9265  1.9013
  962EOH      O 3850   2.074   7.175   1.926 -0.0106 -0.3434 -0.1764
  962EOH      C 3851   2.026   7.145   1.794  0.2220  0.2120 -0.3889
  962EOH      C 3852   2.014   6.995   1.761  0.0934  0.1234  0.0542
  962EOH      H 3853   2.154   7.222   1.910 -0.6704  1.1337  0.8391
  963EOH      O 3854   1.355   3.218   1.571 -0.3348 -0.1155  0.1481
  963EOH      C 3855   1.251   3.210   1.473 -0.4807 -0.1935  0.3095
  963EOH      C 3856   1.225   3.064   1.431 -0.1136 -0.3536  0.6341
  963EOH      H 3857   1.421   3.156   1.544  0.5715  0.1374  1.6978
  964EOH      O 3858   3.396   5.360   7.864 -0.0554 -0.3192  0.0383
  964EOH      C 3859   3.299   5.306   7.773  0.0282  0.0952 -0.2952
  964EOH      C 3860   3.313   5.153   7.787  0.5516  0.1768  0.1144
  964EOH      H 3861   3.351   5.425   7.915  0.1896  0.1787 -0.3785
  965EOH      O 3862   0.753   7.124   3.732  0.1084  0.3653 -0.1274
  965EOH      C 3863   0.778   7.074   3.600 -0.2465 -0.6486  0.1847
  965EOH      C 3864   0.711   6.935   3.598 -0.2718 -0.6318 -0.1573
  965EOH      H 3865   0.661   7.145   3.732 -0.5475 -2.1929 -1.4476
  966EOH      O 3866   7.010   7.800   3.296  0.2022 -0.5176  0.1416
  966EOH      C 3867   7.075   7.701   3.375  1.2562  0.2611  0.2565
  966EOH      C 3868   7.047   7.745   3.520 -0.5893  0.1312 -0.0573
  966EOH      H 3869   6.919   7.774   3.296  0.7769 -2.5860  0.0018
  967EOH      O 3870   2.484   3.290   3.274 -0.1260 -0.0629 -0.0623
  967EOH      C 3871   2.526   3.295   3.137 -0.0276 -0.1774 -0.0371
  967EOH      C 3872   2.619   3.181   3.094  0.2548 -0.1416  0.4755
  967EOH      H 3873   2.439   3.209   3.292  1.7528 -1.3769 -1.0501
  968EOH      O 3874   6.371   7.755   4.494  0.5032  0.4300 -0.3203
  968EOH      C 3875   6.340   7.811   4.622  0.1545  0.2832 -0.3393
  968EOH      C 3876   6.438   7.748   4.724  0.1345  0.4360 -0.2252
  968EOH      H 3877   6.294   7.705   4.473 -0.8976  1.5198  2.0073
  969EOH      O 3878   3.464   2.100   4.090  0.2807 -0.2094  0.0077
  969EOH      C 3879   3.596   2.049   4.073  0.2578 -0.2057 -0.1867
  969EOH      C 3880   3.652   2.106   3.941  0.6342 -0.0313  0.0456
  969EOH      H 3881   3.418   2.044   4.150  1.6356  0.2035  1.4496
  970EOH      O 3882   4.168   3.983   6.168  0.2243  0.3710 -0.1675
  970EOH      C 3883   4.217   3.994   6.302 -0.1446  0.4306 -0.0381
  970EOH      C 3884   4.290   4.129   6.314  0.0786  0.2772  0.3437
  970EOH      H 3885   4.101   4.049   6.164  0.6386  0.7395 -1.1995
  971EOH      O 3886   2.057   0.766   4.728 -0.0984 -0.1432  0.3178
  971EOH      C 3887   2.146   0.874   4.760 -0.1456 -0.0369  0.0936
  971EOH      C 3888   2.102   0.954   4.884  0.1300  0.1912  0.0438
  971EOH      H 3889   2.110   0.715   4.670  0.3399  1.1396 -0.4236
  972EOH      O 3890   1.208   6.728   4.093 -0.1066 -0.2477 -0.1393
  972EOH      C 3891   1.076   6.677   4.069 -0.2173 -0.0601  0.0693
  972EOH      C 3892   1.019   6.690   3.927 -0.4523 -0.1488  0.1539
  972EOH      H 3893   1.204   6.743   4.186 -0.4448 -2.0423  0.1463
  973EOH      O 3894   4.013   3.810   3.018  0.2715 -0.6271 -0.0195
  973EOH      C 3895   4.023   3.815   2.876 -0.1024 -0.3190 -0.0365
  973EOH      C 3896   4.092   3.951   2.850 -0.7057 -0.0404 -0.1828
  973EOH      H 3897   3.955   3.744   3.053  0.3933 -0.9610 -0.4524
  974EOH      O 3898   2.624   5.023   3.739  0.0547  0.3797 -0.0298
  974EOH      C 3899   2.500   5.072   3.685  0.0197  0.2048 -0.1072
  974EOH      C 3900   2.454   5.165   3.799 -0.5685  0.0355 -0.2064
  974EOH      H 3901   2.606   4.976   3.819 -0.5761 -0.1301 -0.4703
  975EOH      O 3902   4.512   0.698   4.595 -0.2030 -0.5053  0.0975
  975EOH      C 3903   4.455   0.720   4.466 -0.4038  0.3099  0.3235
  975EOH      C 3904   4.373   0.600   4.415  0.1923  0.0423 -0.0160
  975EOH      H 3905   4.606   0.697   4.595 -0.1625  0.4825  2.4783
  976EOH      O 3906   1.612   4.792   6.837  0.6325 -0.2023 -0.2026
  976EOH      C 3907   1.525   4.820   6.726  0.2460  0.0528  0.1641
  976EOH      C 3908   1.536   4.970   6.693 -0.7330  0.2875  0.8782
  976EOH      H 3909   1.590   4.847   6.911  0.1414  1.1552 -1.3267
  977EOH      O 3910   0.769   0.335   3.152  0.2915 -0.2032  0.1895
  977EOH      C 3911   0.797   0.297   3.017  0.1113  0.3260  0.0033
  977EOH      C 3912   0.882   0.407   2.950  0.4288  0.0939  0.0224
  977EOH      H 3913   0.721   0.262   3.189 -2.8976  0.7534 -1.8639
  978EOH      O 3914   1.347   0.005   2.065 -0.2345 -0.4855 -0.3098
  978EOH      C 3915   1.469   0.014   1.991  0.1192 -0.7662  0.2335
  978EOH      C 3916   1.576   0.009   2.101 -0.2175 -0.2226  0.5932
  978EOH      H 3917   1.285  -0.033   2.004  0.9036 -2.8085 -0.0578
  979EOH      O 3918   2.893   0.914   5.383  0.1627  0.0613 -0.2383
  979EOH      C 3919   2.875   0.774   5.408  0.0162  0.0991 -0.1299
  979EOH      C 3920   2.731   0.745   5.454 -0.0437  0.2329 -0.2322
  979EOH      H 3921   2.976   0.936   5.423  0.2899 -1.0471  0.1296
  980EOH      O 3922   5.503   7.379   3.115 -0.2307  0.2966  0.3549
  980EOH      C 3923   5.519   7.301   3.234  0.1520 -0.4087 -0.1522
  980EOH      C 3924   5.664   7.310   3.287  0.2977 -0.0354 -0.6053
  980EOH      H 3925   5.430   7.433   3.139 -0.2455 -0.4088  2.0049
  981EOH      O 3926   2.070   6.576   5.192  0.0040 -0.5017  0.2267
  981EOH      C 3927   1.931   6.609   5.205  0.1366  0.0953  0.1385
  981EOH      C 3928   1.869   6.619   5.065 -0.6624 -0.1949  0.4688
  981EOH      H 3929   2.115   6.621   5.262  1.7786 -0.6518 -0.7893
  982EOH      O 3930   4.159   5.943   5.751 -0.2698 -0.5884 -0.2808
  982EOH      C 3931   4.020   5.953   5.780 -0.0890  0.3386  0.2749
  982EOH      C 3932   3.956   5.865   5.671  0.3558  0.3643 -0.0096
  982EOH      H 3933   4.183   5.855   5.776 -1.5487 -0.7622  0.3742
  983EOH      O 3934   6.926   1.517   4.940  0.0129 -0.2097  0.2363
  983EOH      C 3935   6.917   1.641   4.869  0.2871 -0.0125  0.5459
  983EOH      C 3936   7.020   1.747   4.913 -0.0609  0.6120 -0.1416
  983EOH      H 3937   6.913   1.550   5.027 -0.8806  1.9200 -0.6605
  984EOH      O 3938   1.905   0.057   0.055  0.3342 -0.3905  0.3765
  984EOH      C 3939   1.905  -0.028   0.170  0.0005  0.3628  0.9414
  984EOH      C 3940   2.026   0.006   0.259  0.5874 -0.0190  0.2957
  984EOH      H 3941   1.961   0.015  -0.008  0.1112 -0.3649  0.1602
  985EOH      O 3942   2.093   2.409   2.338  0.0425  0.2220  0.3780
  985EOH      C 3943   2.226   2.360   2.320  0.1402  0.5632  0.1623
  985EOH      C 3944   2.229   2.209   2.290  0.0617  0.6228 -0.1402
  985EOH      H 3945   2.082   2.499   2.310 -0.4156 -0.6264 -2.3315
  986EOH      O 3946   2.901   3.212   1.904  0.1094  0.0623 -1.3224
  986EOH      C 3947   2.984   3.097   1.883 -0.2135 -0.4378  0.0430
  986EOH      C 3948   3.133   3.128   1.902 -0.2692 -0.4296  0.4622
  986EOH      H 3949   2.902   3.241   1.994  2.1875 -1.0943 -0.9383
  987EOH      O 3950   2.503   6.142   3.229 -0.1995 -0.0722  0.0936
  987EOH      C 3951   2.528   6.023   3.154  0.2795  0.0520  0.0501
  987EOH      C 3952   2.482   6.019   3.007 -0.7294 -0.1473  0.3656
  987EOH      H 3953   2.527   6.126   3.319 -0.7554  0.5592  0.3592
  988EOH      O 3954   1.321   6.161   1.851 -0.2920  0.3916  0.7303
  988EOH      C 3955   1.392   6.041   1.882 -0.2480  0.2527  0.0813
  988EOH      C 3956   1.465   6.055   2.016 -0.2231 -0.2594  0.1235
  988EOH      H 3957   1.287   6.154   1.763 -0.4769  2.4106  0.6232
  989EOH      O 3958   0.404   4.792   1.423  0.4426  0.3940 -0.0957
  989EOH      C 3959   0.534   4.733   1.414 -0.0439 -0.6666 -0.1629
  989EOH      C 3960   0.603   4.790   1.289 -0.1299  0.5838  0.3599
  989EOH      H 3961   0.374   4.791   1.513 -2.1452  1.6725 -0.8951
  990EOH      O 3962   0.970   0.338   0.490  0.0726 -0.7941  0.4705
  990EOH      C 3963   1.086   0.286   0.424  0.0300  0.0186 -0.2554
  990EOH      C 3964   1.046   0.155   0.354 -0.0580 -0.1239  0.0611
  990EOH      H 3965   0.987   0.417   0.540  0.6803 -0.2495 -0.5685
  991EOH      O 3966   4.685   2.650   5.202 -0.7629 -0.7069 -0.0109
  991EOH      C 3967   4.625   2.611   5.325 -0.1510 -0.2238  0.4433
  991EOH      C 3968   4.601   2.459   5.312 -0.7262 -0.0829 -0.1515
  991EOH      H 3969   4.634   2.614   5.131 -1.5381  0.1734  0.0847
  992EOH      O 3970   2.445   7.319   1.603 -0.2870 -0.3641  0.0534
  992EOH      C 3971   2.571   7.255   1.624 -0.1901 -0.1644  0.0789
  992EOH      C 3972   2.582   7.108   1.583  0.1694  0.1450 -0.9397
  992EOH      H 3973   2.458   7.411   1.585  1.2315 -0.2325  1.6472
  993EOH      O 3974   2.725   3.781   5.913  0.0824  0.6076  0.1670
  993EOH      C 3975   2.733   3.658   5.842  0.3809  0.0001  1.2402
  993EOH      C 3976   2.627   3.558   5.893  0.0829 -0.1811  0.2873
  993EOH      H 3977   2.766   3.771   5.998  1.1961  0.1549 -0.4227
  994EOH      O 3978   3.435   3.339   1.089 -0.3367 -0.4625 -0.0226
  994EOH      C 3979   3.297   3.374   1.101 -0.1570  0.1896  0.1659
  994EOH      C 3980   3.230   3.404   1.236 -0.1919  0.3275  0.1187
  994EOH      H 3981   3.478   3.405   1.037 -0.0406 -1.4415 -1.0489
  995EOH      O 3982   2.003   7.666   4.421  0.3195  0.2409 -0.0509
  995EOH      C 3983   2.026   7.807   4.416 -0.0109  0.3248  0.6452
  995EOH      C 3984   1.921   7.876   4.328 -0.2896 -0.3292  0.4669
  995EOH      H 3985   2.072   7.629   4.473  1.0519  1.9475  0.2299
  996EOH      O 3986   5.354   6.483   4.107 -0.4725 -0.1989 -0.2948
  996EOH      C 3987   5.231   6.513   4.176 -0.4204 -0.6150 -0.0228
  996EOH      C 3988   5.274   6.531   4.322 -0.8940 -0.2166  0.0656
  996EOH      H 3989   5.346   6.523   4.022 -0.2147 -0.2981 -0.3628
  997EOH      O 3990   0.712   4.166   1.057  0.0425  0.0208 -0.6995
  997EOH      C 3991   0.695   4.029   1.095 -0.0864  0.2500  0.0710
  997EOH      C 3992   0.769   4.013   1.229 -0.3281 -0.7483  0.0866
  997EOH      H 3993   0.717   4.221   1.134  2.0402 -3.1827  1.5766
  998EOH      O 3994   3.316   4.534   0.291  0.0975 -0.4111  0.2105
  998EOH      C 3995   3.389   4.433   0.362  0.0747 -0.2669  0.4371
  998EOH      C 3996   3.337   4.295   0.318 -0.3245 -0.0402  0.1882
  998EOH      H 3997   3.368   4.552   0.214  2.8146 -1.2449  1.7870
  999EOH      O 3998   1.707   1.834   7.766  0.4312  0.1683  0.3333
  999EOH      C 3999   1.742   1.751   7.878  0.4659  0.0571  0.2399
  999EOH      C 4000   1.652   1.626   7.875  0.4402  0.0806 -0.0378
  999EOH      H 4001   1.626   1.872   7.795 -0.0853 -0.7859  0.1589
 1000EOH      O 4002   2.027   7.703   1.345  0.7739  0.1515 -0.0363
 1000EOH      C 4003   2.034   7.686   1.487 -0.5744 -0.7942 -0.0681
 1000EOH      C 4004   1.937   7.784   1.556  0.6983  0.3228  0.1514
 1000EOH      H 4005   1.973   7.636   1.307  1.7158 -1.5566  1.5207
 1001EOH      O 4006   2.562   7.821   4.116 -0.3974  0.2077  0.2697
 1001EOH      C 4007   2.467   7.872   4.210 -0.7008 -0.0312  0.0895
 1001EOH      C 4008   2.553   7.921   4.327  0.0615 -0.0103 -0.4709
 1001EOH      H 4009   2.541   7.860   4.033 -0.1285  0.0710  0.1376
 1002EOH      O 4010   2.352   4.842   7.079 -0.1989 -0.2111  0.0619
 1002EOH      C 4011   2.454   4.941   7.094 -0.1251 -0.3027  0.1628
 1002EOH      C 4012   2.486   4.924   7.244 -0.1587 -0.3098  0.1695
 1002EOH      H 4013   2.307   4.856   6.997  1.5947  0.4570 -0.8430
 1003EOH      O 4014   1.449   1.879   4.474 -0.4295  0.8342  0.5559
 1003EOH      C 4015   1.364   1.840   4.583 -0.3920 -0.4191  0.1453
 1003EOH      C 4016   1.243   1.934   4.599  0.1751  0.3770 -0.2211
 1003EOH      H 4017   1.498   1.805   4.443  2.5904  2.0608  2.2700
 1004EOH      O 4018   5.814   1.989   3.939 -0.0022  0.0184  0.4220
 1004EOH      C 4019   5.844   1.850   3.932 -0.3232 -0.0236 -0.1533
 1004EOH      C 4020   5.932   1.825   3.808  0.3843  0.5266  0.2331
 1004EOH      H 4021   5.790   2.002   4.029  2.2615 -0.6422  1.1441
 1005EOH      O 4022   0.947   2.616   6.350  0.3040 -0.0626 -0.3159
 1005EOH      C 4023   1.041   2.711   6.400 -0.1345  0.2716 -0.1230
 1005EOH      C 4024   1.172   2.667   6.469  0.0025  0.8645 -0.0085
 1005EOH      H 4025   0.880   2.592   6.412  0.0644 -0.1159 -0.5947
 1006EOH      O 4026   0.161   1.252   2.574  0.0005 -0.0159 -0.1272
 1006EOH      C 4027   0.294   1.201   2.577 -0.0097 -0.0438 -0.1384
 1006EOH      C 4028   0.285   1.055   2.531  0.1774 -0.2869  0.5962
 1006EOH      H 4029   0.152   1.283   2.485 -2.1881  0.9476  0.3762
 1007EOH      O 4030   1.523   5.325   1.422  0.0819  0.1651 -0.1844
 1007EOH      C 4031   1.543   5.407   1.307  0.2431  0.0583 -0.2303
 1007EOH      C 4032   1.574   5.322   1.181  0.0422 -0.1005 -0.1726
 1007EOH      H 4033   1.538   5.389   1.491 -0.0162 -0.3752  0.3466
 1008EOH      O 4034   0.567   2.356   7.385 -0.3000  0.1679  0.3780
 1008EOH      C 4035   0.698   2.405   7.352 -0.0651 -0.7270 -0.0343
 1008EOH      C 4036   0.796   2.305   7.290 -0.1027 -1.0919  0.4886
 1008EOH      H 4037   0.572   2.338   7.478 -2.8786 -0.8102  0.3583
 1009EOH      O 4038   2.473   0.143   6.596 -0.2413  0.0179  0.5767
 1009EOH      C 4039   2.561   0.108   6.703  0.7963 -0.4817 -0.4199
 1009EOH      C 4040   2.657   0.214   6.760 -0.6612  0.5331  0.1710
 1009EOH      H 4041   2.445   0.059   6.562 -0.0777 -1.0971  3.1203
 1010EOH      O 4042   2.142   7.179   3.012 -0.2184 -0.3269  0.3225
 1010EOH      C 4043   2.258   7.118   3.068  0.2477  0.0515 -0.2294
 1010EOH      C 4044   2.261   7.110   3.221 -0.6608 -0.7993 -0.2497
 1010EOH      H 4045   2.147   7.263   3.054 -0.5037 -0.6217  0.9543
 1011EOH      O 4046   5.370   2.012   3.500  0.1741  0.1801 -0.3916
 1011EOH      C 4047   5.320   2.125   3.572  0.0551 -0.2798  0.2632
 1011EOH      C 4048   5.269   2.071   3.706 -0.0457 -0.3022  0.2160
 1011EOH      H 4049   5.367   2.036   3.409 -2.9089  3.2878  0.4274
 1012EOH      O 4050   1.290   2.865   7.144  0.2908  0.4665  0.5934
 1012EOH      C 4051   1.264   2.785   7.260  0.2222 -0.5170 -0.0963
 1012EOH      C 4052   1.122   2.728   7.278 -0.0188 -0.1810 -0.8751
 1012EOH      H 4053   1.384   2.875   7.137  0.2759  1.8885  2.1725
 1013EOH      O 4054   3.092   4.036   2.546  0.3903 -0.2723 -0.4943
 1013EOH      C 4055   3.222   4.088   2.574  0.0890 -0.0059  0.4345
 1013EOH      C 4056   3.214   4.182   2.695 -0.1019 -0.0565  0.4613
 1013EOH      H 4057   3.037   4.098   2.501  2.0718  0.0512 -2.1676
 1014EOH      O 4058   2.440   3.938   6.337 -0.6210  0.2082  0.1793
 1014EOH      C 4059   2.318   3.887   6.283 -0.1364 -0.0340 -0.6886
 1014EOH      C 4060   2.316   3.743   6.338 -0.8566  0.0623 -0.4517
 1014EOH      H 4061   2.417   4.027   6.362  1.3995  0.2480  1.9985
 1015EOH      O 4062   4.322   6.846   5.563  0.0906  0.3050  0.1306
 1015EOH      C 4063   4.441   6.774   5.595  0.3557  0.5845 -0.2141
 1015EOH      C 4064   4.521   6.732   5.470 -0.4980  0.3657 -0.6952
 1015EOH      H 4065   4.255   6.839   5.630  0.9469  1.3675  1.1180
 1016EOH      O 4066   1.633   6.142   1.245 -0.1456  0.2965 -0.4904
 1016EOH      C 4067   1.594   6.055   1.139 -0.0009  0.0281 -0.3227
 1016EOH      C 4068   1.522   5.932   1.199 -0.0034  0.2333  0.0969
 1016EOH      H 4069   1.692   6.203   1.203 -0.8502  0.0137 -1.9297
 1017EOH      O 4070   1.391   4.603   4.687 -0.0979 -0.1258 -0.2868
 1017EOH      C 4071   1.466   4.500   4.621 -0.0037 -0.3992  0.2455
 1017EOH      C 4072   1.598   4.572   4.589 -0.2706 -0.2040 -0.4172
 1017EOH      H 4073   1.302   4.575   4.702  0.8100 -3.0586  0.0187
 1018EOH      O 4074   1.263   0.202   6.338  0.2797 -0.1779  0.4350
 1018EOH      C 4075   1.319   0.070   6.345  0.3049 -0.1710  0.3682
 1018EOH      C 4076   1.336   0.021   6.490 -0.0044  0.0932  0.4958
 1018EOH      H 4077   1.212   0.203   6.259  1.2069 -1.7643 -0.2133
 1019EOH      O 4078   3.278   5.859   4.843 -0.0824 -0.3757 -0.4629
 1019EOH      C 4079   3.375   5.871   4.947 -0.1402 -0.0594 -0.4432
 1019EOH      C 4080   3.289   5.865   5.074 -0.0266 -0.4942 -0.3838
 1019EOH      H 4081   3.313   5.901   4.766  1.6919  0.7803  0.9426
 1020EOH      O 4082   3.718   3.346   4.366 -0.3744  0.3030  0.2435
 1020EOH      C 4083   3.691   3.236   4.453  0.1361  0.1487  0.2122
 1020EOH      C 4084   3.761   3.277   4.584 -0.0523 -0.2467  0.4371
 1020EOH      H 4085   3.720   3.432   4.406 -0.4487 -0.2781  1.5215
 1021EOH      O 4086   2.075   2.500   1.054 -0.3760  0.4121  0.0680
 1021EOH      C 4087   2.070   2.554   0.922 -0.2024  0.0422 -0.0915
 1021EOH      C 4088   2.179   2.498   0.829 -0.3367  0.1661 -0.3255
 1021EOH      H 4089   2.026   2.558   1.110 -1.9525  0.5722 -1.4368
 1022EOH      O 4090   0.631   2.588   2.595  0.7976  0.3247  0.1851
 1022EOH      C 4091   0.698   2.515   2.699 -0.0155  0.1241  0.5683
 1022EOH      C 4092   0.621   2.404   2.773  0.0058 -0.0063  0.3943
 1022EOH      H 4093   0.665   2.676   2.592  0.2772  0.5487  0.7621
 1023EOH      O 4094   4.614   2.596   6.143 -0.1582  0.3456 -0.6696
 1023EOH      C 4095   4.615   2.469   6.078 -0.3135  0.1694 -0.3269
 1023EOH      C 4096   4.544   2.361   6.163  0.1989  0.5102  0.5368
 1023EOH      H 4097   4.662   2.657   6.089  0.0322  0.4445 -0.3878
 1024EOH      O 4098   0.538   1.721   5.611 -0.4451 -0.2965 -0.0792
 1024EOH      C 4099   0.676   1.683   5.605 -0.3072  0.1771  0.0459
 1024EOH      C 4100   0.739   1.809   5.544 -0.4286  0.3105  0.1966
 1024EOH      H 4101   0.493   1.715   5.694 -2.9668 -0.6732 -1.4178
 1025EOH      O 4102   0.031   7.665   4.795  0.2982 -0.2577  0.1180
 1025EOH      C 4103   0.115   7.629   4.684  0.3702  0.4869 -0.0686
 1025EOH      C 4104   0.120   7.480   4.647  0.2042  0.4910 -0.1119
 1025EOH      H 4105  -0.048   7.614   4.786 -1.5119  2.6351 -1.0069
 1026EOH      O 4106   1.589   5.059   1.517 -0.1581 -0.0194 -0.1152
 1026EOH      C 4107   1.723   5.046   1.468 -0.0993  0.0454  0.0286
 1026EOH      C 4108   1.813   5.145   1.544  0.0828 -0.0052 -0.1209
 1026EOH      H 4109   1.551   5.140   1.489 -1.4583 -0.2494  0.9372
 1027EOH      O 4110   0.422   0.191   5.137 -0.4935  0.2457  0.5284
 1027EOH      C 4111   0.512   0.230   5.033 -0.1773  0.0229  0.7213
 1027EOH      C 4112   0.647   0.268   5.099  0.1953 -0.2514  0.1224
 1027EOH      H 4113   0.406   0.265   5.194 -1.7833 -0.5373  1.2067
 1028EOH      O 4114   2.845   2.008   6.477 -0.1735  0.2777  0.2598
 1028EOH      C 4115   2.744   2.092   6.421  0.0267  0.1252 -0.3288
 1028EOH      C 4116   2.742   2.223   6.502  0.1506 -0.2982  0.3550
 1028EOH      H 4117   2.838   1.924   6.435 -1.7444  0.4293  0.1877
 1029EOH      O 4118   0.207   0.451   6.221 -0.1801 -1.0314 -0.1091
 1029EOH      C 4119   0.320   0.494   6.144 -0.2871  0.1729  0.3963
 1029EOH      C 4120   0.388   0.596   6.237  0.1630  0.4093 -0.1929
 1029EOH      H 4121   0.191   0.360   6.200  1.1195 -1.1750 -0.5109
 1030EOH      O 4122   0.869   4.660   1.774  0.2223  0.0958 -0.0340
 1030EOH      C 4123   0.858   4.694   1.635 -0.5849 -0.2032 -0.0465
 1030EOH      C 4124   0.899   4.840   1.608  0.3669 -0.2882  0.9358
 1030EOH      H 4125   0.954   4.691   1.800  0.2496 -0.9576  1.1584
 1031EOH      O 4126   3.144   6.352   1.085  0.3116  0.0979 -0.1286
 1031EOH      C 4127   3.201   6.473   1.033  0.1884  0.1615 -0.1137
 1031EOH      C 4128   3.343   6.440   0.984  0.3296  0.6455 -0.0291
 1031EOH      H 4129   3.175   6.273   1.044  1.4279 -1.0469  2.8074
 1032EOH      O 4130   0.591   7.544   7.224  0.2390 -0.0700  0.0645
 1032EOH      C 4131   0.593   7.519   7.365 -0.1604 -0.0071  0.0823
 1032EOH      C 4132   0.463   7.570   7.430  0.2484  0.2464  0.7157
 1032EOH      H 4133   0.571   7.636   7.218 -1.1566 -0.2611  1.3867
 1033EOH      O 4134   1.921   6.297   0.694 -0.1403  0.2831 -0.1301
 1033EOH      C 4135   1.972   6.344   0.820  0.4885 -0.1484 -0.2206
 1033EOH      C 4136   2.080   6.243   0.863  0.5187 -0.0168  0.0101
 1033EOH      H 4137   1.989   6.281   0.631 -0.5144 -1.7033 -0.0840
 1034EOH      O 4138   7.692   0.741   5.115 -0.0963  0.2446 -0.5208
 1034EOH      C 4139   7.820   0.779   5.168 -0.3621 -0.7503  0.8597
 1034EOH      C 4140   7.905   0.653   5.194 -0.0185 -0.6893  0.0359
 1034EOH      H 4141   7.637   0.815   5.092  0.1489  0.7154  0.3596
 1035EOH      O 4142   7.731   0.450   2.860  0.2961 -0.1374  0.1587
 1035EOH      C 4143   7.819   0.445   2.747 -0.1603  0.4068 -0.2275
 1035EOH      C 4144   7.967   0.460   2.785 -0.1138 -1.4972  0.4105
 1035EOH      H 4145   7.646   0.454   2.818  0.2498 -3.8663 -0.2176
 1036EOH      O 4146   7.543   2.349   2.037 -0.2285  0.2573  0.2327
 1036EOH      C 4147   7.626   2.354   2.154  0.2277 -0.1601 -0.0689
 1036EOH      C 4148   7.668   2.500   2.177 -0.4403  0.0807 -0.3625
 1036EOH      H 4149   7.454   2.364   2.063 -0.1590 -0.8339  1.1672
 1037EOH      O 4150   2.400   0.119   1.505  0.8313 -0.0141  0.7430
 1037EOH      C 4151   2.367   0.254   1.470  0.0502 -0.2987  0.3708
 1037EOH      C 4152   2.416   0.350   1.580  0.5562  0.6199 -0.6431
 1037EOH      H 4153   2.357   0.064   1.441 -0.2449 -0.0948  1.5193
 1038EOH      O 4154   3.238   4.924   3.857 -0.4409  0.1036  0.0685
 1038EOH      C 4155   3.164   4.967   3.971 -0.5137 -0.3771  0.2025
 1038EOH      C 4156   3.073   5.085   3.931  0.2118  0.1252  0.0446
 1038EOH      H 4157   3.272   4.837   3.869  0.5772  0.5242  0.2467
 1039EOH      O 4158   1.626   3.898   0.151  0.3692 -0.2720  0.5784
 1039EOH      C 4159   1.711   3.996   0.210 -0.1312  0.4353  0.1202
 1039EOH      C 4160   1.645   4.066   0.330 -0.1610  0.5163  0.0566
 1039EOH      H 4161   1.674   3.817   0.142  0.2753 -0.0953 -1.6362
 1040EOH      O 4162   1.197   0.926   6.221  0.0275  0.1068 -0.1791
 1040EOH      C 4163   1.262   0.831   6.136  0.2892 -0.1190  0.2750
 1040EOH      C 4164   1.414   0.829   6.162  0.4134 -0.3094 -0.4561
 1040EOH      H 4165   1.104   0.913   6.215  0.3403 -2.0961 -0.6627
 1041EOH      O 4166   3.638   4.632   6.290 -0.1719 -0.2693 -0.6263
 1041EOH      C 4167   3.651   4.774   6.281 -0.4654 -0.1674  0.4369
 1041EOH      C 4168   3.794   4.818   6.318 -0.3655  0.0713 -0.2249
 1041EOH      H 4169   3.600   4.600   6.210 -1.3845 -1.7973  0.5237
 1042EOH      O 4170   6.068   2.077   4.055 -0.1492 -0.1334  0.2706
 1042EOH      C 4171   6.057   2.194   4.137 -0.3395  0.0932 -0.0733
 1042EOH      C 4172   6.016   2.332   4.084  0.2357  0.1677 -0.3176
 1042EOH      H 4173   5.980   2.061   4.024 -0.1004  0.4024 -0.1550
 1043EOH      O 4174   3.577   3.298   6.806 -0.3672  0.2339  0.0316
 1043EOH      C 4175   3.687   3.376   6.852 -0.0307 -0.0983 -0.2124
 1043EOH      C 4176   3.700   3.478   6.737  0.8244  0.9085  0.7610
 1043EOH      H 4177   3.583   3.221   6.861  1.7816 -1.3783 -2.3442
 1044EOH      O 4178   0.294   3.080   3.847  0.6471 -0.1298 -0.3606
 1044EOH      C 4179   0.187   3.118   3.759  0.1763 -0.2371  0.1668
 1044EOH      C 4180   0.254   3.165   3.629 -0.5875  0.1454 -0.0866
 1044EOH      H 4181   0.334   3.163   3.868 -2.3841  1.3569 -0.1808
 1045EOH      O 4182   4.827   5.533   4.468 -0.0776  0.0410  0.4094
 1045EOH      C 4183   4.905   5.414   4.452  0.1919  0.2288  0.3145
 1045EOH      C 4184   4.973   5.394   4.316 -0.7863 -0.5826 -0.0568
 1045EOH      H 4185   4.895   5.589   4.502 -0.6756  1.1580 -0.2271
 1046EOH      O 4186   1.488   0.623   1.739  0.4345 -0.0711  0.3735
 1046EOH      C 4187   1.505   0.500   1.810 -0.0002 -0.4105 -0.1068
 1046EOH      C 4188   1.428   0.496   1.943  0.2301  0.0493  0.0396
 1046EOH      H 4189   1.400   0.613   1.705  0.5900  1.7638 -0.6424
 1047EOH      O 4190   1.706   0.536   5.744  0.2494  0.0651 -0.3618
 1047EOH      C 4191   1.698   0.562   5.885  0.4490 -0.0170 -0.3346
 1047EOH      C 4192   1.670   0.711   5.910  0.5346 -0.0929  0.2107
 1047EOH      H 4193   1.754   0.455   5.739  1.4164  0.7056  0.1293
 1048EOH      O 4194   6.687   6.729   3.511  0.5817 -0.1764 -0.2343
 1048EOH      C 4195   6.673   6.871   3.502 -0.1028 -0.2589 -0.5927
 1048EOH      C 4196   6.526   6.914   3.502 -0.0590 -0.0923  0.1282
 1048EOH      H 4197   6.714   6.722   3.601  1.9088 -0.4289 -0.6522
 1049EOH      O 4198   6.582   7.525   2.252  0.3249 -0.3944  0.0448
 1049EOH      C 4199   6.668   7.420   2.298  0.9557  0.3670  0.5979
 1049EOH      C 4200   6.630   7.382   2.442  0.3279 -0.0112  0.3308
 1049EOH      H 4201   6.628   7.603   2.228 -1.4675  1.1916  1.6052
 1050EOH      O 4202   1.838   0.580   1.366 -0.1236 -0.7502  0.2516
 1050EOH      C 4203   1.830   0.587   1.223  0.5418  0.2091  0.2514
 1050EOH      C 4204   1.688   0.595   1.165  0.6641 -0.2273 -0.1101
 1050EOH      H 4205   1.817   0.494   1.397  0.7916 -0.4380  1.7757
 1051EOH      O 4206   2.917   2.618   7.432  0.0389 -0.6257 -0.0753
 1051EOH      C 4207   2.946   2.730   7.348 -0.0445 -0.4283  0.1606
 1051EOH      C 4208   2.858   2.849   7.392  0.5423  0.2805 -0.5673
 1051EOH      H 4209   2.920   2.536   7.385 -1.6979 -0.2765 -0.8310
 1052EOH      O 4210   2.673   6.705   2.377 -0.1123 -0.0334 -0.2626
 1052EOH      C 4211   2.748   6.641   2.273  0.0231 -0.0155 -0.1762
 1052EOH      C 4212   2.852   6.550   2.341 -0.7859 -0.5208  0.3928
 1052EOH      H 4213   2.618   6.767   2.331 -0.6847 -0.1676  0.2381
 1053EOH      O 4214   1.050   7.814   2.269  0.0700  0.0210  0.0877
 1053EOH      C 4215   1.023   7.919   2.176  0.3873 -0.0471 -0.0791
 1053EOH      C 4216   0.889   7.991   2.194  0.0417 -0.7880  0.3333
 1053EOH      H 4217   1.139   7.786   2.259 -0.0183 -0.0735 -0.4702
 1054EOH      O 4218   3.953   2.417   0.381 -0.2410  0.4421 -0.3532
 1054EOH      C 4219   4.043   2.513   0.438  0.3454 -0.3236  0.0185
 1054EOH      C 4220   4.095   2.487   0.581  0.0018 -0.0373  0.1977
 1054EOH      H 4221   3.918   2.454   0.301  0.1767  0.8360 -0.3596
 1055EOH      O 4222   1.494   2.259   4.705 -0.0189  0.1122 -0.2879
 1055EOH      C 4223   1.379   2.343   4.709 -0.2318 -0.1612 -0.5812
 1055EOH      C 4224   1.400   2.483   4.647  0.0439  0.0759  0.0449
 1055EOH      H 4225   1.494   2.211   4.623  2.0651 -0.0142 -0.2257
 1056EOH      O 4226   0.999   0.209   7.245 -0.0878  0.1386 -0.3538
 1056EOH      C 4227   0.964   0.347   7.230 -0.3792  0.1021 -0.0309
 1056EOH      C 4228   0.833   0.372   7.307 -0.5468  0.3075 -0.3829
 1056EOH      H 4229   1.083   0.200   7.204 -0.5577  2.2515 -1.9135
 1057EOH      O 4230   0.169   2.448   4.636 -0.2852  0.1152 -0.2374
 1057EOH      C 4231   0.030   2.426   4.610 -0.2210 -0.1002 -0.3940
 1057EOH      C 4232  -0.003   2.524   4.496  0.0973  0.1615 -0.2611
 1057EOH      H 4233   0.194   2.387   4.703  1.2954  0.1354 -0.7729
 1058EOH      O 4234   0.229   0.884   3.283 -0.1988 -0.5217  0.2028
 1058EOH      C 4235   0.299   0.845   3.401  0.3747 -0.7577 -0.2145
 1058EOH      C 4236   0.419   0.940   3.418  0.0668 -0.4606  0.3179
 1058EOH      H 4237   0.178   0.960   3.306  0.4887  0.6712 -2.1509
 1059EOH      O 4238   0.566   0.351   0.479 -0.2174  0.3978  0.1581
 1059EOH      C 4239   0.459   0.345   0.574 -0.0119  0.0815  0.3711
 1059EOH      C 4240   0.364   0.226   0.552  0.4322 -0.2697  0.3507
 1059EOH      H 4241   0.629   0.287   0.507  1.0562  1.3674 -0.4153
 1060EOH      O 4242   1.583   0.601   3.570  0.5689 -0.7841  0.1716
 1060EOH      C 4243   1.666   0.675   3.661  0.2138  0.4289 -0.4851
 1060EOH      C 4244   1.589   0.794   3.722 -0.3005 -0.1957  0.0906
 1060EOH      H 4245   1.623   0.519   3.548 -1.4813 -1.1852 -2.2368
 1061EOH      O 4246   2.524   4.789   3.007 -0.1377 -0.1525  0.2953
 1061EOH      C 4247   2.643   4.785   2.926 -0.4585  0.1415 -0.1954
 1061EOH      C 4248   2.767   4.808   3.014 -0.5626 -0.1418  0.0261
 1061EOH      H 4249   2.448   4.764   2.956  1.3534 -0.8499 -1.6694
 1062EOH      O 4250   6.759   1.970   2.890  0.0939  0.1166 -0.4400
 1062EOH      C 4251   6.850   1.873   2.837 -0.1833 -0.5274  0.2535
 1062EOH      C 4252   6.833   1.725   2.877  0.0233 -0.5645  0.2086
 1062EOH      H 4253   6.798   2.055   2.881 -0.9161  0.6181 -0.0991
 1063EOH      O 4254   3.208   3.334   7.726  0.0685  0.3962 -0.5476
 1063EOH      C 4255   3.331   3.380   7.782 -0.2798  0.4145  0.2080
 1063EOH      C 4256   3.339   3.532   7.804 -0.0904  0.3727  0.4306
 1063EOH      H 4257   3.225   3.321   7.633  2.2256  0.6653 -0.2212
 1064EOH      O 4258   2.796   5.029   1.109 -0.2391  0.1014 -0.4768
 1064EOH      C 4259   2.844   4.904   1.060  0.1826  0.1030 -0.0752
 1064EOH      C 4260   2.733   4.803   1.023  0.0331  0.1755  0.1763
 1064EOH      H 4261   2.863   5.071   1.162  0.5893 -0.8308 -0.7803
 1065EOH      O 4262   2.717   2.335   4.732  0.5855 -0.8996 -0.1560
 1065EOH      C 4263   2.706   2.346   4.590  0.7466 -0.6649 -0.1512
 1065EOH      C 4264   2.566   2.290   4.557  0.3981  0.0281  0.1261
 1065EOH      H 4265   2.741   2.245   4.747  0.9873 -0.6888  0.4760
 1066EOH      O 4266   2.675   7.541   3.175  0.3294  0.4439  0.2733
 1066EOH      C 4267   2.563   7.563   3.262  0.0223 -0.5892  0.1450
 1066EOH      C 4268   2.448   7.468   3.225 -0.0472 -0.6647  0.5517
 1066EOH      H 4269   2.715   7.458   3.195 -1.1983  0.1262  2.1392
 1067EOH      O 4270   1.944   0.661   6.570  0.2610 -0.3623  0.1917
 1067EOH      C 4271   1.815   0.598   6.570 -0.0925  0.3611  0.0260
 1067EOH      C 4272   1.745   0.620   6.705 -0.5073  0.5469 -0.2171
 1067EOH      H 4273   1.976   0.666   6.482 -0.1516 -1.4586 -0.0389
 1068EOH      O 4274   6.910   0.322   3.986 -0.5072  0.0894 -0.1430
 1068EOH      C 4275   6.870   0.270   4.113  0.2523  0.1611  0.1289
 1068EOH      C 4276   6.966   0.157   4.154 -0.3358 -0.2385  0.4166
 1068EOH      H 4277   6.921   0.249   3.926 -2.1894 -0.4203  0.1427
 1069EOH      O 4278   0.994   2.847   7.777  0.0193  0.0435 -0.0486
 1069EOH      C 4279   0.982   2.922   7.656 -0.0931 -0.0472 -0.0941
 1069EOH      C 4280   1.088   3.034   7.651  0.2913 -0.3560  1.0334
 1069EOH      H 4281   1.079   2.804   7.780 -1.1695 -2.3417  0.8197
 1070EOH      O 4282   2.862   2.640   5.888 -0.3772 -0.4355  0.0706
 1070EOH      C 4283   2.981   2.640   5.809 -0.0738  0.1558  0.5183
 1070EOH      C 4284   2.989   2.767   5.721  0.2730 -0.1265  0.1416
 1070EOH      H 4285   2.799   2.580   5.851  0.5959 -0.1140 -2.1807
 1071EOH      O 4286   3.314   3.798   4.212 -0.2383  0.0752  0.4767
 1071EOH      C 4287   3.296   3.823   4.073  0.4051 -0.3585  0.3137
 1071EOH      C 4288   3.437   3.856   4.020  0.2933  0.2815  0.4037
 1071EOH      H 4289   3.245   3.734   4.222 -0.0610  0.0748  1.7809
 1072EOH      O 4290   0.690   1.649   3.292 -0.0060 -0.2648 -0.2761
 1072EOH      C 4291   0.689   1.688   3.155 -0.3250  0.2277 -0.1368
 1072EOH      C 4292   0.790   1.803   3.134 -0.5766  0.3685 -0.5658
 1072EOH      H 4293   0.643   1.713   3.344 -0.0098 -0.6790  0.2334
 1073EOH      O 4294   1.418   7.094   0.686 -0.5553  0.1758 -0.1805
 1073EOH      C 4295   1.333   7.013   0.768 -0.4141  0.3632  0.1543
 1073EOH      C 4296   1.335   6.873   0.703  0.5071 -0.0046  0.9770
 1073EOH      H 4297   1.502   7.093   0.729  0.0226 -0.6212 -1.3055
 1074EOH      O 4298   1.036   0.185   1.556  0.3714 -0.1359  0.3605
 1074EOH      C 4299   1.149   0.182   1.469 -0.1770  0.0633 -0.3672
 1074EOH      C 4300   1.092   0.141   1.332  0.0538 -0.4209 -0.3193
 1074EOH      H 4301   1.063   0.217   1.641  0.2283  1.6051 -0.2269
 1075EOH      O 4302   4.280   5.748   5.842  0.1994  0.5254  0.2438
 1075EOH      C 4303   4.295   5.759   5.983 -0.2085  0.2625  0.3077
 1075EOH      C 4304   4.404   5.669   6.044 -0.0538  0.4722  0.3422
 1075EOH      H 4305   4.311   5.662   5.821 -1.5713  0.0243 -0.4391
 1076EOH      O 4306   2.583   3.104   7.359  0.1859 -0.4069  0.6209
 1076EOH      C 4307   2.526   3.024   7.463 -0.3947  0.1940  0.7672
 1076EOH      C 4308   2.402   2.951   7.407 -0.0718 -0.1595  0.5079
 1076EOH      H 4309   2.652   3.152   7.402  0.6924  1.7831 -2.5202
 1077EOH      O 4310   6.817   1.183   3.167  0.2851 -0.2673 -0.2667
 1077EOH      C 4311   6.702   1.128   3.231  0.5022  0.2237  0.5577
 1077EOH      C 4312   6.658   1.224   3.344 -0.6810  0.2091  0.1206
 1077EOH      H 4313   6.881   1.115   3.179 -0.8444 -1.2654  0.2324
 1078EOH      O 4314   2.058   5.668   5.744 -0.0911  0.4605 -0.2098
 1078EOH      C 4315   1.937   5.718   5.686 -0.4028  0.2031  0.2202
 1078EOH      C 4316   1.877   5.816   5.790 -0.2759  0.3902  0.1190
 1078EOH      H 4317   2.128   5.711   5.697 -0.8894  1.2751 -0.6638
 1079EOH      O 4318   3.737   6.723   5.867 -0.4784  0.0048  0.0078
 1079EOH      C 4319   3.752   6.592   5.921  0.3240  0.0190 -0.1782
 1079EOH      C 4320   3.624   6.512   5.891  0.1898 -0.0407  0.5418
 1079EOH      H 4321   3.703   6.718   5.778  2.3215  1.5219 -1.1963
 1080EOH      O 4322   3.374   5.932   4.611 -0.4123  0.6025  0.2845
 1080EOH      C 4323   3.320   6.041   4.535 -0.5676  0.6158  0.4136
 1080EOH      C 4324   3.283   6.170   4.610 -0.3182  0.8340  0.1587
 1080EOH      H 4325   3.468   5.927   4.611 -0.4593 -1.2553 -2.2672
 1081EOH      O 4326   1.301   7.292   3.615 -0.8663  0.0475  0.6459
 1081EOH      C 4327   1.349   7.204   3.717  0.6105 -0.0185 -0.1015
 1081EOH      C 4328   1.299   7.059   3.713  0.2489  0.0949  0.2634
 1081EOH      H 4329   1.207   7.297   3.614 -0.7670  2.5166 -0.7467
 1082EOH      O 4330   6.122   7.552   2.941 -0.2335  0.0091  0.3280
 1082EOH      C 4331   6.130   7.654   3.041  0.4600  0.1677  0.1124
 1082EOH      C 4332   6.143   7.577   3.174 -0.9628 -0.6330 -0.2020
 1082EOH      H 4333   6.089   7.586   2.860  1.3290  1.8509  0.4381
 1083EOH      O 4334   3.255   0.927   5.682 -0.2624 -0.2249  0.0515
 1083EOH      C 4335   3.369   0.851   5.721 -0.3734 -0.4534 -0.0629
 1083EOH      C 4336   3.483   0.831   5.619 -0.3655 -0.3131 -0.0816
 1083EOH      H 4337   3.192   0.912   5.750 -0.3496  3.2873  0.8315
 1084EOH      O 4338   0.658   2.976   3.469  0.5405 -0.1292  0.9578
 1084EOH      C 4339   0.720   2.862   3.409  0.2844  0.1301  0.1924
 1084EOH      C 4340   0.789   2.784   3.523 -0.4691  0.3123  0.7759
 1084EOH      H 4341   0.649   2.963   3.562 -1.0206 -0.7672  0.7425
 1085EOH      O 4342   2.145   0.326   0.628  0.5171 -0.2581 -0.1006
 1085EOH      C 4343   2.094   0.221   0.711 -0.5041  0.1869 -0.1558
 1085EOH      C 4344   2.040   0.110   0.619  0.8058  0.2330 -0.9984
 1085EOH      H 4345   2.189   0.389   0.684 -0.5909  1.1723 -0.8154
 1086EOH      O 4346   0.911   2.342   1.058  0.5178 -0.0443  0.5529
 1086EOH      C 4347   0.854   2.218   1.015  0.6884  0.0790 -0.0353
 1086EOH      C 4348   0.731   2.253   0.930  0.1616 -0.8401  0.3388
 1086EOH      H 4349   0.978   2.372   0.998  0.7519  0.6810  1.1726
 1087EOH      O 4350   2.573   2.599   2.793 -0.4254  0.2091 -0.0996
 1087EOH      C 4351   2.559   2.595   2.650  0.6619 -1.0225 -0.1770
 1087EOH      C 4352   2.416   2.542   2.633  0.2986 -0.1285  0.0705
 1087EOH      H 4353   2.552   2.682   2.831  1.1035  1.1057 -1.1598
 1088EOH      O 4354   2.973   1.534   3.964  0.5470 -0.2604 -0.0475
 1088EOH      C 4355   2.918   1.488   4.088 -0.1912  0.0982 -0.2382
 1088EOH      C 4356   3.008   1.519   4.209  0.2260 -0.3208 -0.4383
 1088EOH      H 4357   2.902   1.561   3.908  2.6558  1.7745 -1.8190
 1089EOH      O 4358   2.280   1.326   0.377  0.2189 -0.0044 -0.0093
 1089EOH      C 4359   2.179   1.414   0.326  0.0330 -0.1214  0.1545
 1089EOH      C 4360   2.076   1.452   0.433 -0.3368 -0.0499 -0.2276
 1089EOH      H 4361   2.340   1.312   0.305  0.2922  0.3504 -0.0223
 1090EOH      O 4362   2.847   0.776   3.624  0.0662 -0.1572 -0.3115
 1090EOH      C 4363   2.799   0.713   3.743 -0.6423 -0.1591 -0.5970
 1090EOH      C 4364   2.725   0.824   3.820 -0.3185  0.0076 -0.5248
 1090EOH      H 4365   2.767   0.787   3.574 -0.7961 -2.0262  0.6422
 1091EOH      O 4366   3.639   5.944   4.645  0.0221  0.4499 -0.0079
 1091EOH      C 4367   3.696   6.067   4.599 -0.5291  0.5488 -0.4415
 1091EOH      C 4368   3.642   6.184   4.682 -0.1111  0.2235  0.2966
 1091EOH      H 4369   3.694   5.870   4.622  1.0883  0.7072  1.6874
 1092EOH      O 4370   0.829   4.391   5.894  0.1697  0.6184  0.6772
 1092EOH      C 4371   0.809   4.328   6.021 -0.1540 -0.9831 -0.1593
 1092EOH      C 4372   0.670   4.358   6.081  0.1085 -0.2894  0.1058
 1092EOH      H 4373   0.879   4.351   5.825 -1.9135 -0.2727 -0.3776
 1093EOH      O 4374   0.654   1.729   4.043 -0.0629  0.0781 -0.1395
 1093EOH      C 4375   0.702   1.750   3.910 -0.1056  0.2839 -0.1238
 1093EOH      C 4376   0.766   1.888   3.891  0.2328  0.0735 -0.5352
 1093EOH      H 4377   0.603   1.805   4.067 -0.9923 -0.7662  0.6180
 1094EOH      O 4378   4.433   2.108   5.221  0.3459  0.6275  0.1231
 1094EOH      C 4379   4.424   2.006   5.321 -0.1387  0.1870 -0.3709
 1094EOH      C 4380   4.447   1.867   5.258 -0.0283 -0.1687  0.4519
 1094EOH      H 4381   4.364   2.170   5.239 -0.6114 -0.5513  0.5655
 1095EOH      O 4382   0.724   6.114   0.688 -0.1096  0.0209 -0.3689
 1095EOH      C 4383   0.840   6.189   0.724 -0.0155 -0.2166 -0.1719
 1095EOH      C 4384   0.945   6.119   0.812  0.6768  0.4291 -0.4699
 1095EOH      H 4385   0.651   6.167   0.714  0.4196 -0.6404  2.6094
 1096EOH      O 4386   3.344   2.325   3.695  0.2953 -0.4848  0.0539
 1096EOH      C 4387   3.446   2.294   3.599 -0.2381  0.1624 -0.7311
 1096EOH      C 4388   3.436   2.143   3.568  0.4076  0.0281 -0.2922
 1096EOH      H 4389   3.344   2.266   3.768 -2.4133  0.4567  0.8613
 1097EOH      O 4390   1.849   5.907   7.334 -0.0617 -0.2378  0.0243
 1097EOH      C 4391   1.905   5.782   7.293 -0.0702 -0.3508  0.3493
 1097EOH      C 4392   1.802   5.670   7.274  0.1097 -0.3963 -0.3756
 1097EOH      H 4393   1.815   5.892   7.421 -1.0216  2.2481  0.1295
 1098EOH      O 4394   0.955   0.292   4.028 -0.0154 -0.3722  0.9644
 1098EOH      C 4395   1.006   0.371   4.135  0.1290  0.5260  0.2433
 1098EOH      C 4396   0.965   0.298   4.265  0.6755  0.6201  0.4701
 1098EOH      H 4397   0.869   0.324   4.004  0.8095  0.4368 -1.0057
 1099EOH      O 4398   0.683   4.099   4.702 -0.0572 -0.2069 -0.6941
 1099EOH      C 4399   0.639   4.233   4.728 -0.0872 -0.3380 -0.0659
 1099EOH      C 4400   0.492   4.242   4.682 -0.1279  0.5598  0.2306
 1099EOH      H 4401   0.666   4.045   4.778  0.9121 -1.6485 -1.4817
 1100EOH      O 4402   2.866   1.055   3.958 -0.2830 -0.3889 -0.0621
 1100EOH      C 4403   2.993   1.002   3.995 -0.1649  0.1654  0.3231
 1100EOH      C 4404   3.096   1.115   4.019  0.0516  0.0890 -0.2382
 1100EOH      H 4405   2.872   1.092   3.871  1.9779  0.5150  0.4430
 1101EOH      O 4406   5.263   3.003   4.466  0.8206 -0.4119  0.4419
 1101EOH      C 4407   5.339   2.909   4.392  0.5121 -0.1314 -0.2345
 1101EOH      C 4408   5.425   2.996   4.298  0.0173 -0.0197 -0.5851
 1101EOH      H 4409   5.197   2.947   4.505  0.9159 -0.3398  0.7063
 1102EOH      O 4410   3.384   2.084   1.667 -0.8575  0.7866 -0.0252
 1102EOH      C 4411   3.400   2.137   1.536 -0.1858 -0.6211 -0.5246
 1102EOH      C 4412   3.545   2.186   1.527 -0.2796 -0.2375  0.0058
 1102EOH      H 4413   3.377   2.159   1.724  2.6709  1.3172 -0.1784
 1103EOH      O 4414   1.270   4.082   5.658  0.0564  0.2870 -0.2201
 1103EOH      C 4415   1.269   3.973   5.564 -0.5543 -0.0213  0.1370
 1103EOH      C 4416   1.327   3.844   5.625 -0.1999 -0.0939 -0.3493
 1103EOH      H 4417   1.345   4.128   5.625  1.2108 -1.3467  0.0505
 1104EOH      O 4418   0.576   7.280   2.211  0.1387  0.2805 -0.7009
 1104EOH      C 4419   0.700   7.340   2.251  0.2819 -0.2133 -0.3910
 1104EOH      C 4420   0.809   7.243   2.201  0.4701 -0.2935  0.1759
 1104EOH      H 4421   0.515   7.318   2.272  3.7066  3.1921  1.2725
 1105EOH      O 4422   1.208   6.309   4.733  0.3537 -0.2383 -0.1391
 1105EOH      C 4423   1.195   6.172   4.773  0.1636 -0.1506  0.0996
 1105EOH      C 4424   1.159   6.156   4.922  0.0407 -0.2573  0.0580
 1105EOH      H 4425   1.230   6.322   4.642  0.0828 -2.8121 -0.6233
 1106EOH      O 4426   2.283   4.655   2.601 -0.1707 -0.1564 -0.3616
 1106EOH      C 4427   2.315   4.532   2.534  0.0303 -0.0243 -0.5070
 1106EOH      C 4428   2.415   4.450   2.617  0.2449  0.0353 -0.7066
 1106EOH      H 4429   2.336   4.723   2.563 -0.9879  0.7806  0.1732
 1107EOH      O 4430   4.037   6.905   3.044  0.8903 -0.1295  0.1278
 1107EOH      C 4431   3.971   6.957   3.160  0.5050  0.4192 -0.3335
 1107EOH      C 4432   4.024   7.099   3.185 -0.1904  0.7036 -0.4839
 1107EOH      H 4433   4.001   6.949   2.968  0.3621 -0.3448  0.2508
 1108EOH      O 4434   2.837   3.401   4.722  0.3920 -0.1461  0.0209
 1108EOH      C 4435   2.898   3.444   4.601 -0.1379 -0.1142 -0.2350
 1108EOH      C 4436   2.842   3.578   4.552 -0.0405  0.0166  0.0150
 1108EOH      H 4437   2.804   3.313   4.708  1.5584 -0.6912  0.6234
 1109EOH      O 4438   2.486   7.549   1.521 -0.1413 -0.3682 -0.4032
 1109EOH      C 4439   2.512   7.664   1.602  0.3051 -0.2286 -0.7472
 1109EOH      C 4440   2.403   7.663   1.711  0.5230 -0.0410 -0.5258
 1109EOH      H 4441   2.423   7.568   1.453  0.7291  0.5486 -0.9524
 1110EOH      O 4442   2.675   4.703   2.484 -0.1317 -0.4691  0.3912
 1110EOH      C 4443   2.711   4.702   2.345 -0.0800 -0.5664  0.4054
 1110EOH      C 4444   2.594   4.684   2.248 -0.5052 -0.1451  0.8401
 1110EOH      H 4445   2.752   4.734   2.528 -0.0851  1.7596 -1.1478
 1111EOH      O 4446   3.505   1.067   7.452 -0.0687  0.2452  0.2387
 1111EOH      C 4447   3.638   1.037   7.497  0.0280  0.2905 -0.0179
 1111EOH      C 4448   3.712   1.155   7.563  0.2756  0.3162 -0.3383
 1111EOH      H 4449   3.451   1.068   7.529  0.7295 -0.4818  0.8113
 1112EOH      O 4450   2.350   5.141   7.712  0.4582  0.1608  0.6570
 1112EOH      C 4451   2.335   5.027   7.628 -0.2675  0.5014  0.3186
 1112EOH      C 4452   2.481   4.979   7.615 -0.4379  0.2186 -0.5725
 1112EOH      H 4453   2.393   5.212   7.668  0.3468  0.0070  0.3013
 1113EOH      O 4454   3.224   0.632   4.257  0.6657  0.4553 -0.0037
 1113EOH      C 4455   3.244   0.522   4.346 -0.4131  0.3182  0.0749
 1113EOH      C 4456   3.194   0.382   4.306  0.0014  0.0550  0.4710
 1113EOH      H 4457   3.171   0.689   4.310  0.1463 -0.1928  0.1800
 1114EOH      O 4458   0.368   0.935   4.482  0.0761 -0.1369  0.2571
 1114EOH      C 4459   0.458   1.045   4.473  0.0738 -0.1553  0.0059
 1114EOH      C 4460   0.419   1.162   4.566  0.5348  0.0849 -0.1020
 1114EOH      H 4461   0.419   0.856   4.476 -0.8927 -0.7255 -0.3942
 1115EOH      O 4462   5.072   1.882   4.698 -0.5119 -0.2082 -0.2277
 1115EOH      C 4463   5.183   1.802   4.657 -0.6140 -0.4310 -0.0731
 1115EOH      C 4464   5.183   1.669   4.735 -0.5924 -0.3515  0.0638
 1115EOH      H 4465   5.108   1.964   4.729 -1.8524  0.0263  0.7611
 1116EOH      O 4466   4.775   5.716   3.966 -0.4251 -0.3896 -0.7069
 1116EOH      C 4467   4.872   5.742   3.865 -0.0692 -0.1806 -0.3130
 1116EOH      C 4468   4.983   5.823   3.935  0.0985 -0.2877 -0.4534
 1116EOH      H 4469   4.719   5.645   3.937 -0.7989 -0.2638 -0.2982
 1117EOH      O 4470   0.585   4.177   7.336  0.3976  0.3676 -0.3584
 1117EOH      C 4471   0.565   4.095   7.451 -0.2472  0.0098 -0.7247
 1117EOH      C 4472   0.578   4.182   7.578 -0.4236 -0.1668 -0.5825
 1117EOH      H 4473   0.528   4.144   7.269  2.1725 -0.2675 -1.5886
 1118EOH      O 4474   1.309   5.685   3.073  0.3589  0.0511  0.2134
 1118EOH      C 4475   1.243   5.810   3.098  0.2358  0.0054  0.1154
 1118EOH      C 4476   1.342   5.923   3.065  0.1043  0.0402 -0.1630
 1118EOH      H 4477   1.397   5.695   3.106  0.7290  0.7083 -0.9400
 1119EOH      O 4478   3.189   0.467   7.553  0.2630 -0.0754 -0.3979
 1119EOH      C 4479   3.138   0.599   7.574 -0.3249 -0.3750  0.0648
 1119EOH      C 4480   3.258   0.679   7.626 -0.5376 -0.0579  0.0674
 1119EOH      H 4481   3.235   0.445   7.633  1.2220 -1.4759 -1.2954
 1120EOH      O 4482   2.220   1.627   1.669  0.2340 -0.1669 -0.5582
 1120EOH      C 4483   2.143   1.746   1.684  0.1566 -0.2054 -0.6473
 1120EOH      C 4484   2.232   1.870   1.657  0.4643 -0.3154 -0.1572
 1120EOH      H 4485   2.226   1.605   1.578  3.2909 -1.1125 -0.1818
 1121EOH      O 4486   2.539   3.042   0.419 -0.1369 -0.1311 -0.0467
 1121EOH      C 4487   2.538   2.905   0.378 -0.1702 -0.2379  0.3111
 1121EOH      C 4488   2.595   2.892   0.236 -0.1158  0.7860  0.2299
 1121EOH      H 4489   2.486   3.033   0.497 -0.9194  0.8605 -0.4411
 1122EOH      O 4490   3.583   4.352   4.295  0.3158  0.6303  0.4535
 1122EOH      C 4491   3.636   4.448   4.387  0.2897  0.6043  0.4964
 1122EOH      C 4492   3.690   4.370   4.509  0.2318 -0.2300 -0.0044
 1122EOH      H 4493   3.497   4.373   4.263 -0.2092 -1.1248  0.6673
 1123EOH      O 4494   7.558   7.765   3.498 -0.0486  0.4769  0.1583
 1123EOH      C 4495   7.586   7.787   3.637  0.0691  0.4466  0.1399
 1123EOH      C 4496   7.443   7.779   3.693 -0.0191  0.8215 -0.0287
 1123EOH      H 4497   7.608   7.693   3.462 -1.2888  0.9825 -2.7478
 1124EOH      O 4498   1.440   5.195   6.300 -0.2070  0.9587  0.0744
 1124EOH      C 4499   1.520   5.258   6.400  0.3335  0.4575 -0.0435
 1124EOH      C 4500   1.418   5.323   6.496  0.5674  0.0696  0.4739
 1124EOH      H 4501   1.416   5.108   6.328  1.0272  0.8523  0.8562
 1125EOH      O 4502   2.497   0.689   7.288 -0.6358 -0.2892 -0.4352
 1125EOH      C 4503   2.555   0.632   7.406  0.3435  0.2668 -0.6388
 1125EOH      C 4504   2.460   0.650   7.526 -0.0422 -0.2732 -0.8633
 1125EOH      H 4505   2.546   0.657   7.213 -0.0651 -0.4338 -0.0007
 1126EOH      O 4506   2.151   3.559   2.615  0.3283  0.1231  0.2574
 1126EOH      C 4507   2.153   3.700   2.635  0.2224  0.2046 -0.2871
 1126EOH      C 4508   2.014   3.755   2.673  0.0674 -0.1995 -0.2766
 1126EOH      H 4509   2.098   3.538   2.540  1.8565  0.2192 -0.8836
 1127EOH      O 4510   7.750   1.420   3.105  0.5166 -0.3114 -0.2797
 1127EOH      C 4511   7.621   1.478   3.121  0.8975  0.2554  0.8027
 1127EOH      C 4512   7.596   1.614   3.051  0.8008  0.2736  0.8732
 1127EOH      H 4513   7.751   1.327   3.089  0.9632 -0.8238  2.4739
 1128EOH      O 4514   0.136   7.887   2.204 -0.2217 -0.1552 -0.2005
 1128EOH      C 4515   0.002   7.837   2.193 -0.1746 -0.4727  0.6259
 1128EOH      C 4516  -0.089   7.959   2.168  0.2670 -0.2727 -0.0296
 1128EOH      H 4517   0.163   7.929   2.124  2.1501  1.2700  1.2715
 1129EOH      O 4518   4.157   5.500   5.524 -0.2325  0.1340  0.5431
 1129EOH      C 4519   4.024   5.452   5.547 -0.2291 -0.1670 -0.0731
 1129EOH      C 4520   4.001   5.382   5.682 -0.2299 -0.0659 -0.0216
 1129EOH      H 4521   4.174   5.485   5.433 -2.9092  1.9495 -0.3302
 1130EOH      O 4522   2.316   3.621   5.114 -0.3624  0.2519  0.3813
 1130EOH      C 4523   2.301   3.544   5.233  0.1573 -0.4147  0.0199
 1130EOH      C 4524   2.409   3.595   5.329 -0.2927  0.1512  0.2323
 1130EOH      H 4525   2.318   3.567   5.036  2.8280 -0.0492  0.6102
 1131EOH      O 4526   2.649   3.324   0.953 -0.0216 -0.3983  0.1043
 1131EOH      C 4527   2.690   3.445   1.016 -0.0554 -0.1299 -0.3861
 1131EOH      C 4528   2.668   3.570   0.928  0.0858  0.0245 -0.2044
 1131EOH      H 4529   2.558   3.313   0.977 -0.0767 -0.9374 -0.3349
 1132EOH      O 4530   1.551   6.133   1.491  0.0753  0.4360  0.1967
 1132EOH      C 4531   1.645   6.064   1.573 -0.0820  0.2714  0.2404
 1132EOH      C 4532   1.641   5.914   1.539  0.0424  0.3256 -0.0092
 1132EOH      H 4533   1.575   6.126   1.400 -0.3487 -2.0996  0.2243
 1133EOH      O 4534   0.427   2.488   7.151 -0.1566  0.4737  0.0819
 1133EOH      C 4535   0.291   2.510   7.189 -0.2413 -0.3424  0.2557
 1133EOH      C 4536   0.304   2.605   7.310 -0.9509  0.3084 -0.1686
 1133EOH      H 4537   0.471   2.433   7.214  2.7216  1.4925 -0.9200
 1134EOH      O 4538   3.698   1.001   4.725  0.1035 -0.3028 -0.5189
 1134EOH      C 4539   3.761   0.879   4.765  0.1999 -0.0003  0.2524
 1134EOH      C 4540   3.752   0.793   4.638 -0.0318 -0.3515  0.5052
 1134EOH      H 4541   3.711   1.062   4.795 -0.4352  0.1232 -0.7909
 1135EOH      O 4542   3.329   6.825   4.462  0.6187 -0.7164  0.6765
 1135EOH      C 4543   3.266   6.796   4.586 -0.0355  0.4565  0.6197
 1135EOH      C 4544   3.127   6.861   4.579 -0.1085  0.2251 -0.0956
 1135EOH      H 4545   3.423   6.836   4.471  0.7905 -2.1709  0.8320
 1136EOH      O 4546   3.925   2.893   5.444 -0.3216  0.4436 -0.1641
 1136EOH      C 4547   3.871   2.773   5.386  0.1571  0.2082 -0.1250
 1136EOH      C 4548   3.720   2.784   5.359  0.0747 -0.1514  0.1893
 1136EOH      H 4549   4.019   2.881   5.439 -0.3600  0.3328 -0.6179
 1137EOH      O 4550   4.397   3.046   7.098  0.1441  0.1037 -0.1629
 1137EOH      C 4551   4.445   2.953   7.001 -0.3480 -0.2891 -0.0319
 1137EOH      C 4552   4.375   2.984   6.867 -0.4512 -0.3523  0.0081
 1137EOH      H 4553   4.379   3.004   7.180  0.1804 -1.0906 -0.7613
 1138EOH      O 4554   2.188   3.408   2.284 -0.0362 -1.1685  0.2676
 1138EOH      C 4555   2.223   3.274   2.321  0.0856 -1.0003  0.7736
 1138EOH      C 4556   2.255   3.197   2.191  0.3130  0.5596 -0.1192
 1138EOH      H 4557   2.245   3.426   2.212  0.0803  3.2308  1.3433
 1139EOH      O 4558   3.345   6.605   1.888  0.0081 -0.4829  0.1823
 1139EOH      C 4559   3.328   6.617   2.029 -0.0337  0.0216  0.1346
 1139EOH      C 4560   3.177   6.640   2.052 -0.0451 -0.0695  0.1519
 1139EOH      H 4561   3.344   6.692   1.850  1.1767 -0.3515  0.4410
 1140EOH      O 4562   0.625   1.165   2.814  0.0418 -0.4800 -0.5083
 1140EOH      C 4563   0.671   1.267   2.724  0.7247 -0.2773  0.0681
 1140EOH      C 4564   0.784   1.223   2.629  0.2285 -0.3000 -0.5163
 1140EOH      H 4565   0.567   1.206   2.876  0.8284 -0.8616  0.4961
 1141EOH      O 4566   2.495   4.068   3.433  0.1404  0.2132 -0.6104
 1141EOH      C 4567   2.500   3.964   3.531 -0.3710  0.4115 -0.3729
 1141EOH      C 4568   2.528   4.034   3.665 -0.1471 -0.1440 -0.1284
 1141EOH      H 4569   2.434   4.048   3.364  0.4480 -0.2593 -0.7530
 1142EOH      O 4570   2.140   1.772   4.357 -0.0598  0.2848  0.1451
 1142EOH      C 4571   2.057   1.703   4.451 -0.0694 -0.1412 -0.1738
 1142EOH      C 4572   2.077   1.766   4.590 -0.5267  0.2280 -0.2771
 1142EOH      H 4573   2.128   1.741   4.268 -0.7467  0.5595  0.1360
 1143EOH      O 4574   3.295   6.502   1.663 -0.3239 -0.0360 -0.2554
 1143EOH      C 4575   3.171   6.435   1.642 -0.0684 -0.6002  0.0162
 1143EOH      C 4576   3.162   6.306   1.725  0.1251 -0.1765  0.6969
 1143EOH      H 4577   3.308   6.515   1.755  1.6276 -1.8020 -0.2449
 1144EOH      O 4578   5.243   4.915   6.285 -0.2508 -0.0922 -0.4613
 1144EOH      C 4579   5.135   4.893   6.375  0.1516  0.1655  0.0860
 1144EOH      C 4580   5.073   5.027   6.421  0.3743  0.3720 -0.2106
 1144EOH      H 4581   5.212   4.976   6.220  0.0181  1.1881  0.6036
 1145EOH      O 4582   3.576   2.549   2.747  0.1131 -0.0930  0.0223
 1145EOH      C 4583   3.715   2.551   2.783  0.0495  0.0839  0.2594
 1145EOH      C 4584   3.766   2.408   2.757  0.1493  0.2375 -0.4131
 1145EOH      H 4585   3.537   2.634   2.760 -2.8654 -1.6093  1.6188
 1146EOH      O 4586   4.867   4.024   6.240  0.1402  0.0799 -0.5792
 1146EOH      C 4587   4.864   3.892   6.184 -0.2966 -0.0795 -0.1887
 1146EOH      C 4588   4.785   3.879   6.052 -0.5471  1.0072 -0.1512
 1146EOH      H 4589   4.859   4.017   6.334 -2.1859  0.9759 -0.6917
 1147EOH      O 4590   1.223   1.022   1.610 -0.3147 -0.0496  0.1768
 1147EOH      C 4591   1.213   1.066   1.475  0.2396  0.8830  0.4365
 1147EOH      C 4592   1.085   1.141   1.433  0.1330  0.1787 -0.5305
 1147EOH      H 4593   1.242   1.092   1.671  1.5370 -0.5639  0.2247
 1148EOH      O 4594   2.092   3.245   4.947 -0.7070  0.0265 -0.0346
 1148EOH      C 4595   2.082   3.108   4.908 -0.5209 -0.2840  0.9781
 1148EOH      C 4596   2.190   3.030   4.985  0.3654 -0.1418 -0.0977
 1148EOH      H 4597   2.004   3.275   4.929 -0.4133  0.9361  0.0006
 1149EOH      O 4598   2.134   6.857   0.238 -0.2434 -0.1883  0.4343
 1149EOH      C 4599   2.122   6.795   0.366  0.5151 -0.2027  0.5023
 1149EOH      C 4600   1.981   6.739   0.388  0.3946  0.2125  0.7896
 1149EOH      H 4601   2.167   6.788   0.182 -1.9600 -0.1707 -0.6351
 1150EOH      O 4602   2.617   5.505   3.789  0.4962  0.2946  0.3316
 1150EOH      C 4603   2.712   5.444   3.702  0.0452 -0.1031  0.1143
 1150EOH      C 4604   2.807   5.383   3.808  0.3061  0.5242  0.2421
 1150EOH      H 4605   2.543   5.510   3.730 -0.6720  0.7511  1.8043
 1151EOH      O 4606   4.105   0.151   5.429  0.2030  0.0591 -0.1813
 1151EOH      C 4607   4.049   0.057   5.337  0.4073 -0.1181 -0.1248
 1151EOH      C 4608   4.161  -0.040   5.292  0.0296 -0.7081  0.1960
 1151EOH      H 4609   4.119   0.232   5.382  0.3052 -0.8001 -1.6840
 1152EOH      O 4610   4.616   5.863   5.308 -0.1825  0.6641 -0.1458
 1152EOH      C 4611   4.621   5.854   5.450 -0.4163  0.2694 -0.1607
 1152EOH      C 4612   4.712   5.744   5.506 -0.4196  0.3884  0.0840
 1152EOH      H 4613   4.555   5.930   5.281 -0.2342 -0.0629 -1.9681
 1153EOH      O 4614   3.016   4.981   5.865  0.2975 -0.1125  0.1809
 1153EOH      C 4615   2.898   4.904   5.891 -0.0671  0.3549 -0.0920
 1153EOH      C 4616   2.801   4.921   5.773  0.2836 -0.4153 -0.4961
 1153EOH      H 4617   2.993   5.033   5.789 -0.0097  0.3203  0.5704
 1154EOH      O 4618   3.745   7.005   4.315 -0.1035 -0.6122  0.0593
 1154EOH      C 4619   3.723   7.080   4.196  0.1951 -0.0253  0.3720
 1154EOH      C 4620   3.573   7.105   4.178  0.2195  0.0475  0.2657
 1154EOH      H 4621   3.834   6.974   4.305 -0.1772 -0.5505 -0.8314
 1155EOH      O 4622   3.633   4.167   7.244  0.1712  0.3909  0.0200
 1155EOH      C 4623   3.490   4.166   7.243  0.1730  0.0660  0.0039
 1155EOH      C 4624   3.452   4.020   7.212 -0.1293  0.1207  0.1150
 1155EOH      H 4625   3.664   4.134   7.161 -0.4860  0.5716 -0.3053
 1156EOH      O 4626   3.378   6.868   1.749  0.2418  0.1851 -0.2332
 1156EOH      C 4627   3.365   7.010   1.733 -0.1069  0.1653 -0.1543
 1156EOH      C 4628   3.347   7.078   1.870  0.1473  0.2421 -0.1577
 1156EOH      H 4629   3.404   6.826   1.669 -1.9214  2.0954 -2.0198
 1157EOH      O 4630   0.770   0.463   5.996 -0.3552 -0.2553 -0.0351
 1157EOH      C 4631   0.754   0.343   6.073  0.1859 -0.0850  0.3495
 1157EOH      C 4632   0.778   0.370   6.222 -0.3695  0.0230  0.4175
 1157EOH      H 4633   0.715   0.461   5.920 -0.1775 -0.9985 -0.1499
 1158EOH      O 4634   0.295   1.515   1.178 -0.6436 -0.5443  0.5466
 1158EOH      C 4635   0.390   1.580   1.264 -0.3105 -0.2420 -0.0423
 1158EOH      C 4636   0.486   1.683   1.204  0.7034 -0.7297  0.7289
 1158EOH      H 4637   0.350   1.453   1.133 -0.0464 -0.3293  0.9769
 1159EOH      O 4638   1.854   3.781   1.070 -0.6902 -0.3312  0.0195
 1159EOH      C 4639   1.814   3.791   0.933 -0.7288 -0.0203  0.0542
 1159EOH      C 4640   1.848   3.931   0.877 -0.3139 -0.1358  0.0143
 1159EOH      H 4641   1.818   3.699   1.099 -2.7954  0.9277  1.0679
 1160EOH      O 4642   1.574   3.512   6.030 -0.1353  0.1507 -0.0343
 1160EOH      C 4643   1.441   3.460   6.031 -0.2497  0.4438 -0.1194
 1160EOH      C 4644   1.345   3.571   5.983 -0.0601  0.4680 -0.4408
 1160EOH      H 4645   1.576   3.595   6.075  1.0322 -0.3794  0.9244
 1161EOH      O 4646   0.356   7.810   2.282 -0.7041  0.0474 -0.1127
 1161EOH      C 4647   0.445   7.917   2.249 -0.2021 -0.3317 -0.0106
 1161EOH      C 4648   0.514   7.976   2.374 -0.3502 -1.0663  0.4206
 1161EOH      H 4649   0.265   7.834   2.273 -1.3695 -2.7430 -1.3058
 1162EOH      O 4650   7.666   1.272   2.732  0.3758 -0.4012  0.4422
 1162EOH      C 4651   7.699   1.411   2.717 -0.0672 -0.3501 -0.0736
 1162EOH      C 4652   7.569   1.492   2.699  0.1856  0.1002  0.1404
 1162EOH      H 4653   7.740   1.221   2.703 -0.0328 -2.4552  2.8902
 1163EOH      O 4654   6.789   6.104   3.933 -0.3932 -0.0245 -0.1929
 1163EOH      C 4655   6.921   6.092   3.878 -0.4542 -0.1217 -0.3173
 1163EOH      C 4656   6.930   6.165   3.743 -0.4739 -0.0612 -0.2859
 1163EOH      H 4657   6.736   6.031   3.908 -1.2253  0.6230 -0.3363
 1164EOH      O 4658   4.903   2.111   3.794 -0.3876 -0.0198 -0.1343
 1164EOH      C 4659   4.880   2.162   3.662 -0.5989  0.1748 -0.0239
 1164EOH      C 4660   4.841   2.053   3.561 -0.0448  0.0154 -0.0659
 1164EOH      H 4661   4.817   2.080   3.818  0.0507 -0.7161  0.5853
 1165EOH      O 4662   1.885   5.254   3.722 -0.2622 -0.5188 -0.1880
 1165EOH      C 4663   1.959   5.356   3.657  0.1002 -0.5761  0.1353
 1165EOH      C 4664   1.866   5.414   3.549 -0.3210 -0.7909  0.3840
 1165EOH      H 4665   1.875   5.182   3.661 -1.4830 -1.0196  0.5585
 1166EOH      O 4666   3.302   5.533   0.131 -0.3957  0.5042 -0.2319
 1166EOH      C 4667   3.180   5.557   0.202 -0.1359 -0.2946  0.4989
 1166EOH      C 4668   3.083   5.438   0.203  0.1963 -0.5735 -0.4025
 1166EOH      H 4669   3.369   5.594   0.156 -0.2392 -0.0098  0.6397
 1167EOH      O 4670   3.345   2.193   7.820  0.1897  0.1645 -0.1142
 1167EOH      C 4671   3.261   2.306   7.796 -0.1294 -0.0662 -0.0968
 1167EOH      C 4672   3.176   2.284   7.669  0.0839 -0.6531 -0.1427
 1167EOH      H 4673   3.396   2.205   7.899 -4.5398 -1.6091  3.5559
 1168EOH      O 4674   2.685   6.407   3.261  0.1933 -0.2026 -0.2498
 1168EOH      C 4675   2.801   6.336   3.216  0.3718  0.0045 -0.1182
 1168EOH      C 4676   2.932   6.361   3.292  0.5484 -0.0828 -0.3930
 1168EOH      H 4677   2.608   6.404   3.208 -0.7789  0.9551  1.0557
 1169EOH      O 4678   2.186   6.380   1.447 -0.1458  0.0357  0.2835
 1169EOH      C 4679   2.176   6.509   1.508  0.8184  0.1539  0.1911
 1169EOH      C 4680   2.087   6.505   1.634  0.1254  0.2455 -0.2983
 1169EOH      H 4681   2.229   6.394   1.364  0.8002 -0.0557  0.7479
 1170EOH      O 4682   2.239   5.764   5.586 -0.0437  0.0547  0.0532
 1170EOH      C 4683   2.304   5.691   5.482  0.0443  0.2045  0.0031
 1170EOH      C 4684   2.219   5.702   5.354  0.0849  0.0097 -0.0412
 1170EOH      H 4685   2.291   5.839   5.611 -1.1570  0.4662  1.2086
 1171EOH      O 4686   4.009   3.803   5.222  0.0648  0.0042 -0.1303
 1171EOH      C 4687   4.000   3.671   5.278 -0.1454  0.2711  0.4716
 1171EOH      C 4688   4.122   3.649   5.369  0.2627  0.2237 -0.0803
 1171EOH      H 4689   3.933   3.815   5.167  0.2048  2.5427  0.1844
 1172EOH      O 4690   4.694   4.973   4.755  0.0881 -0.1147 -0.4208
 1172EOH      C 4691   4.673   5.088   4.672  0.2169 -0.0941 -0.4239
 1172EOH      C 4692   4.767   5.196   4.731  0.1925 -0.2560 -0.0907
 1172EOH      H 4693   4.640   4.908   4.713  1.0797 -0.7841 -0.6777
 1173EOH      O 4694   4.415   3.076   3.338  0.4083 -0.2600  0.2764
 1173EOH      C 4695   4.387   2.950   3.276 -0.3305  0.2635 -0.4488
 1173EOH      C 4696   4.502   2.859   3.320  0.2626  0.9468 -0.5682
 1173EOH      H 4697   4.351   3.141   3.316  1.0218  0.5120  0.7442
 1174EOH      O 4698   1.483   6.305   7.314  0.4182  0.0179  0.3069
 1174EOH      C 4699   1.443   6.442   7.328  0.0488 -0.0782  0.2026
 1174EOH      C 4700   1.441   6.511   7.191 -0.1002  0.2063  0.3462
 1174EOH      H 4701   1.558   6.301   7.256  1.2633 -0.3081  1.4054
 1175EOH      O 4702   0.585   7.366   6.792  0.0449  0.0938 -0.6054
 1175EOH      C 4703   0.451   7.414   6.783 -0.1238 -0.3188 -0.3156
 1175EOH      C 4704   0.382   7.378   6.650  0.0391 -0.3493 -0.3924
 1175EOH      H 4705   0.620   7.392   6.876  3.0456  1.4253 -2.1813
 1176EOH      O 4706   1.650   3.613   2.051  0.2844  0.1913 -0.0543
 1176EOH      C 4707   1.734   3.619   1.936  0.1716  0.4566 -0.1245
 1176EOH      C 4708   1.657   3.579   1.808  0.7235  0.2278 -0.3863
 1176EOH      H 4709   1.609   3.531   2.071 -0.5587  0.4374 -0.7189
 1177EOH      O 4710   1.227   3.416   4.392  0.0499 -0.7840 -0.3007
 1177EOH      C 4711   1.128   3.513   4.428  0.7537 -0.0211 -0.3983
 1177EOH      C 4712   1.155   3.648   4.361  0.2199  0.3233  0.0778
 1177EOH      H 4713   1.311   3.452   4.416 -0.4035  1.0189 -1.3282
 1178EOH      O 4714   2.214   1.209   5.719 -0.0081 -0.4177 -0.1115
 1178EOH      C 4715   2.339   1.173   5.780 -0.0102  0.5482  0.4568
 1178EOH      C 4716   2.428   1.141   5.659 -0.5903  0.1564  0.1351
 1178EOH      H 4717   2.157   1.216   5.793 -2.0440 -1.2559 -1.5341
 1179EOH      O 4718   3.570   5.591   5.255  0.3606 -0.8792 -0.4219
 1179EOH      C 4719   3.686   5.674   5.247 -0.1597 -0.0539  0.4849
 1179EOH      C 4720   3.759   5.704   5.380  0.0971  0.3607  0.2537
 1179EOH      H 4721   3.598   5.503   5.234 -0.5698 -1.6394  1.3617
 1180EOH      O 4722   1.785   1.857   0.668 -0.3172 -0.2955 -0.0938
 1180EOH      C 4723   1.790   1.836   0.809 -0.0830  0.1998 -0.0272
 1180EOH      C 4724   1.930   1.842   0.872  0.1505  0.0220 -0.5218
 1180EOH      H 4725   1.836   1.932   0.642 -1.1425  0.0726 -0.6661
 1181EOH      O 4726   4.096   5.424   2.742  0.3234  0.1042 -0.1349
 1181EOH      C 4727   4.217   5.411   2.667  0.0679  0.5148 -0.6200
 1181EOH      C 4728   4.219   5.266   2.614  0.3158  0.1169  0.4643
 1181EOH      H 4729   4.093   5.514   2.768 -1.7750 -0.3074  1.1605
 1182EOH      O 4730   4.142   2.058   5.732 -0.1566  0.0099  0.1997
 1182EOH      C 4731   4.062   1.941   5.714 -0.3732  0.2296 -0.2656
 1182EOH      C 4732   4.090   1.891   5.571  0.4581  0.3164 -0.1346
 1182EOH      H 4733   4.175   2.054   5.821  0.2100  1.7985  0.1542
 1183EOH      O 4734   3.220   6.506   5.973 -0.1033  0.2084  0.1912
 1183EOH      C 4735   3.189   6.633   5.916 -0.0536 -0.1333 -0.6074
 1183EOH      C 4736   3.057   6.607   5.842 -0.0250 -0.3241 -0.5912
 1183EOH      H 4737   3.225   6.507   6.067 -1.4011 -0.4077  0.2853
 1184EOH      O 4738   0.864   5.678   1.155  0.4002 -0.5052  0.1896
 1184EOH      C 4739   0.973   5.735   1.081 -0.0361 -0.1094 -0.1459
 1184EOH      C 4740   1.082   5.799   1.168 -0.6552  0.1981  0.4019
 1184EOH      H 4741   0.794   5.647   1.100  0.1796  0.2600  0.0313
 1185EOH      O 4742   2.115   2.850   6.089 -0.4291  0.0480 -0.5261
 1185EOH      C 4743   2.151   2.934   5.978  0.4250  0.3257 -0.0421
 1185EOH      C 4744   2.022   2.971   5.902  0.3452  0.0777 -0.0308
 1185EOH      H 4745   2.024   2.857   6.113 -0.4684 -0.5099 -0.5158
 1186EOH      O 4746   2.427   6.754   2.057 -0.0727 -1.0235  0.2062
 1186EOH      C 4747   2.292   6.800   2.049  0.0113 -0.7198  0.5235
 1186EOH      C 4748   2.225   6.711   1.943  0.0345  0.3193 -0.3624
 1186EOH      H 4749   2.457   6.722   1.973 -0.8971  0.4401 -0.6577
 1187EOH      O 4750   3.195   4.952   0.827 -0.1149  0.6800 -0.7754
 1187EOH      C 4751   3.163   4.866   0.717  0.4183 -0.3122 -0.1605
 1187EOH      C 4752   3.050   4.769   0.755  0.0268  0.0175 -0.4747
 1187EOH      H 4753   3.142   5.029   0.812 -2.0649 -0.6857 -1.1009
 1188EOH      O 4754   2.540   5.682   3.957  0.3636  0.3300  0.2051
 1188EOH      C 4755   2.618   5.753   4.053  0.0611  0.1788  0.5654
 1188EOH      C 4756   2.614   5.900   4.007  0.0115  0.1324  0.4229
 1188EOH      H 4757   2.599   5.620   3.919 -0.2024  1.5146 -2.7042
 1189EOH      O 4758   5.549   0.956   3.904  0.0468 -0.1987 -0.0078
 1189EOH      C 4759   5.487   0.927   3.779 -0.1078  0.0953 -0.0003
 1189EOH      C 4760   5.535   0.788   3.731  0.0549 -0.0505  0.5821
 1189EOH      H 4761   5.521   1.041   3.935 -0.2584  0.1458 -1.2010
 1190EOH      O 4762   2.083   7.897   1.197 -0.1212 -0.6124  0.4574
 1190EOH      C 4763   1.998   7.921   1.084  0.3930  0.0906  0.2133
 1190EOH      C 4764   1.868   7.986   1.135  0.3419  0.0365  0.1521
 1190EOH      H 4765   2.050   7.823   1.246 -0.6869 -0.3109  0.5376
 1191EOH      O 4766   2.793   3.964   4.347 -0.4291  0.2407  0.6754
 1191EOH      C 4767   2.917   3.900   4.379  0.1185  0.6478 -0.5976
 1191EOH      C 4768   3.013   3.997   4.450 -0.0160  0.1513  0.2787
 1191EOH      H 4769   2.766   4.002   4.429 -1.0747 -0.2217  0.6770
 1192EOH      O 4770   0.852   5.379   0.143 -0.5602 -0.3330  0.2352
 1192EOH      C 4771   0.730   5.399   0.215 -0.8618 -0.7244 -0.1635
 1192EOH      C 4772   0.626   5.454   0.115 -0.2835  0.4741 -0.1044
 1192EOH      H 4773   0.855   5.290   0.111  2.4104 -0.4704  0.7832
 1193EOH      O 4774   7.816   6.644   2.822 -0.1056  0.0669  0.3130
 1193EOH      C 4775   7.843   6.683   2.956 -0.1744  0.2363  0.2782
 1193EOH      C 4776   7.716   6.737   3.025 -0.5911 -0.1082 -0.2172
 1193EOH      H 4777   7.769   6.562   2.829  1.7869 -1.0126  0.7102
 1194EOH      O 4778   0.393   7.358   5.999  0.2333 -0.6695 -0.1327
 1194EOH      C 4779   0.278   7.438   5.969  0.2990 -0.3277  0.5098
 1194EOH      C 4780   0.150   7.352   5.973 -0.2285  0.4138 -0.3170
 1194EOH      H 4781   0.456   7.418   6.037 -1.5948  1.4798 -0.4179
 1195EOH      O 4782   1.459   5.254   7.743 -0.0007 -0.1012  0.0675
 1195EOH      C 4783   1.400   5.377   7.787 -0.4848 -0.0505 -0.7073
 1195EOH      C 4784   1.324   5.384   7.920 -0.0007 -0.6538 -0.3974
 1195EOH      H 4785   1.521   5.229   7.809  0.7805  1.7803  0.0775
 1196EOH      O 4786   3.213   2.528   3.576  0.0961 -0.2438  0.3903
 1196EOH      C 4787   3.168   2.499   3.444  0.1702  0.2262  0.2613
 1196EOH      C 4788   3.018   2.464   3.448  0.1792  0.1046 -0.3982
 1196EOH      H 4789   3.254   2.453   3.618 -1.6876 -1.7681 -0.5112
 1197EOH      O 4790   2.239   6.160   4.273 -0.0903  0.1269  0.5322
 1197EOH      C 4791   2.128   6.241   4.234 -0.1202 -0.0296  0.2915
 1197EOH      C 4792   1.999   6.167   4.195  0.0902  0.0635 -0.6056
 1197EOH      H 4793   2.311   6.205   4.231 -1.8055  0.5700 -2.0193
 1198EOH      O 4794   1.115   3.315   0.162  0.7186 -0.0020  0.1807
 1198EOH      C 4795   1.133   3.225   0.052  0.1142  0.2739 -0.1476
 1198EOH      C 4796   1.264   3.253  -0.024  0.0887 -0.6714 -0.5409
 1198EOH      H 4797   1.022   3.325   0.174  0.7877  1.8180 -0.5971
 1199EOH      O 4798   1.529   6.106   3.396  0.1823 -0.2504  0.2716
 1199EOH      C 4799   1.508   6.048   3.525  0.3528  0.6809  0.7232
 1199EOH      C 4800   1.642   6.006   3.588  0.4179  0.4136  0.4047
 1199EOH      H 4801   1.468   6.178   3.388 -1.7968 -1.5263  3.1032
 1200EOH      O 4802   4.379   1.414   6.728 -0.5679  0.2121 -0.1954
 1200EOH      C 4803   4.382   1.514   6.829 -0.2204  0.1151 -0.1097
 1200EOH      C 4804   4.239   1.562   6.858 -0.2145  0.0514  0.0249
 1200EOH      H 4805   4.345   1.334   6.766  0.6809  0.4385  1.4311
 1201EOH      O 4806   5.431   7.255   2.914  0.1674 -0.0701 -0.0699
 1201EOH      C 4807   5.506   7.263   2.793  0.6545 -0.6369  0.1966
 1201EOH      C 4808   5.413   7.252   2.671  0.5950  0.3987  0.1513
 1201EOH      H 4809   5.477   7.307   2.978 -0.1894  1.5742 -1.1137
 1202EOH      O 4810   3.781   0.287   6.122  0.2290 -0.1279 -0.6306
 1202EOH      C 4811   3.750   0.149   6.142  0.0776 -0.0085 -0.0468
 1202EOH      C 4812   3.771   0.110   6.290  0.0043  0.0132 -0.0311
 1202EOH      H 4813   3.740   0.323   6.045 -0.5046 -0.6849 -0.5012
 1203EOH      O 4814   6.854   2.230   2.917  0.2894 -0.0786 -0.1489
 1203EOH      C 4815   6.766   2.314   2.842 -0.0074 -0.4787 -0.2481
 1203EOH      C 4816   6.766   2.270   2.694  0.1150 -0.0366 -0.3809
 1203EOH      H 4817   6.905   2.271   2.985  0.4564  0.4931 -0.6190
 1204EOH      O 4818   2.695   6.141   5.678  0.0279  0.2315  0.4140
 1204EOH      C 4819   2.796   6.040   5.689 -0.2312 -0.0522  0.2015
 1204EOH      C 4820   2.719   5.909   5.666 -0.4189  0.0413  0.2998
 1204EOH      H 4821   2.737   6.218   5.714  2.2722  0.5616 -2.6795
 1205EOH      O 4822   1.541   2.886   7.153 -0.3278 -0.0772  0.0852
 1205EOH      C 4823   1.603   3.015   7.162  0.0025 -0.2092 -0.2898
 1205EOH      C 4824   1.496   3.104   7.227  0.2795  0.0288 -0.1583
 1205EOH      H 4825   1.605   2.841   7.100 -0.0131 -1.0553  1.2446
 1206EOH      O 4826   0.874   2.364   1.309 -0.7602  0.4409  0.0608
 1206EOH      C 4827   0.966   2.469   1.343 -0.1520 -0.1999  0.3988
 1206EOH      C 4828   0.914   2.560   1.455 -0.2158 -0.0255  0.2279
 1206EOH      H 4829   0.874   2.348   1.216  0.3700  3.6635 -0.5858
 1207EOH      O 4830   7.348   7.849   4.538  0.0798 -0.2235  0.1670
 1207EOH      C 4831   7.252   7.941   4.483  0.0046 -0.2598  0.2374
 1207EOH      C 4832   7.112   7.877   4.483 -0.2539  0.3113  0.1262
 1207EOH      H 4833   7.351   7.870   4.630  1.7895  3.2332 -0.5845
 1208EOH      O 4834   0.817   4.243   0.840  0.2390 -0.0330 -0.4379
 1208EOH      C 4835   0.925   4.330   0.876  0.0694  0.3011 -0.7271
 1208EOH      C 4836   1.047   4.248   0.922 -0.4549  0.0296  0.2047
 1208EOH      H 4837   0.768   4.218   0.916  0.2366  0.9416 -0.1163
 1209EOH      O 4838   2.366   0.994   1.929  0.4005 -0.2755  0.0397
 1209EOH      C 4839   2.361   1.047   1.796  0.5175  0.2215  0.2313
 1209EOH      C 4840   2.505   1.058   1.742  0.4360  0.2989  0.0278
 1209EOH      H 4841   2.278   0.968   1.953 -0.5351 -0.1264 -2.9472
 1210EOH      O 4842   3.845   0.669   6.286  0.3065 -0.6266  0.1198
 1210EOH      C 4843   3.731   0.636   6.207  0.0725  0.5613 -0.0471
 1210EOH      C 4844   3.611   0.625   6.302 -0.0381  0.7288 -0.1693
 1210EOH      H 4845   3.916   0.612   6.260  0.6862  0.0237 -0.2674
 1211EOH      O 4846   0.573   3.209   1.423  0.5230  0.1679 -0.0248
 1211EOH      C 4847   0.614   3.131   1.536  0.0425  0.0898  0.1007
 1211EOH      C 4848   0.706   3.018   1.486 -0.1432 -0.0681  0.1171
 1211EOH      H 4849   0.498   3.169   1.381  1.2431  1.0179 -2.1476
 1212EOH      O 4850   6.535   0.918   2.589 -0.2617  0.2735 -0.3723
 1212EOH      C 4851   6.454   1.033   2.611 -0.3555  0.0510  0.5074
 1212EOH      C 4852   6.308   0.983   2.601 -0.3138  0.1186 -0.4910
 1212EOH      H 4853   6.616   0.920   2.638  1.1848 -0.5217 -2.6674
 1213EOH      O 4854   1.881   5.314   5.235 -0.3103  0.4506  0.0474
 1213EOH      C 4855   1.918   5.381   5.355  0.0929  0.0767  0.1290
 1213EOH      C 4856   1.811   5.482   5.400  0.0246  0.2074 -0.3294
 1213EOH      H 4857   1.873   5.224   5.261  0.0755  0.7712  1.2674
 1214EOH      O 4858   3.351   1.166   5.813 -0.0011 -0.0404  0.1216
 1214EOH      C 4859   3.304   1.290   5.759  0.2935 -0.0960 -0.2682
 1214EOH      C 4860   3.236   1.398   5.846 -0.2588 -0.3141 -0.4284
 1214EOH      H 4861   3.312   1.103   5.755  1.4199  0.5438 -1.5111
 1215EOH      O 4862   4.271   5.547   3.549 -0.3887  0.4967  0.6566
 1215EOH      C 4863   4.159   5.622   3.500 -0.2793  0.3108  0.1119
 1215EOH      C 4864   4.078   5.538   3.400  0.0385  0.2164 -0.0661
 1215EOH      H 4865   4.236   5.468   3.589  0.3573 -1.0407 -1.6175
 1216EOH      O 4866   4.217   2.083   3.443  0.4143 -0.1165  0.0036
 1216EOH      C 4867   4.335   2.112   3.368  0.1728  0.0874 -0.3015
 1216EOH      C 4868   4.373   1.997   3.273  0.1607 -0.1238 -0.0510
 1216EOH      H 4869   4.196   2.156   3.499 -2.7204 -1.5487  0.8350
 1217EOH      O 4870   4.084   0.994   6.445  0.0716  0.0405  0.3564
 1217EOH      C 4871   4.198   0.963   6.365  0.2314  0.0599  0.5780
 1217EOH      C 4872   4.231   0.813   6.362  0.0941  0.0333  0.3617
 1217EOH      H 4873   4.007   0.985   6.390  1.0710  0.9171 -1.2188
 1218EOH      O 4874   3.437   5.434   4.458  0.3213  0.2880 -0.1507
 1218EOH      C 4875   3.355   5.547   4.489  0.2395  0.1735  0.0500
 1218EOH      C 4876   3.211   5.506   4.455  0.1236  0.2756  0.4229
 1218EOH      H 4877   3.427   5.407   4.368 -0.5869  0.3044 -0.0537
 1219EOH      O 4878   0.601   1.383   1.402  0.8038  0.5188  0.1705
 1219EOH      C 4879   0.521   1.292   1.477  0.1660  0.3219 -0.7354
 1219EOH      C 4880   0.491   1.161   1.402  0.6223  0.1469 -0.6174
 1219EOH      H 4881   0.626   1.452   1.462  1.4529 -1.1530  1.8542
 1220EOH      O 4882   1.612   4.485   7.754 -0.0743 -0.3447 -0.0501
 1220EOH      C 4883   1.613   4.480   7.897 -0.3934  0.0833 -0.0321
 1220EOH      C 4884   1.612   4.333   7.945  0.2234 -0.0700 -0.4858
 1220EOH      H 4885   1.522   4.467   7.732  0.1999  0.2004 -1.7003
 1221EOH      O 4886   2.885   7.847   2.432  0.8377  0.1570 -0.8116
 1221EOH      C 4887   2.986   7.932   2.487  0.4913  0.2774 -0.3535
 1221EOH      C 4888   3.108   7.839   2.503  0.0088 -0.3606 -0.3799
 1221EOH      H 4889   2.805   7.896   2.443  1.2631  1.0395 -1.6216
 1222EOH      O 4890   3.728   5.512   3.439 -0.1343  0.0094 -0.2275
 1222EOH      C 4891   3.747   5.476   3.577  0.3296 -0.2844 -0.3680
 1222EOH      C 4892   3.703   5.329   3.570 -0.4897 -0.0425 -0.2729
 1222EOH      H 4893   3.644   5.484   3.407 -1.3749  2.5906  0.6086
 1223EOH      O 4894   4.399   5.653   4.574 -0.1504  0.0593  0.0116
 1223EOH      C 4895   4.422   5.792   4.595 -0.2269  0.0842 -0.0699
 1223EOH      C 4896   4.336   5.849   4.710  0.1955  0.5760  0.0045
 1223EOH      H 4897   4.465   5.614   4.519 -0.0080 -1.5253  1.2599
 1224EOH      O 4898   2.730   4.112   2.044 -0.3214 -0.8380  0.0040
 1224EOH      C 4899   2.686   4.144   1.912  0.2744  0.1592  0.0468
 1224EOH      C 4900   2.668   4.297   1.905 -0.2147  0.1269  0.5848
 1224EOH      H 4901   2.654   4.086   2.094  0.7623  0.2201  2.2782
 1225EOH      O 4902   0.933   7.699   3.003 -0.2274 -0.3661 -0.2533
 1225EOH      C 4903   0.797   7.735   3.029  0.1596  0.4268  0.7244
 1225EOH      C 4904   0.768   7.689   3.173 -0.0671 -0.4645  0.4022
 1225EOH      H 4905   0.981   7.775   3.032 -0.5802 -0.2174 -0.0612
 1226EOH      O 4906   0.795   2.498   6.508 -0.2174  0.2072 -0.0491
 1226EOH      C 4907   0.717   2.380   6.526 -0.1793  0.1021 -0.5522
 1226EOH      C 4908   0.757   2.281   6.415 -0.3839 -0.9765  0.3238
 1226EOH      H 4909   0.756   2.574   6.548 -0.1955  0.3200 -0.2389
 1227EOH      O 4910   3.049   2.655   1.053 -0.1320 -0.3316  0.3599
 1227EOH      C 4911   3.165   2.576   1.026 -0.4322 -0.6620  0.0340
 1227EOH      C 4912   3.221   2.593   0.884 -0.0788  0.2292  0.2788
 1227EOH      H 4913   3.061   2.681   1.143 -0.5382 -0.7855  0.5456
 1228EOH      O 4914   5.009   4.494   6.150 -0.4726 -0.3480 -0.0743
 1228EOH      C 4915   4.950   4.601   6.223 -0.1144 -0.3647  0.2416
 1228EOH      C 4916   4.965   4.571   6.373  0.1706 -0.4269  0.2014
 1228EOH      H 4917   4.969   4.409   6.160  2.4796 -1.4946  2.7722
 1229EOH      O 4918   5.673   7.159   3.959 -1.0589 -0.0344  0.2235
 1229EOH      C 4919   5.730   7.135   3.830  0.3480 -0.8510  0.9795
 1229EOH      C 4920   5.653   7.017   3.767 -0.6707  0.3890 -0.1111
 1229EOH      H 4921   5.656   7.251   3.965  1.4575  0.3923  1.6968
 1230EOH      O 4922   3.410   6.374   5.658 -0.1409 -0.0130 -0.7821
 1230EOH      C 4923   3.459   6.272   5.570  0.3100 -0.6038  0.1405
 1230EOH      C 4924   3.606   6.295   5.530  0.3115 -0.5150  0.1953
 1230EOH      H 4925   3.382   6.330   5.737  1.0793  0.9036  0.1878
 1231EOH      O 4926   2.460   4.861   0.135  0.1716 -0.3150 -1.1243
 1231EOH      C 4927   2.546   4.955   0.071  0.2987  0.3643  0.0374
 1231EOH      C 4928   2.512   5.095   0.127 -0.3232  0.2206  0.0226
 1231EOH      H 4929   2.469   4.877   0.227  0.6923 -0.2826 -1.1783
 1232EOH      O 4930   0.333   0.580   2.249  0.3987 -0.2734 -0.1639
 1232EOH      C 4931   0.281   0.468   2.321 -0.3180  0.2957  0.2137
 1232EOH      C 4932   0.178   0.506   2.429 -0.3604  0.4996  0.1012
 1232EOH      H 4933   0.427   0.568   2.244  0.2677 -0.8985 -1.1405
 1233EOH      O 4934   1.756   5.785   3.217 -0.0902 -0.4696 -0.1321
 1233EOH      C 4935   1.795   5.714   3.335  0.2899  0.7088  0.4552
 1233EOH      C 4936   1.659   5.708   3.408 -0.0556  0.1344 -0.2315
 1233EOH      H 4937   1.757   5.875   3.244 -1.7357 -1.0158  1.8587
 1234EOH      O 4938   1.643   4.345   2.962  0.3890 -0.2467 -0.0708
 1234EOH      C 4939   1.667   4.411   3.087  0.1661 -0.1666 -0.0713
 1234EOH      C 4940   1.768   4.522   3.052  0.1748 -0.0869  0.2112
 1234EOH      H 4941   1.726   4.318   2.925  0.8457  0.3364  0.5135
 1235EOH      O 4942   7.165   6.482   3.157  0.2937 -0.7402  0.6547
 1235EOH      C 4943   7.035   6.521   3.203  0.3207 -0.0545  0.1484
 1235EOH      C 4944   6.992   6.425   3.315  0.5727  0.0231  0.3126
 1235EOH      H 4945   7.187   6.525   3.076  0.0742  0.3009  1.1390
 1236EOH      O 4946   3.308   7.150   3.293  0.2313  0.8368  0.3092
 1236EOH      C 4947   3.275   7.047   3.387  0.3502  0.7015  0.2020
 1236EOH      C 4948   3.229   6.917   3.318 -0.6921  0.7768  0.7537
 1236EOH      H 4949   3.252   7.225   3.309 -0.5819  0.4292 -0.5837
 1237EOH      O 4950   2.892   4.770   2.596  0.2074  0.2531 -0.0075
 1237EOH      C 4951   2.971   4.675   2.668  0.5050  0.8760  0.4920
 1237EOH      C 4952   3.077   4.623   2.570  0.2756  0.1802  0.6137
 1237EOH      H 4953   2.948   4.838   2.562  0.3162  0.1507 -0.0284
 1238EOH      O 4954   1.475   6.105   7.460 -0.1835 -0.8988  0.5194
 1238EOH      C 4955   1.361   6.023   7.434 -0.4535 -0.2309 -0.4598
 1238EOH      C 4956   1.408   5.878   7.454 -0.7781 -0.3723 -0.7141
 1238EOH      H 4957   1.470   6.173   7.394 -1.7079 -2.2952 -0.8636
 1239EOH      O 4958   7.230   1.382   2.802 -0.4988 -0.2250 -0.3256
 1239EOH      C 4959   7.183   1.363   2.936 -0.1333 -0.1622 -0.1856
 1239EOH      C 4960   7.299   1.331   3.032  0.1585 -0.1051 -0.5194
 1239EOH      H 4961   7.290   1.309   2.792 -1.1532 -1.0051  1.1834
 1240EOH      O 4962   0.002   1.261   4.153  0.0862 -0.0516  0.0347
 1240EOH      C 4963   0.048   1.289   4.286  0.0489 -0.5786  0.1630
 1240EOH      C 4964   0.152   1.402   4.295 -0.6980  0.1347 -0.0210
 1240EOH      H 4965  -0.048   1.334   4.121 -0.2180 -0.7333 -1.0667
 1241EOH      O 4966   1.466   7.485   4.889  0.1250  0.3779 -0.1297
 1241EOH      C 4967   1.459   7.618   4.941 -0.2925  0.1249  0.4587
 1241EOH      C 4968   1.372   7.705   4.850 -0.2352  0.3372  0.6063
 1241EOH      H 4969   1.525   7.481   4.815  0.8100  5.0787  0.0347
 1242EOH      O 4970   5.136   1.764   6.163  0.5082  0.2351  0.6178
 1242EOH      C 4971   5.157   1.904   6.149  0.3921  0.1650 -0.2807
 1242EOH      C 4972   5.240   1.946   6.272  0.0906  0.2892 -0.1195
 1242EOH      H 4973   5.136   1.735   6.253 -1.7323 -1.4694  0.1262
 1243EOH      O 4974   3.440   7.201   6.326  0.0416  0.2848 -0.1860
 1243EOH      C 4975   3.491   7.078   6.380  0.0398  0.3832  0.0390
 1243EOH      C 4976   3.364   7.026   6.449 -0.0018  0.8656  0.3298
 1243EOH      H 4977   3.493   7.274   6.353  1.6509 -0.1947 -1.9810
 1244EOH      O 4978   4.506   1.876   4.429 -0.2314  0.5145 -0.2885
 1244EOH      C 4979   4.608   1.971   4.460  0.3596 -0.0846 -0.3767
 1244EOH      C 4980   4.749   1.908   4.452  0.5175  0.1900  0.1949
 1244EOH      H 4981   4.424   1.921   4.439 -0.5906 -0.3127  0.4667
 1245EOH      O 4982   0.329   6.729   3.317  0.1487 -0.2365 -0.0284
 1245EOH      C 4983   0.395   6.681   3.435  0.0216  0.0780  0.1716
 1245EOH      C 4984   0.336   6.734   3.567 -0.4934  0.2983 -0.1454
 1245EOH      H 4985   0.401   6.733   3.257  1.6244  0.6065  1.7471
 1246EOH      O 4986   0.240   1.623   3.261 -0.2663 -0.0839 -0.3840
 1246EOH      C 4987   0.286   1.703   3.152 -0.1607  0.1130 -0.1954
 1246EOH      C 4988   0.174   1.706   3.046 -0.0154 -0.0612 -0.3533
 1246EOH      H 4989   0.195   1.546   3.231  0.8283 -1.4703  1.4119
 1247EOH      O 4990   2.052   1.736   5.866 -0.0908  0.1000 -0.2302
 1247EOH      C 4991   2.047   1.878   5.881  0.2628  0.0873  0.0158
 1247EOH      C 4992   2.189   1.938   5.876  0.3976 -0.2846 -0.5591
 1247EOH      H 4993   2.023   1.710   5.779 -0.0280 -0.5867 -0.0478
 1248EOH      O 4994   1.315   5.183   6.061  0.1956  0.0440  0.3005
 1248EOH      C 4995   1.199   5.266   6.065 -0.1516 -0.4739  1.0544
 1248EOH      C 4996   1.101   5.214   5.959  0.6945  0.2896 -0.1129
 1248EOH      H 4997   1.345   5.172   6.150 -1.5760 -0.2298  0.8842
 1249EOH      O 4998   1.981   6.694   5.812  0.3866  0.4473 -0.1661
 1249EOH      C 4999   1.876   6.784   5.776 -0.1616  0.1419  0.6471
 1249EOH      C 5000   1.895   6.814   5.626 -0.2428  0.1365  0.6357
 1249EOH      H 5001   2.059   6.742   5.835  0.6593 -1.1909  2.6879
 1250EOH      O 5002   3.440   3.898   4.411  0.0444 -0.0427  0.1003
 1250EOH      C 5003   3.454   4.031   4.459  0.2689 -0.1067  0.2123
 1250EOH      C 5004   3.536   4.032   4.590 -0.5516  0.0730  0.7282
 1250EOH      H 5005   3.390   3.881   4.333  0.2211 -0.3745  0.0571
 1251EOH      O 5006   2.920   3.570   3.748  0.2278 -0.1388 -0.1221
 1251EOH      C 5007   2.833   3.662   3.815  0.0823 -0.0797 -0.3943
 1251EOH      C 5008   2.851   3.802   3.754  0.5798 -0.0218 -0.1147
 1251EOH      H 5009   3.005   3.606   3.769 -0.8299  2.2874  0.0904
 1252EOH      O 5010   3.996   3.887   3.499  0.5512 -0.3438  0.4802
 1252EOH      C 5011   4.002   3.865   3.358  0.2331  0.3274  0.3570
 1252EOH      C 5012   4.084   3.975   3.288 -0.1980  0.1861 -0.3829
 1252EOH      H 5013   3.996   3.801   3.538  0.4750 -0.0059  1.2288
 1253EOH      O 5014   4.654   3.133   5.122  0.0674  0.1596 -0.4162
 1253EOH      C 5015   4.592   3.144   4.994 -0.0633 -0.0380 -0.3718
 1253EOH      C 5016   4.480   3.250   5.002  0.0937  0.1451 -0.5895
 1253EOH      H 5017   4.688   3.045   5.135  0.4190  0.1638 -1.3227
 1254EOH      O 5018   1.917   3.549   5.106 -0.0410  0.4646  0.4015
 1254EOH      C 5019   1.947   3.477   5.225  0.3020  0.1235  0.1084
 1254EOH      C 5020   1.824   3.460   5.317  0.0338  0.0176 -0.2714
 1254EOH      H 5021   1.979   3.619   5.095  0.1086  0.2458 -0.1894
 1255EOH      O 5022   2.060   2.660   2.271  0.0777 -0.3065 -0.3200
 1255EOH      C 5023   2.130   2.771   2.214 -0.2120 -0.0178 -0.1088
 1255EOH      C 5024   2.231   2.828   2.316 -0.2322 -0.0950 -0.0449
 1255EOH      H 5025   1.982   2.638   2.223  0.5356  0.2011 -1.3220
 1256EOH      O 5026   2.394   1.728   4.653  0.2215 -0.3350 -0.4830
 1256EOH      C 5027   2.390   1.780   4.787  0.1481 -0.0476 -0.5978
 1256EOH      C 5028   2.353   1.660   4.875  0.2800  0.3030 -0.0589
 1256EOH      H 5029   2.384   1.798   4.591  0.7619  0.3996  0.2455
 1257EOH      O 5030   6.966   0.817   2.560  0.0913 -0.1567  0.2130
 1257EOH      C 5031   7.003   0.685   2.599 -0.0730 -0.2182  0.1591
 1257EOH      C 5032   6.896   0.630   2.695  0.0162  0.0875  0.4303
 1257EOH      H 5033   6.992   0.833   2.470  0.4061  2.2471  0.6912
 1258EOH      O 5034   5.076   1.757   3.316 -0.0826 -0.5826 -0.0392
 1258EOH      C 5035   5.168   1.748   3.207 -0.2430 -0.1995 -0.2057
 1258EOH      C 5036   5.303   1.693   3.257  0.0486  0.6121 -0.0834
 1258EOH      H 5037   4.991   1.773   3.277  0.3325  1.6678 -0.0771
 1259EOH      O 5038   2.411   7.407   5.783  0.0869 -0.0763 -0.4699
 1259EOH      C 5039   2.271   7.412   5.814  0.2102  0.5995 -0.0201
 1259EOH      C 5040   2.207   7.506   5.710 -0.2853  0.0417 -0.2218
 1259EOH      H 5041   2.422   7.384   5.692  1.9590 -1.0865 -0.0218
 1260EOH      O 5042   1.452   7.032   2.097 -0.0890  0.6313 -0.2286
 1260EOH      C 5043   1.313   7.006   2.114  0.0624 -0.1671 -0.1652
 1260EOH      C 5044   1.253   6.928   1.995 -0.5419  0.3071 -0.1750
 1260EOH      H 5045   1.479   7.095   2.161 -0.1986 -0.4345  0.8848
 1261EOH      O 5046   1.712   7.209   6.961  0.5774  0.0665  0.1807
 1261EOH      C 5047   1.817   7.113   6.970  0.5419  0.0484  0.4220
 1261EOH      C 5048   1.926   7.156   6.870  0.0115  0.1499 -0.1153
 1261EOH      H 5049   1.700   7.243   7.049  1.8181 -0.8188  0.7070
 1262EOH      O 5050   1.181   0.562   4.420 -0.4087  0.2297 -0.8355
 1262EOH      C 5051   1.158   0.697   4.461  0.1168  0.0446  0.0580
 1262EOH      C 5052   1.140   0.704   4.614 -0.0549 -0.1312  0.0459
 1262EOH      H 5053   1.236   0.562   4.343 -0.7250  0.3765 -1.0655
 1263EOH      O 5054   4.993   3.726   3.152 -0.1139  0.0330  0.3784
 1263EOH      C 5055   5.059   3.755   3.028 -0.0247 -0.3221  0.3426
 1263EOH      C 5056   4.970   3.829   2.927 -0.1610 -0.5938  0.2641
 1263EOH      H 5057   5.005   3.805   3.202 -2.4319  0.3777  0.4523
 1264EOH      O 5058   3.768   4.919   6.870  0.1790 -0.1795 -0.0490
 1264EOH      C 5059   3.629   4.952   6.868  0.0077 -0.8309  0.5080
 1264EOH      C 5060   3.555   4.865   6.971 -0.7068 -0.2111  0.5242
 1264EOH      H 5061   3.814   4.992   6.831  1.5229 -1.3604 -0.7270
 1265EOH      O 5062   2.099   5.317   2.644  0.4726 -0.1164 -0.3966
 1265EOH      C 5063   2.021   5.199   2.660 -0.2854  0.3684 -0.5058
 1265EOH      C 5064   1.881   5.231   2.604 -0.3323  0.9848 -0.0479
 1265EOH      H 5065   2.190   5.290   2.650  0.0910 -1.3955 -0.3863
 1266EOH      O 5066   1.670   7.009   7.817  0.2767 -0.3815 -0.5094
 1266EOH      C 5067   1.682   6.999   7.959 -0.3019 -0.5311 -0.4689
 1266EOH      C 5068   1.832   6.981   7.988 -0.3315 -0.2134 -0.1195
 1266EOH      H 5069   1.588   7.054   7.802 -0.5918 -0.8871  2.6067
 1267EOH      O 5070   1.963   3.645   5.962  0.3658 -0.0861 -0.0976
 1267EOH      C 5071   1.903   3.759   6.024 -0.4976 -0.3321 -0.4698
 1267EOH      C 5072   1.950   3.755   6.171  0.4201  0.2240 -0.7407
 1267EOH      H 5073   1.895   3.579   5.960  1.2205 -0.9432 -2.4429
 1268EOH      O 5074   1.900   2.389   5.381  0.1628  0.8905  0.5554
 1268EOH      C 5075   1.834   2.453   5.271  0.2039 -0.2781 -0.1571
 1268EOH      C 5076   1.717   2.531   5.333  0.3549 -0.5498  0.4780
 1268EOH      H 5077   1.931   2.302   5.361 -0.3561  1.4745 -3.1132
 1269EOH      O 5078   1.486   0.793   5.386 -0.2267  0.1477  0.5469
 1269EOH      C 5079   1.505   0.772   5.246 -1.6522 -0.1509  0.3869
 1269EOH      C 5080   1.464   0.634   5.193  0.4413 -0.6598  0.0221
 1269EOH      H 5081   1.555   0.753   5.437 -0.4778  1.0338  1.5966
 1270EOH      O 5082   1.232   2.441   4.339  0.4926 -0.3646  0.0344
 1270EOH      C 5083   1.293   2.543   4.259 -0.1473 -0.3209 -0.4071
 1270EOH      C 5084   1.294   2.487   4.115  0.6708 -0.1625 -0.4645
 1270EOH      H 5085   1.284   2.363   4.331  1.6795  0.5875 -2.3518
 1271EOH      O 5086   2.810   5.667   2.790 -0.1262 -0.3636  0.3293
 1271EOH      C 5087   2.804   5.614   2.923 -0.2366 -0.3472  0.3306
 1271EOH      C 5088   2.686   5.681   2.995 -0.4880 -0.2154 -0.2005
 1271EOH      H 5089   2.834   5.757   2.803  3.1299 -1.1956  0.5312
 1272EOH      O 5090   2.260   0.299   6.211  0.2108  0.1851 -0.3465
 1272EOH      C 5091   2.373   0.214   6.236  0.1215  0.0291 -0.4696
 1272EOH      C 5092   2.506   0.292   6.233 -0.2337  0.6903  0.7197
 1272EOH      H 5093   2.188   0.241   6.233 -1.0937  0.9622 -2.3731
 1273EOH      O 5094   5.908   0.230   4.546 -0.6059  0.1345  0.1174
 1273EOH      C 5095   5.927   0.361   4.598 -0.0999  0.1951 -0.2133
 1273EOH      C 5096   6.062   0.357   4.672 -0.0512 -0.2289 -0.3240
 1273EOH      H 5097   5.869   0.179   4.615 -1.6422  2.1520  1.0579
 1274EOH      O 5098   2.479   5.463   6.930  0.4043  0.0959 -0.3228
 1274EOH      C 5099   2.480   5.321   6.944  0.5587  0.1091 -0.1929
 1274EOH      C 5100   2.426   5.257   6.815  0.3832 -0.7608  0.3044
 1274EOH      H 5101   2.393   5.502   6.935  0.0076 -0.9902  2.0654
 1275EOH      O 5102   3.737   2.771   4.093 -0.6557  0.2139 -0.3723
 1275EOH      C 5103   3.731   2.914   4.095 -0.3069  0.2173  0.3085
 1275EOH      C 5104   3.635   2.977   4.197 -0.4360 -0.0820  0.3709
 1275EOH      H 5105   3.812   2.747   4.146  1.4253  3.6742 -1.5962
 1276EOH      O 5106   2.744   3.899   7.895  0.1982 -0.3028  0.1243
 1276EOH      C 5107   2.604   3.925   7.905  0.1605 -0.6058  0.3980
 1276EOH      C 5108   2.531   3.828   8.000 -0.4782 -0.0819  0.4479
 1276EOH      H 5109   2.762   3.806   7.898  0.0613 -0.3857 -1.3134
 1277EOH      O 5110   1.797   6.289   1.122  0.1220 -0.1134  0.1398
 1277EOH      C 5111   1.917   6.328   1.191  0.0295  0.2331  0.1022
 1277EOH      C 5112   1.964   6.214   1.282  0.0114  0.3536  0.2621
 1277EOH      H 5113   1.765   6.367   1.081 -0.3312  0.4039  1.4518
 1278EOH      O 5114   2.602   1.097   3.947  0.3258  0.4035 -0.0600
 1278EOH      C 5115   2.557   1.140   4.076  0.4307  0.0588  0.0931
 1278EOH      C 5116   2.535   1.020   4.169  0.4046  0.0797  0.1134
 1278EOH      H 5117   2.691   1.070   3.963  0.1750  0.7872  1.4694
 1279EOH      O 5118   5.842   6.707   3.506  0.5909  0.4039  0.1948
 1279EOH      C 5119   5.873   6.741   3.370 -0.8025  0.0796 -0.2096
 1279EOH      C 5120   5.854   6.617   3.281  0.3263  0.0205 -0.3800
 1279EOH      H 5121   5.924   6.675   3.539  1.1996  0.3123 -1.3520
 1280EOH      O 5122   1.188   7.686   1.002  0.5260  0.0599  0.2929
 1280EOH      C 5123   1.068   7.609   1.014  0.1860  0.5542  0.0818
 1280EOH      C 5124   0.979   7.642   1.135 -0.0374 -0.0292  0.0790
 1280EOH      H 5125   1.184   7.760   0.943 -0.5327  0.5520  0.9618
 1281EOH      O 5126   2.932   4.073   0.008  0.0856  0.5131 -0.0459
 1281EOH      C 5127   2.889   4.182   0.090  0.4085 -0.1584  1.0252
 1281EOH      C 5128   2.995   4.293   0.079 -0.4359  0.6099  0.5786
 1281EOH      H 5129   2.858   4.016   0.012  1.2145 -0.8794  1.7262
 1282EOH      O 5130   1.320   1.201   2.706 -0.1942 -0.3122  0.1416
 1282EOH      C 5131   1.202   1.281   2.686 -0.2425 -0.3754  0.1735
 1282EOH      C 5132   1.127   1.301   2.819 -0.5788  0.0470 -0.0798
 1282EOH      H 5133   1.381   1.192   2.635 -0.6020  0.7800 -0.3538
 1283EOH      O 5134   1.245   5.968   7.869 -0.4420  0.0350 -0.4532
 1283EOH      C 5135   1.149   5.885   7.801 -0.3653 -0.0623 -0.4413
 1283EOH      C 5136   1.061   5.961   7.701 -0.3722  0.1016 -0.3124
 1283EOH      H 5137   1.298   5.911   7.922 -1.9876 -0.2466  0.8126
 1284EOH      O 5138   4.571   6.472   3.871  0.5139  0.1958  0.7777
 1284EOH      C 5139   4.711   6.451   3.850  0.1776 -0.7741 -0.5708
 1284EOH      C 5140   4.777   6.406   3.982  0.4831  0.1980 -0.3929
 1284EOH      H 5141   4.547   6.551   3.825 -0.0933  1.1485  2.6943
 1285EOH      O 5142   0.248   4.726   1.208  0.1525  0.1324 -0.2563
 1285EOH      C 5143   0.156   4.818   1.149 -0.2038  0.0558  0.1782
 1285EOH      C 5144   0.202   4.960   1.188 -0.0989  0.0114  0.2171
 1285EOH      H 5145   0.280   4.763   1.289 -0.4050  0.4109 -0.1611
 1286EOH      O 5146   0.371   1.488   2.202  0.0167  0.2618 -0.4616
 1286EOH      C 5147   0.430   1.375   2.136  0.2761  0.0676  0.1042
 1286EOH      C 5148   0.514   1.295   2.237  0.3431  0.2789  0.2175
 1286EOH      H 5149   0.441   1.537   2.242 -2.4909  2.2990  1.6023
 1287EOH      O 5150   1.252   0.783   7.664 -0.6121  0.0287 -0.1765
 1287EOH      C 5151   1.209   0.651   7.632  0.1690 -0.2568 -0.0688
 1287EOH      C 5152   1.217   0.567   7.761  0.3875 -0.5525 -0.2747
 1287EOH      H 5153   1.302   0.804   7.587  1.0332  0.6531  1.0322
 1288EOH      O 5154   5.467   2.856   5.003 -0.3721  0.1858  0.8675
 1288EOH      C 5155   5.479   2.713   4.998 -0.8740  0.1910 -0.7805
 1288EOH      C 5156   5.345   2.650   4.957 -0.6890 -0.2969 -0.6347
 1288EOH      H 5157   5.543   2.887   5.049  1.2996 -1.0245 -0.9564
 1289EOH      O 5158   1.020   2.226   2.303 -0.4249  0.4915 -0.1888
 1289EOH      C 5159   0.914   2.153   2.364 -0.0431  0.4853  0.4649
 1289EOH      C 5160   0.812   2.134   2.250  0.7295 -0.1934 -0.1069
 1289EOH      H 5161   1.043   2.178   2.225 -0.8963 -2.4553  1.4331
 1290EOH      O 5162   4.308   5.533   5.718 -0.2292 -0.1098 -0.4897
 1290EOH      C 5163   4.438   5.503   5.667  0.1213  0.0542  0.2893
 1290EOH      C 5164   4.517   5.408   5.759  0.2495 -0.2572 -0.1418
 1290EOH      H 5165   4.240   5.523   5.654 -0.3769 -0.3046 -0.2999
 1291EOH      O 5166   1.508   0.792   3.256  0.0262 -0.1867 -0.0927
 1291EOH      C 5167   1.385   0.856   3.292  0.2205 -0.0606  0.3487
 1291EOH      C 5168   1.296   0.850   3.166  0.4867  0.6285  0.1219
 1291EOH      H 5169   1.491   0.700   3.269 -1.0770 -0.2049 -1.4770
 1292EOH      O 5170   0.451   4.395   1.246 -0.1697  0.1093  0.3366
 1292EOH      C 5171   0.352   4.303   1.293 -0.5896  0.3336 -0.0975
 1292EOH      C 5172   0.223   4.386   1.295 -0.6580  0.2155  0.3293
 1292EOH      H 5173   0.419   4.442   1.171 -0.1445  0.3627  0.4846
 1293EOH      O 5174   3.104   3.777   2.500  0.4785 -0.1413  0.1913
 1293EOH      C 5175   2.976   3.714   2.488  0.5979 -0.2750 -0.3856
 1293EOH      C 5176   2.942   3.718   2.338  0.5362  0.0283 -0.3637
 1293EOH      H 5177   3.083   3.868   2.512 -1.1575 -0.7745  2.5195
 1294EOH      O 5178   1.655   7.020   0.844  0.2528  0.1022 -0.2447
 1294EOH      C 5179   1.789   7.007   0.796  0.3714  0.2281  0.0527
 1294EOH      C 5180   1.809   7.086   0.666  0.4888  0.5802  0.2829
 1294EOH      H 5181   1.652   6.985   0.932  0.4294 -0.2978 -0.3961
 1295EOH      O 5182   3.506   1.610   6.129 -0.6110  0.3293 -0.2046
 1295EOH      C 5183   3.559   1.618   6.262  0.0614 -0.4536 -0.4190
 1295EOH      C 5184   3.708   1.583   6.269  0.3146  0.5194 -0.8729
 1295EOH      H 5185   3.533   1.530   6.088 -1.1113 -0.5538  1.1757
 1296EOH      O 5186   2.817   7.314   0.736 -0.0674  0.2557  0.1219
 1296EOH      C 5187   2.925   7.408   0.741 -0.0323  0.2285 -0.0994
 1296EOH      C 5188   3.022   7.372   0.855  0.2097 -0.2296 -0.4471
 1296EOH      H 5189   2.807   7.284   0.825  0.9385  1.9740  0.8481
 1297EOH      O 5190   3.460   2.393   5.495 -0.1770  0.2268  0.0097
 1297EOH      C 5191   3.554   2.291   5.528 -0.3133  0.0440 -0.1702
 1297EOH      C 5192   3.493   2.149   5.530  0.9709 -0.5081  0.0759
 1297EOH      H 5193   3.477   2.470   5.547 -2.1244  1.4700 -1.1306
 1298EOH      O 5194   4.367   6.468   4.020 -0.0052 -0.4764  0.6001
 1298EOH      C 5195   4.266   6.522   3.935  0.6220 -0.3657 -0.0882
 1298EOH      C 5196   4.139   6.436   3.953  0.4694 -0.2739 -0.7271
 1298EOH      H 5197   4.445   6.443   3.972 -0.3597 -1.3201  0.4636
 1299EOH      O 5198   2.664   4.213   3.315  0.2212  0.0560  0.0221
 1299EOH      C 5199   2.791   4.201   3.380 -0.0226  0.3086  0.5467
 1299EOH      C 5200   2.811   4.316   3.480  0.0158  0.0420  0.8467
 1299EOH      H 5201   2.605   4.163   3.369 -0.0185 -1.3095 -1.4657
 1300EOH      O 5202   2.995   2.407   7.297 -0.4053  0.7347 -0.2288
 1300EOH      C 5203   2.992   2.280   7.231  0.1466  0.4119  0.3602
 1300EOH      C 5204   3.123   2.199   7.242  0.0197  0.2075  0.3699
 1300EOH      H 5205   3.084   2.436   7.306  0.0670 -1.0744  1.3936
 1301EOH      O 5206   2.476   7.382   5.536 -0.1204  0.4463  0.0957
 1301EOH      C 5207   2.468   7.474   5.426  0.6062  0.2236 -0.1457
 1301EOH      C 5208   2.436   7.611   5.487  0.0230  0.3305 -0.6876
 1301EOH      H 5209   2.496   7.294   5.509  0.7839  0.6366  0.1371
 1302EOH      O 5210   5.626   7.419   3.975 -0.3537  0.3715 -0.2643
 1302EOH      C 5211   5.525   7.464   3.885 -0.6222  0.1447 -0.0743
 1302EOH      C 5212   5.410   7.363   3.866 -0.1867 -0.3051 -0.3364
 1302EOH      H 5213   5.674   7.490   4.015 -0.0040  0.3432 -0.6271
 1303EOH      O 5214   6.327   7.448   4.249  0.1562 -0.0750 -0.4266
 1303EOH      C 5215   6.346   7.411   4.113  1.2546  0.0637 -0.3213
 1303EOH      C 5216   6.301   7.533   4.031  0.8019  0.3517  0.3552
 1303EOH      H 5217   6.401   7.501   4.274 -0.2388  0.8266 -1.1366
 1304EOH      O 5218   1.595   3.278   4.296 -0.1546  0.4693  0.0803
 1304EOH      C 5219   1.725   3.258   4.240 -0.3576 -0.0743 -0.1967
 1304EOH      C 5220   1.704   3.174   4.113 -0.3361  0.2949 -0.4446
 1304EOH      H 5221   1.540   3.205   4.270  0.2365  0.7177 -1.5079
 1305EOH      O 5222   2.364   2.525   1.975  0.4563  0.3523 -0.6520
 1305EOH      C 5223   2.367   2.423   1.875 -0.4383 -0.1881 -0.1299
 1305EOH      C 5224   2.238   2.343   1.899 -0.0726 -0.6027  0.4871
 1305EOH      H 5225   2.436   2.523   2.036 -0.7486 -2.4014  0.7363
 1306EOH      O 5226   7.029   7.451   3.851 -0.1814  0.2000 -0.0373
 1306EOH      C 5227   7.080   7.529   3.959 -0.3235 -0.2520  0.3559
 1306EOH      C 5228   7.232   7.547   3.942 -0.4260 -0.0610 -0.3752
 1306EOH      H 5229   6.935   7.459   3.859 -0.1786  1.6240 -1.0919
 1307EOH      O 5230   2.405   2.459   3.685  0.5736 -0.2129 -0.1207
 1307EOH      C 5231   2.285   2.381   3.684  0.4744 -0.0612 -0.0135
 1307EOH      C 5232   2.326   2.237   3.720 -0.7089 -0.2142  0.7661
 1307EOH      H 5233   2.363   2.536   3.721 -0.2041  0.0523 -1.5499
 1308EOH      O 5234   0.152   2.382   2.151 -0.5404 -0.4815  0.1635
 1308EOH      C 5235   0.262   2.297   2.181  0.0342  0.2476  0.1321
 1308EOH      C 5236   0.249   2.224   2.316 -0.1504  0.0641  0.0158
 1308EOH      H 5237   0.176   2.451   2.092 -1.5188 -0.4448 -0.2028
 1309EOH      O 5238   1.690   7.806   5.081  0.1094 -0.1461 -1.0309
 1309EOH      C 5239   1.732   7.923   5.151  0.2713 -0.3952 -0.7106
 1309EOH      C 5240   1.885   7.923   5.166  0.1947 -0.4116  0.0718
 1309EOH      H 5241   1.688   7.739   5.147 -1.6165 -0.2722 -1.1894
 1310EOH      O 5242   5.181   0.373   4.085 -0.0374  0.0130 -0.1081
 1310EOH      C 5243   5.063   0.453   4.095 -0.1333 -0.1148 -0.2090
 1310EOH      C 5244   4.965   0.416   3.983  0.0447  0.3365 -0.5151
 1310EOH      H 5245   5.201   0.341   4.172 -2.2290  1.1407  0.8454
 1311EOH      O 5246   0.982   1.698   4.306  0.1460  0.2619  0.1341
 1311EOH      C 5247   1.097   1.615   4.291  0.0088  0.0582  0.2061
 1311EOH      C 5248   1.221   1.703   4.265  0.1651 -0.3324 -0.3758
 1311EOH      H 5249   0.907   1.651   4.274 -1.8300  2.1034  1.8723
 1312EOH      O 5250   1.275   3.324   0.367 -0.2655  0.0965 -0.4506
 1312EOH      C 5251   1.339   3.452   0.355  0.5230 -0.2997 -0.4432
 1312EOH      C 5252   1.459   3.444   0.452 -0.0770 -0.2581  0.3066
 1312EOH      H 5253   1.229   3.315   0.285 -0.8696  1.2841 -0.2587
 1313EOH      O 5254   7.879   1.788   0.254 -0.0895  0.0495  0.1113
 1313EOH      C 5255   7.886   1.902   0.340  0.4410  0.0272  0.0959
 1313EOH      C 5256   7.944   1.858   0.476  0.8419  0.2040 -0.0174
 1313EOH      H 5257   7.838   1.718   0.303  3.6260  0.0292  3.4326
 1314EOH      O 5258   4.502   6.377   5.057 -0.0083  0.0642  0.5792
 1314EOH      C 5259   4.403   6.348   5.155 -0.1523  0.2037  0.4747
 1314EOH      C 5260   4.373   6.453   5.264  0.3199  0.2803  0.5288
 1314EOH      H 5261   4.586   6.346   5.087  0.3281  2.4906  2.3169
 1315EOH      O 5262   4.242   6.504   4.271  0.0162 -0.7198  0.2458
 1315EOH      C 5263   4.342   6.422   4.334  0.7801 -0.1238 -0.1946
 1315EOH      C 5264   4.444   6.519   4.396  0.1690 -0.0178  0.6490
 1315EOH      H 5265   4.277   6.518   4.185 -2.6831  2.8794 -0.3823
 1316EOH      O 5266   5.562   4.108   5.094 -0.0008 -0.1716  0.1316
 1316EOH      C 5267   5.688   4.152   5.145  0.0646 -0.6339  0.3699
 1316EOH      C 5268   5.664   4.209   5.286  0.3431  0.0678  0.1349
 1316EOH      H 5269   5.496   4.171   5.119 -0.0277 -0.0025 -0.3547
 1317EOH      O 5270   3.560   5.510   7.763  0.0362  0.3072 -0.2776
 1317EOH      C 5271   3.656   5.448   7.678 -0.2621  0.1748 -0.5225
 1317EOH      C 5272   3.769   5.546   7.638  0.1984 -0.2807 -0.3488
 1317EOH      H 5273   3.503   5.443   7.797 -2.1853  1.4601 -1.5799
 1318EOH      O 5274   3.328   3.393   4.099  0.0986 -0.3195  0.2721
 1318EOH      C 5275   3.329   3.270   4.026 -0.1731  0.1042 -0.4511
 1318EOH      C 5276   3.284   3.142   4.098  0.0913  0.2083 -0.0986
 1318EOH      H 5277   3.420   3.395   4.122  0.6841 -2.6760 -1.7615
 1319EOH      O 5278   1.438   2.808   1.706  0.7404  0.0074 -0.0313
 1319EOH      C 5279   1.400   2.919   1.788  0.5955 -0.0827  0.0244
 1319EOH      C 5280   1.435   2.867   1.928  0.8839  0.0038 -0.0143
 1319EOH      H 5281   1.376   2.741   1.730  1.3736 -0.5047  0.2008
 1320EOH      O 5282   3.320   4.432   6.350  0.9115 -0.4840 -0.2570
 1320EOH      C 5283   3.323   4.301   6.407 -0.0020 -0.1311  0.6194
 1320EOH      C 5284   3.218   4.221   6.328  0.5395  0.0522 -0.2861
 1320EOH      H 5285   3.387   4.485   6.389  0.1837  0.6498 -0.4941
 1321EOH      O 5286   4.185   0.297   4.533  0.2358  0.1178 -0.8905
 1321EOH      C 5287   4.099   0.343   4.429 -0.4326  0.3023 -0.2617
 1321EOH      C 5288   4.087   0.217   4.341 -0.0601 -0.3024  0.5507
 1321EOH      H 5289   4.217   0.373   4.581  2.6131  0.7643 -3.3625
 1322EOH      O 5290   3.760   4.297   7.592 -0.0213 -0.6396 -0.0585
 1322EOH      C 5291   3.788   4.413   7.512 -0.1193 -0.2810  0.4270
 1322EOH      C 5292   3.760   4.541   7.593  0.3011  0.5061 -0.6593
 1322EOH      H 5293   3.776   4.218   7.543 -0.4513  0.5989 -2.2847
 1323EOH      O 5294   7.561   1.775   0.823 -0.0272 -0.2892  0.2036
 1323EOH      C 5295   7.419   1.767   0.842  0.0240 -0.1788  0.6535
 1323EOH      C 5296   7.375   1.665   0.735  0.3632  0.0515  0.2934
 1323EOH      H 5297   7.599   1.815   0.900 -0.1315 -1.3314  0.8035
 1324EOH      O 5298   3.200   7.270   6.232 -0.4243 -0.1538 -0.0395
 1324EOH      C 5299   3.170   7.392   6.300  0.6923  0.0288  0.1370
 1324EOH      C 5300   3.079   7.365   6.420  0.3499  0.1277 -0.0998
 1324EOH      H 5301   3.284   7.246   6.267 -0.0809  0.3485 -0.4955
 1325EOH      O 5302   7.054   2.199   3.223  0.1713 -0.4927  0.1695
 1325EOH      C 5303   6.990   2.098   3.302 -0.4089 -0.1253  0.1714
 1325EOH      C 5304   6.956   2.156   3.441 -0.0382  0.4308  0.0326
 1325EOH      H 5305   7.144   2.205   3.249  0.5532  0.9804 -1.4002
 1326EOH      O 5306   0.012   5.968   2.715  0.0456  0.6544  1.0578
 1326EOH      C 5307   0.138   5.956   2.649 -0.2983  0.4962  0.4340
 1326EOH      C 5308   0.190   6.097   2.618 -0.1800  0.3679  0.0379
 1326EOH      H 5309   0.002   5.894   2.773  3.2547  0.1080  0.9700
 1327EOH      O 5310   0.709   7.528   4.809  0.3096 -0.2973 -0.0108
 1327EOH      C 5311   0.629   7.584   4.914  0.1674 -0.2358 -0.1523
 1327EOH      C 5312   0.616   7.736   4.889 -0.0770 -0.2474 -0.0932
 1327EOH      H 5313   0.657   7.522   4.730  0.5777  0.3149 -0.2419
 1328EOH      O 5314   3.944   6.420   5.165 -0.2633  0.6876 -0.0002
 1328EOH      C 5315   4.016   6.423   5.289  0.1811  0.0488 -0.2417
 1328EOH      C 5316   4.002   6.294   5.371  0.3470  0.1062 -0.1233
 1328EOH      H 5317   3.943   6.508   5.130  1.4881  0.4968 -0.5525
 1329EOH      O 5318   3.555   3.122   6.989 -0.3979 -0.1084 -0.1231
 1329EOH      C 5319   3.519   3.131   7.127 -0.4607 -0.0583 -0.1426
 1329EOH      C 5320   3.622   3.065   7.221 -0.5706 -0.3634 -0.2368
 1329EOH      H 5321   3.545   3.029   6.973 -0.7052 -0.2197  0.6478
 1330EOH      O 5322   3.707   3.213   2.176 -0.5333  0.2283  1.0536
 1330EOH      C 5323   3.624   3.321   2.132  0.2146  0.2651 -0.2990
 1330EOH      C 5324   3.674   3.414   2.021 -0.6961  0.4758 -0.5381
 1330EOH      H 5325   3.774   3.246   2.235  0.4316 -1.8663  1.1521
 1331EOH      O 5326   7.368   1.635   2.309  0.2456  0.5532 -0.0639
 1331EOH      C 5327   7.477   1.542   2.310 -0.2603 -0.0383  0.1037
 1331EOH      C 5328   7.444   1.442   2.198  0.1212  0.3157 -0.3257
 1331EOH      H 5329   7.350   1.658   2.399  0.2617  2.0644 -0.4242
 1332EOH      O 5330   6.759   7.756   3.256 -0.4287  0.1387 -0.5447
 1332EOH      C 5331   6.660   7.858   3.264  0.1826  0.6989 -0.1080
 1332EOH      C 5332   6.520   7.793   3.257  0.5616 -0.1345  0.0845
 1332EOH      H 5333   6.744   7.712   3.173 -1.6003  0.5258 -0.5463
 1333EOH      O 5334   3.201   3.752   3.500  0.1948  0.4532  0.2015
 1333EOH      C 5335   3.181   3.822   3.377 -0.1113 -0.6454 -0.3823
 1333EOH      C 5336   3.302   3.795   3.286  0.5000  0.0128  0.2256
 1333EOH      H 5337   3.266   3.801   3.548  1.3350 -0.6293 -0.2053
 1334EOH      O 5338   3.706   1.149   4.922  0.2686 -0.3265  0.6628
 1334EOH      C 5339   3.782   1.207   5.029  0.8434  0.1574 -0.0020
 1334EOH      C 5340   3.698   1.193   5.158  1.1430  0.7731  0.2630
 1334EOH      H 5341   3.634   1.209   4.909  0.9345  0.5798  1.0548
 1335EOH      O 5342   1.671   3.950   2.266 -0.6503 -0.0098  0.1541
 1335EOH      C 5343   1.802   3.913   2.221 -0.5565 -0.2371  0.6110
 1335EOH      C 5344   1.915   3.938   2.323  0.1780  0.0100 -0.2605
 1335EOH      H 5345   1.620   3.879   2.232 -1.9384  0.5347  0.9347
 1336EOH      O 5346   2.390   5.337   7.551  0.5020  0.1853  0.3286
 1336EOH      C 5347   2.489   5.389   7.461 -0.1422  0.5698 -0.1598
 1336EOH      C 5348   2.528   5.280   7.360  0.3980  0.3069  0.3302
 1336EOH      H 5349   2.384   5.405   7.616  0.7762  0.3371  0.1971
 1337EOH      O 5350   0.400   2.113   4.494 -0.0249 -0.3561 -0.0524
 1337EOH      C 5351   0.451   2.163   4.617  0.2735 -0.1094 -0.2755
 1337EOH      C 5352   0.563   2.070   4.668  0.2470 -0.2822 -0.5315
 1337EOH      H 5353   0.315   2.151   4.478  0.5570  0.7846 -0.5189
 1338EOH      O 5354   2.514   3.519   3.356 -0.4340 -0.4165  0.1905
 1338EOH      C 5355   2.394   3.585   3.399 -0.0708  0.4737 -0.1482
 1338EOH      C 5356   2.339   3.529   3.531  1.3060  0.3520  0.3804
 1338EOH      H 5357   2.493   3.429   3.337 -0.7502 -0.1770 -0.6205
 1339EOH      O 5358   2.390   4.583   7.095  0.2231 -0.0991  0.1941
 1339EOH      C 5359   2.288   4.527   7.178  0.0522  0.0519  0.0882
 1339EOH      C 5360   2.274   4.377   7.145 -0.1694  0.1125 -0.0920
 1339EOH      H 5361   2.369   4.675   7.091  1.7033  0.1641 -2.8938
 1340EOH      O 5362   4.436   1.917   4.876 -0.7600  0.3533 -0.7070
 1340EOH      C 5363   4.315   1.938   4.803 -0.7433  0.4268 -0.7134
 1340EOH      C 5364   4.197   1.957   4.900 -0.1750 -0.0868  0.0868
 1340EOH      H 5365   4.462   1.992   4.927  0.8069 -0.8356  0.2939
 1341EOH      O 5366   1.756   2.297   2.922  0.0342  0.7137  0.0515
 1341EOH      C 5367   1.800   2.224   3.037  0.3028 -0.2260 -0.6386
 1341EOH      C 5368   1.756   2.080   3.006 -0.0162 -0.4081  0.6249
 1341EOH      H 5369   1.818   2.368   2.930  1.7150 -0.9722  2.7273
 1342EOH      O 5370   3.693   4.818   5.320  0.4423  0.4018 -0.0849
 1342EOH      C 5371   3.703   4.924   5.416  0.7206  0.2145  0.0937
 1342EOH      C 5372   3.560   4.949   5.467  0.7047  0.0228  0.1415
 1342EOH      H 5373   3.773   4.828   5.271 -0.0163  2.9063 -0.3826
 1343EOH      O 5374   4.291   6.861   3.020  0.7065  0.2838  0.1339
 1343EOH      C 5375   4.318   6.841   2.881  0.3714  0.0917  0.0963
 1343EOH      C 5376   4.466   6.814   2.849  0.2914  0.3316 -0.4930
 1343EOH      H 5377   4.200   6.864   3.043  0.5888 -1.2214 -0.1021
 1344EOH      O 5378   4.747   2.895   5.145 -0.0909  0.1584 -0.0391
 1344EOH      C 5379   4.881   2.908   5.194 -0.0088 -0.6762 -0.0408
 1344EOH      C 5380   4.873   2.935   5.346  0.2038  0.3070 -0.2047
 1344EOH      H 5381   4.717   2.809   5.171 -0.0927  1.1374  3.4327
 1345EOH      O 5382   3.442   7.738   5.985 -0.5350  0.2036  0.2559
 1345EOH      C 5383   3.464   7.792   5.854 -0.1407  0.1084  0.2817
 1345EOH      C 5384   3.507   7.679   5.760  0.3825  0.4518  0.1071
 1345EOH      H 5385   3.373   7.675   5.970 -0.5818  0.1898  0.5274
 1346EOH      O 5386   1.911   2.056   0.544  0.4623  0.4541 -0.3242
 1346EOH      C 5387   2.021   2.135   0.592  0.3547  0.3445  0.0998
 1346EOH      C 5388   1.979   2.170   0.736  0.0437 -0.1644  0.1373
 1346EOH      H 5389   1.919   2.052   0.450  1.6194 -4.8114 -0.1733
 1347EOH      O 5390   7.548   0.979   5.045  0.0490  0.0713  0.6266
 1347EOH      C 5391   7.409   1.014   5.045 -0.0227 -0.2095 -0.2242
 1347EOH      C 5392   7.347   0.956   4.916 -0.0714 -0.4824 -0.0772
 1347EOH      H 5393   7.606   1.040   5.003 -0.5749  0.3624  0.1741
 1348EOH      O 5394   2.891   4.989   7.521 -0.4551  0.1676 -0.0014
 1348EOH      C 5395   2.844   4.972   7.655  0.0694  0.0093  0.1626
 1348EOH      C 5396   2.923   4.855   7.716 -0.0970 -0.1568  0.0638
 1348EOH      H 5397   2.910   5.080   7.504  1.3095 -0.3307 -0.8178
 1349EOH      O 5398   1.066   1.599   4.858 -0.1493 -0.7098 -0.0862
 1349EOH      C 5399   1.017   1.615   4.724 -0.2724  0.0264  0.0441
 1349EOH      C 5400   0.929   1.740   4.705 -0.1059  0.0540 -0.5509
 1349EOH      H 5401   1.130   1.529   4.852 -1.8713 -2.2008 -1.6089
 1350EOH      O 5402   2.812   4.073   1.129 -0.0929  0.3839 -0.1594
 1350EOH      C 5403   2.858   4.154   1.021  0.1389  0.5418  0.0566
 1350EOH      C 5404   2.807   4.299   1.017 -0.6033  0.2734 -0.3078
 1350EOH      H 5405   2.861   3.993   1.123 -0.5381  0.1275 -0.3818
 1351EOH      O 5406   3.465   2.171   5.970  0.0010  0.0693 -0.3564
 1351EOH      C 5407   3.575   2.082   5.947  0.2576  0.5110 -0.8549
 1351EOH      C 5408   3.530   1.963   5.861  0.1152 -0.3723  0.4269
 1351EOH      H 5409   3.496   2.251   5.931  1.4577  0.3630  1.3357
 1352EOH      O 5410   3.311   0.389   7.763 -0.2304  0.4539 -0.3665
 1352EOH      C 5411   3.320   0.248   7.738 -0.4894  0.4988 -0.7137
 1352EOH      C 5412   3.463   0.214   7.691 -0.5333  0.0270 -0.5031
 1352EOH      H 5413   3.368   0.412   7.834 -0.4715  0.1571 -0.0743
 1353EOH      O 5414   3.066   0.884   5.867 -0.3453 -0.4214  0.4729
 1353EOH      C 5415   3.000   1.008   5.892 -0.4787 -0.5682  0.8478
 1353EOH      C 5416   3.074   1.074   6.010  0.0750  1.1645 -0.4422
 1353EOH      H 5417   3.009   0.810   5.880 -0.6679 -0.2423  0.0796
 1354EOH      O 5418   5.458   1.197   3.930  0.1222  0.5629 -0.2679
 1354EOH      C 5419   5.476   1.281   4.044 -0.2868  0.2042  0.0669
 1354EOH      C 5420   5.539   1.412   3.992 -0.5374  0.2623 -0.0904
 1354EOH      H 5421   5.413   1.242   3.861 -1.8631 -0.8271  0.0595
 1355EOH      O 5422   1.752   7.229   6.047 -0.2204 -0.2735 -0.4068
 1355EOH      C 5423   1.878   7.199   5.986  0.0472 -0.2083  0.1089
 1355EOH      C 5424   1.999   7.205   6.081 -0.0470  0.2738  0.2020
 1355EOH      H 5425   1.720   7.149   6.086 -0.0612  0.5526  1.4478
 1356EOH      O 5426   7.813   0.479   1.986  0.1100 -0.3415 -0.1672
 1356EOH      C 5427   7.677   0.446   1.956  0.0570 -0.2916  0.0216
 1356EOH      C 5428   7.674   0.335   1.849 -0.5571 -0.8242  0.5971
 1356EOH      H 5429   7.813   0.547   2.051  2.1374  1.4540 -1.9647
 1357EOH      O 5430   2.147   0.930   2.057 -0.1145  0.3270 -0.4161
 1357EOH      C 5431   2.012   0.898   2.023 -0.2622  0.3947  0.1140
 1357EOH      C 5432   2.000   0.926   1.872 -0.2046 -0.1085  0.0158
 1357EOH      H 5433   2.166   0.899   2.144 -0.4090 -1.4900 -0.9808
 1358EOH      O 5434   2.615   5.211   3.104 -0.8444  0.1253  0.1292
 1358EOH      C 5435   2.697   5.215   3.221  0.1283  0.2385 -0.5486
 1358EOH      C 5436   2.673   5.347   3.296  0.3767 -0.2970  0.4744
 1358EOH      H 5437   2.559   5.135   3.107  0.6298 -0.9778  0.3414
 1359EOH      O 5438   7.209   0.244   2.338  0.1248  0.1469 -0.2365
 1359EOH      C 5439   7.276   0.337   2.424  0.3671 -0.2832  0.0409
 1359EOH      C 5440   7.419   0.357   2.369  0.1156  0.7559 -0.2465
 1359EOH      H 5441   7.253   0.161   2.327 -1.8545 -0.9021 -0.3711
 1360EOH      O 5442   3.988   6.937   4.350  0.2857  0.1507  0.2724
 1360EOH      C 5443   4.075   6.823   4.342 -0.2954 -0.2734 -0.0099
 1360EOH      C 5444   4.072   6.735   4.468 -0.1424 -0.0840  0.1253
 1360EOH      H 5445   4.046   7.010   4.366  0.8805 -0.7724  2.5141
 1361EOH      O 5446   1.488   7.647   3.773  0.1920  0.3112  0.0532
 1361EOH      C 5447   1.362   7.642   3.841  0.1455  0.4877 -0.0188
 1361EOH      C 5448   1.375   7.579   3.981  0.3367  0.5804  0.0049
 1361EOH      H 5449   1.462   7.621   3.686 -1.2021  0.5254  0.3877
 1362EOH      O 5450   1.292   0.612   4.189  0.3514 -0.2238  0.0299
 1362EOH      C 5451   1.381   0.576   4.083  0.2744 -0.2831 -0.0144
 1362EOH      C 5452   1.514   0.646   4.117 -0.0187 -0.0233  0.6120
 1362EOH      H 5453   1.216   0.653   4.150 -0.5406 -0.8659  1.0757
 1363EOH      O 5454   2.969   2.191   5.164  0.0358 -0.0128 -0.3596
 1363EOH      C 5455   2.880   2.277   5.091  0.1010 -0.0343 -0.4656
 1363EOH      C 5456   2.733   2.242   5.120  0.2735 -0.6011 -0.2577
 1363EOH      H 5457   3.004   2.240   5.236  0.8596 -1.5274  0.2976
 1364EOH      O 5458   2.606   6.316   3.506 -0.1255 -0.3237 -0.0157
 1364EOH      C 5459   2.557   6.425   3.585  0.1942 -0.0702 -0.1665
 1364EOH      C 5460   2.507   6.356   3.713  0.2016 -0.7126 -0.5040
 1364EOH      H 5461   2.624   6.355   3.421  0.9542 -0.0651  0.3202
 1365EOH      O 5462   2.226   3.895   5.058  0.2619 -0.1329  0.3807
 1365EOH      C 5463   2.322   3.921   4.955  0.2107  0.2982  0.4416
 1365EOH      C 5464   2.257   4.024   4.860  0.4516 -0.2516 -0.3123
 1365EOH      H 5465   2.239   3.810   5.096  0.6922 -0.0266  0.4641
 1366EOH      O 5466   1.587   4.713   4.958  0.0026  0.1309  0.2589
 1366EOH      C 5467   1.709   4.782   4.930  0.1596 -0.1198  0.3220
 1366EOH      C 5468   1.724   4.910   5.014  0.4908 -0.2977  0.5344
 1366EOH      H 5469   1.518   4.768   4.925 -0.4458 -0.7074 -0.1917
 1367EOH      O 5470   0.425   3.320   3.903  0.2191 -0.2961  0.3140
 1367EOH      C 5471   0.412   3.462   3.917 -0.3544 -0.3379  0.2038
 1367EOH      C 5472   0.545   3.503   3.982 -0.3342 -0.1253  0.0281
 1367EOH      H 5473   0.516   3.301   3.886 -0.2793 -0.8175 -1.8870
 1368EOH      O 5474   4.718   3.668   5.012  0.3116 -0.4698  0.0271
 1368EOH      C 5475   4.582   3.708   4.992  0.4540 -0.1147 -0.2409
 1368EOH      C 5476   4.547   3.691   4.843  0.3185  0.2740 -0.2522
 1368EOH      H 5477   4.748   3.684   5.101  3.4615  1.5432 -1.2875
 1369EOH      O 5478   0.657   3.211   3.884 -0.0517 -0.0903  0.1579
 1369EOH      C 5479   0.676   3.106   3.980  0.4529 -0.3174 -0.1870
 1369EOH      C 5480   0.709   3.180   4.111 -0.0870 -0.5857  0.1014
 1369EOH      H 5481   0.732   3.217   3.827 -0.4111  1.4275 -0.1624
 1370EOH      O 5482   0.165   2.152   4.444 -0.2179 -0.5236 -0.1518
 1370EOH      C 5483   0.125   2.210   4.320  0.2439 -0.1743 -0.1366
 1370EOH      C 5484   0.001   2.138   4.263  0.0227 -0.2764  0.4731
 1370EOH      H 5485   0.094   2.103   4.483 -0.1623 -1.4046 -1.1403
 1371EOH      O 5486   3.993   4.576   2.985  0.0296  0.4549 -0.5736
 1371EOH      C 5487   4.036   4.440   3.002  0.1643  0.5800  0.0955
 1371EOH      C 5488   4.130   4.393   2.890 -0.3416 -0.0147 -0.0763
 1371EOH      H 5489   3.973   4.608   3.072  0.0643 -2.5679  0.6407
 1372EOH      O 5490   6.993   2.193   7.680  0.2969  0.1122  0.0459
 1372EOH      C 5491   7.029   2.286   7.782  0.2711  0.5064 -0.3032
 1372EOH      C 5492   7.124   2.215   7.880  0.0520  0.0127 -0.4482
 1372EOH      H 5493   7.070   2.152   7.646  0.0175 -0.3780 -0.0019
 1373EOH      O 5494   1.427   1.380   4.098 -0.3236 -0.7284 -0.5837
 1373EOH      C 5495   1.468   1.425   3.968  0.2920  0.0197 -0.1345
 1373EOH      C 5496   1.521   1.569   3.969 -0.5401  0.3233  0.1172
 1373EOH      H 5497   1.375   1.301   4.088  1.4329 -1.9082 -0.5602
 1374EOH      O 5498   0.808   0.947   5.089 -0.4166 -0.2066  0.4196
 1374EOH      C 5499   0.668   0.928   5.064 -0.4122  0.2662  0.0333
 1374EOH      C 5500   0.668   0.778   5.031  0.1788  0.1944  0.3498
 1374EOH      H 5501   0.831   1.033   5.057 -4.5351  0.9907  0.3368
 1375EOH      O 5502   5.238   5.019   4.170 -0.5818  0.0199 -0.0964
 1375EOH      C 5503   5.225   5.095   4.050 -0.4244  0.3644  0.1032
 1375EOH      C 5504   5.176   4.991   3.948  0.3101  0.0896  0.0281
 1375EOH      H 5505   5.213   5.073   4.244 -0.5575  0.1027 -0.1504
 1376EOH      O 5506   1.412   1.239   5.486  0.6308  0.4794 -0.2458
 1376EOH      C 5507   1.531   1.198   5.553  0.0800 -0.2152  0.3138
 1376EOH      C 5508   1.596   1.319   5.623  0.7129 -0.6841  0.5433
 1376EOH      H 5509   1.385   1.166   5.433 -2.0322 -0.7688  2.6673
 1377EOH      O 5510   3.715   2.545   5.768  0.4141  0.0926  0.1484
 1377EOH      C 5511   3.823   2.466   5.719  0.1605 -0.3855  0.3533
 1377EOH      C 5512   3.887   2.388   5.835  0.1578 -0.2549  0.4417
 1377EOH      H 5513   3.740   2.637   5.769 -2.1674  0.8772 -1.5078
 1378EOH      O 5514   0.656   5.056   1.703 -0.2069  0.1548  0.6849
 1378EOH      C 5515   0.536   5.130   1.678 -0.3147 -0.2238  0.0545
 1378EOH      C 5516   0.519   5.116   1.526 -0.8249 -0.4723  0.1344
 1378EOH      H 5517   0.634   4.980   1.754 -2.9392 -0.6363 -1.5420
 1379EOH      O 5518   3.041   5.434   7.168  0.7649 -0.3011 -0.5280
 1379EOH      C 5519   3.028   5.574   7.148 -0.6293 -0.3151  0.1860
 1379EOH      C 5520   2.887   5.624   7.184 -0.3833  0.6538 -0.1662
 1379EOH      H 5521   3.132   5.409   7.177  0.6063  0.2629  3.4461
 1380EOH      O 5522   3.337   5.735   1.121 -0.1692 -0.0054  0.1914
 1380EOH      C 5523   3.264   5.614   1.103  0.0006 -0.0699 -0.0672
 1380EOH      C 5524   3.277   5.511   1.217  0.4055 -0.3815 -0.3956
 1380EOH      H 5525   3.429   5.715   1.119 -0.2732 -0.4924 -4.0727
 1381EOH      O 5526   7.671   0.503   5.028 -0.0557 -0.4738  0.0311
 1381EOH      C 5527   7.567   0.484   4.931  0.1093 -0.5789 -0.1261
 1381EOH      C 5528   7.621   0.493   4.787  0.1516 -0.8758 -0.1286
 1381EOH      H 5529   7.673   0.591   5.063  1.7609 -1.1661  1.7595
 1382EOH      O 5530   3.491   5.159   4.738 -0.3130 -0.2001  0.0447
 1382EOH      C 5531   3.553   5.073   4.833 -0.3399 -0.3573 -0.0772
 1382EOH      C 5532   3.547   5.132   4.976 -0.1692  0.2810 -0.3315
 1382EOH      H 5533   3.544   5.237   4.734  0.3188 -0.6523 -0.5300
 1383EOH      O 5534   3.624   4.266   5.189 -0.0978  0.0411 -0.2680
 1383EOH      C 5535   3.614   4.342   5.068  0.2770  0.0815 -0.2733
 1383EOH      C 5536   3.635   4.250   4.946  1.0635 -0.6868  0.4316
 1383EOH      H 5537   3.537   4.274   5.227 -0.6215 -2.0968 -0.9523
 1384EOH      O 5538   1.310   6.261   0.367 -0.0436 -0.5114  0.4894
 1384EOH      C 5539   1.387   6.176   0.451  0.5187  0.0356  0.5364
 1384EOH      C 5540   1.372   6.203   0.602 -0.1727  0.8278  0.3315
 1384EOH      H 5541   1.322   6.228   0.279  1.9314  0.7271  0.2549
 1385EOH      O 5542   1.079   7.869   3.108 -0.3740  0.3666  0.1574
 1385EOH      C 5543   1.145   7.860   3.234  0.8411  0.0492 -0.4930
 1385EOH      C 5544   1.233   7.734   3.245  0.4887 -0.1271  0.3653
 1385EOH      H 5545   1.144   7.894   3.044  0.5862  0.6578  1.2450
 1386EOH      O 5546   2.731   6.580   1.140 -0.2071 -0.3533  0.9402
 1386EOH      C 5547   2.784   6.711   1.159 -0.6151 -0.0533  0.0027
 1386EOH      C 5548   2.840   6.718   1.302 -1.3611 -0.0313  0.2950
 1386EOH      H 5549   2.789   6.516   1.180  2.2077  2.0752  1.4582
 1387EOH      O 5550   1.033   0.570   3.815  0.3561  0.1189  0.0521
 1387EOH      C 5551   1.122   0.476   3.754 -0.0556  0.2037 -0.6954
 1387EOH      C 5552   1.252   0.544   3.707 -0.0561  0.3278 -0.5202
 1387EOH      H 5553   0.944   0.539   3.820  0.9405 -1.4961  0.9645
 1388EOH      O 5554   0.089   1.471   6.412  0.0066  0.0975 -0.5380
 1388EOH      C 5555  -0.017   1.565   6.432 -0.2475 -0.3745  0.3587
 1388EOH      C 5556   0.032   1.680   6.522  0.4186 -0.1834 -0.2448
 1388EOH      H 5557   0.052   1.384   6.407  0.5187 -0.1565  0.0178
 1389EOH      O 5558   1.235   0.631   2.412  0.4256 -0.4408 -0.0676
 1389EOH      C 5559   1.193   0.525   2.326 -0.1401 -0.2332 -0.0493
 1389EOH      C 5560   1.278   0.396   2.329 -0.0548 -0.1764 -0.0479
 1389EOH      H 5561   1.251   0.600   2.500 -0.8399 -1.4081 -0.1653
 1390EOH      O 5562   3.083   0.269   6.704 -0.3639 -0.1843 -0.0706
 1390EOH      C 5563   3.032   0.295   6.835 -0.2799  0.1449 -0.1027
 1390EOH      C 5564   3.024   0.155   6.896 -0.5833  0.4925  0.6546
 1390EOH      H 5565   3.100   0.351   6.658 -0.3269 -1.0110 -1.5764
 1391EOH      O 5566   7.340   0.029   2.385  0.3547 -0.3294  0.0070
 1391EOH      C 5567   7.424  -0.066   2.319  0.3398 -0.0998 -0.3464
 1391EOH      C 5568   7.462  -0.020   2.178  0.0471  0.6679 -0.1780
 1391EOH      H 5569   7.372   0.030   2.474  0.7462 -2.9089 -0.0547
 1392EOH      O 5570   0.389   6.695   1.528 -0.1013 -0.4898 -0.0326
 1392EOH      C 5571   0.449   6.758   1.414 -0.0779  0.0374  0.2678
 1392EOH      C 5572   0.331   6.838   1.357  0.0964  0.2618  0.2242
 1392EOH      H 5573   0.377   6.759   1.597 -0.4221 -0.0281 -0.5141
 1393EOH      O 5574   1.256   1.878   0.755 -0.0648 -0.1352 -0.4801
 1393EOH      C 5575   1.367   1.790   0.741 -0.1036 -0.1758 -0.5331
 1393EOH      C 5576   1.426   1.728   0.869 -0.6708  0.1976 -0.0919
 1393EOH      H 5577   1.249   1.944   0.687 -0.5768 -0.1591 -0.4543
 1394EOH      O 5578   1.915   1.697   5.646 -0.2407 -0.2183  0.2468
 1394EOH      C 5579   1.954   1.594   5.554 -0.5536 -0.1178 -0.0022
 1394EOH      C 5580   2.038   1.632   5.431 -0.2982 -0.3333  0.1037
 1394EOH      H 5581   1.821   1.707   5.640 -0.0160  1.0902 -1.6512
 1395EOH      O 5582   3.203   5.943   1.176  0.4951  0.2069 -0.5355
 1395EOH      C 5583   3.248   5.983   1.306  0.0124  0.0663 -0.3259
 1395EOH      C 5584   3.239   6.137   1.306 -0.0885  0.0611  0.1842
 1395EOH      H 5585   3.267   5.874   1.163  3.6266  3.0035 -0.8533
 1396EOH      O 5586   0.361   0.373   5.281  0.2849  0.5050 -0.2253
 1396EOH      C 5587   0.291   0.495   5.254 -0.3355  0.1282 -0.3365
 1396EOH      C 5588   0.394   0.605   5.222  0.0684 -0.1422  0.0178
 1396EOH      H 5589   0.313   0.318   5.341  0.8667  0.3085  0.0703
 1397EOH      O 5590   7.826   3.006   3.140  0.1308 -0.8607 -0.0115
 1397EOH      C 5591   7.959   3.020   3.088 -0.0987 -0.0966 -0.4056
 1397EOH      C 5592   8.041   2.891   3.108 -0.7723 -0.4254  0.2423
 1397EOH      H 5593   7.806   3.086   3.187  0.2716 -0.5077 -0.5441
 1398EOH      O 5594   2.585   6.068   3.487  0.0187  0.3543  0.5127
 1398EOH      C 5595   2.553   5.988   3.602  0.0193 -0.2389  0.1023
 1398EOH      C 5596   2.657   5.876   3.617  0.2666 -0.0794 -0.4121
 1398EOH      H 5597   2.587   6.158   3.513  0.2064  0.7123 -0.7308
 1399EOH      O 5598   5.435   4.777   6.193  0.1240  0.1002 -0.2139
 1399EOH      C 5599   5.528   4.727   6.289 -0.5229 -0.7901 -0.0392
 1399EOH      C 5600   5.616   4.619   6.221  0.4703  0.1227 -0.2170
 1399EOH      H 5601   5.355   4.818   6.223 -2.6296 -2.0146 -4.1582
 1400EOH      O 5602   2.149   2.397   5.685  0.0346  0.0664 -0.2886
 1400EOH      C 5603   2.175   2.442   5.818 -0.1534 -0.1469 -0.1788
 1400EOH      C 5604   2.064   2.537   5.864  0.2080  0.2579 -0.1424
 1400EOH      H 5605   2.063   2.358   5.675 -0.8766  2.0266 -0.2983
 1401EOH      O 5606   1.840   3.898   5.645 -0.2843  0.5164 -0.5338
 1401EOH      C 5607   1.814   3.761   5.612 -0.7257  0.6180 -0.6004
 1401EOH      C 5608   1.665   3.723   5.623 -0.4929 -0.0221  0.4300
 1401EOH      H 5609   1.932   3.907   5.663 -0.5292  0.7480  0.6338
 1402EOH      O 5610   1.831   5.052   3.559  0.2889  0.4401 -0.1351
 1402EOH      C 5611   1.872   4.991   3.436  0.1919  0.3140 -0.1065
 1402EOH      C 5612   1.740   4.966   3.361  0.2312 -0.0929 -0.0384
 1402EOH      H 5613   1.805   4.979   3.613  4.8864 -0.4722  1.0742
 1403EOH      O 5614   0.470   6.247   0.662  0.1373 -0.5616  0.3947
 1403EOH      C 5615   0.331   6.220   0.680 -0.1110  0.8603  0.6458
 1403EOH      C 5616   0.290   6.194   0.826  0.4698  0.2088  0.6892
 1403EOH      H 5617   0.468   6.288   0.577 -1.1110 -1.2461  0.0769
 1404EOH      O 5618   2.802   7.273   4.474 -0.1552 -0.4828 -0.0402
 1404EOH      C 5619   2.824   7.191   4.589 -0.1825 -0.0830  0.2497
 1404EOH      C 5620   2.696   7.107   4.607 -0.0788 -0.3829 -0.4116
 1404EOH      H 5621   2.803   7.209   4.403 -0.0835 -2.8935  2.0589
 1405EOH      O 5622   1.041   3.783   7.408  0.0100  0.0619 -0.3307
 1405EOH      C 5623   1.091   3.912   7.370  0.2571 -0.0509 -0.3884
 1405EOH      C 5624   0.990   4.024   7.401  0.1713 -0.1669 -0.2458
 1405EOH      H 5625   1.100   3.713   7.387  0.4557  0.5024 -0.5523
 1406EOH      O 5626   2.902   7.468   2.979  0.3417  0.1669 -0.4330
 1406EOH      C 5627   3.017   7.495   2.898  0.5687  0.1171 -0.1254
 1406EOH      C 5628   3.124   7.386   2.916 -0.1856 -0.5745  0.1768
 1406EOH      H 5629   2.829   7.519   2.947  0.7294  1.7352  1.1154
 1407EOH      O 5630   3.341   0.360   6.441 -0.3877 -0.3290 -0.3621
 1407EOH      C 5631   3.340   0.321   6.303  0.0476  0.3512 -0.5635
 1407EOH      C 5632   3.216   0.387   6.241 -0.2458  0.1073 -0.2403
 1407EOH      H 5633   3.339   0.285   6.497 -0.9876  1.6881  2.4238
 1408EOH      O 5634   6.469   6.584   3.454 -0.1844 -0.4462 -0.3203
 1408EOH      C 5635   6.517   6.456   3.411  0.3652 -0.3505 -0.0023
 1408EOH      C 5636   6.583   6.387   3.532 -0.1270 -0.5494  0.1561
 1408EOH      H 5637   6.546   6.638   3.465 -1.2292  0.9184  0.4055
 1409EOH      O 5638   2.368   1.525   1.878  0.0821 -0.1512 -0.1278
 1409EOH      C 5639   2.498   1.583   1.882 -0.1430  0.3575 -0.1617
 1409EOH      C 5640   2.606   1.510   1.964 -0.0998  0.5411 -0.0539
 1409EOH      H 5641   2.340   1.533   1.788  0.8776 -1.3288 -0.4822
 1410EOH      O 5642   1.550   6.888   2.400 -0.3992  0.1253  0.3229
 1410EOH      C 5643   1.505   6.811   2.511  0.2714 -0.0809  0.4524
 1410EOH      C 5644   1.411   6.889   2.605  0.5842  1.1331 -0.2329
 1410EOH      H 5645   1.583   6.825   2.337 -0.5448  1.1275 -0.7796
 1411EOH      O 5646   0.807   7.019   6.712 -0.0047  0.1712 -0.2343
 1411EOH      C 5647   0.885   6.932   6.630 -0.4330 -0.6887  0.2587
 1411EOH      C 5648   0.928   6.802   6.701 -0.1945 -0.7107  0.0750
 1411EOH      H 5649   0.781   7.097   6.666  0.0629  1.6053  2.1110
 1412EOH      O 5650   7.652   2.027   3.700  0.2367 -0.0500 -0.1632
 1412EOH      C 5651   7.670   1.886   3.715 -0.3445 -0.0748  0.2998
 1412EOH      C 5652   7.558   1.845   3.813 -0.2463 -0.1998  0.3594
 1412EOH      H 5653   7.683   2.055   3.615 -0.6664  1.2319 -0.1000
 1413EOH      O 5654   5.551   1.855   3.549 -0.0950  0.1076  0.5302
 1413EOH      C 5655   5.514   1.724   3.593  0.0334 -0.1062  0.0080
 1413EOH      C 5656   5.627   1.620   3.604 -0.0551 -0.2069 -0.0349
 1413EOH      H 5657   5.478   1.914   3.553 -1.6130 -1.7112  0.2120
 1414EOH      O 5658   1.583   3.906   3.792 -0.0858  0.2128  0.1741
 1414EOH      C 5659   1.513   3.915   3.668  0.3869 -0.3000 -0.1334
 1414EOH      C 5660   1.457   4.058   3.658  0.7691 -0.1436 -0.0100
 1414EOH      H 5661   1.577   3.814   3.812 -0.8608  0.3335  0.4806
 1415EOH      O 5662   2.994   3.881   1.144 -0.3405 -0.0783  0.2813
 1415EOH      C 5663   2.974   3.772   1.236 -0.1200  0.0414  0.4701
 1415EOH      C 5664   2.945   3.642   1.159  0.3263  0.2386 -0.0431
 1415EOH      H 5665   3.079   3.879   1.103 -0.0568  0.2104  0.8485
 1416EOH      O 5666   2.399   0.635   2.200  0.4841 -0.0904 -0.0126
 1416EOH      C 5667   2.444   0.657   2.066 -0.0723  0.4461 -0.1116
 1416EOH      C 5668   2.531   0.537   2.026 -0.1839  0.3369 -0.0262
 1416EOH      H 5669   2.348   0.710   2.226 -1.0031 -0.5531 -1.4965
 1417EOH      O 5670   4.176   0.065   5.662 -0.0598 -0.5054  0.6137
 1417EOH      C 5671   4.309   0.114   5.678 -0.0390 -0.2701 -0.2528
 1417EOH      C 5672   4.394  -0.006   5.723  0.2425  0.1038  0.2201
 1417EOH      H 5673   4.142   0.094   5.578 -1.5617 -0.3537  1.2476
 1418EOH      O 5674   2.822   5.218   5.944 -0.0739  0.0679  0.0623
 1418EOH      C 5675   2.730   5.328   5.943 -0.1129  0.0376  0.4123
 1418EOH      C 5676   2.790   5.449   6.017  0.3124  0.3242 -0.4021
 1418EOH      H 5677   2.854   5.208   5.856  1.8720 -0.9258  0.8473
 1419EOH      O 5678   1.816   4.364   0.661  0.2860 -0.1169  0.2759
 1419EOH      C 5679   1.855   4.242   0.597  0.6646  0.2506 -0.1938
 1419EOH      C 5680   1.897   4.265   0.450 -0.3842 -0.1708 -0.5587
 1419EOH      H 5681   1.732   4.360   0.704  1.0675 -1.7190  1.6761
 1420EOH      O 5682   1.025   0.135   3.837  0.1851 -0.2406  0.6400
 1420EOH      C 5683   1.062   0.000   3.866 -0.1135 -0.5385 -0.3505
 1420EOH      C 5684   0.953  -0.057   3.959  0.1905 -0.0468  0.3084
 1420EOH      H 5685   1.028   0.176   3.922 -0.7138  0.1773  0.4719
 1421EOH      O 5686   7.149   1.498   3.847 -0.3849  1.0499 -0.0645
 1421EOH      C 5687   7.189   1.574   3.961  0.2526  0.4529  0.1095
 1421EOH      C 5688   7.163   1.721   3.927  0.9145  0.6760  0.5483
 1421EOH      H 5689   7.170   1.540   3.765  0.0294 -0.9236 -1.0008
 1422EOH      O 5690   1.055   2.162   5.653 -0.0063 -0.5646 -0.5636
 1422EOH      C 5691   1.073   2.103   5.782 -0.5883  0.0357 -0.2040
 1422EOH      C 5692   1.027   1.956   5.771 -0.2831 -0.0188 -0.7628
 1422EOH      H 5693   0.973   2.208   5.662  1.6668  2.3611  0.6931
 1423EOH      O 5694   2.012   2.171   5.311 -0.1608 -0.3452  0.2443
 1423EOH      C 5695   2.103   2.100   5.395 -0.3290 -0.3955  0.3867
 1423EOH      C 5696   2.026   1.987   5.465  0.6254 -0.9390  0.5636
 1423EOH      H 5697   1.978   2.109   5.249 -0.3699  1.0871 -1.1223
 1424EOH      O 5698   1.408   4.814   4.798 -0.4697  0.1783  0.5671
 1424EOH      C 5699   1.345   4.912   4.714 -0.0026 -0.0938 -0.1065
 1424EOH      C 5700   1.429   5.036   4.752  0.1870 -0.0502 -0.6637
 1424EOH      H 5701   1.401   4.733   4.749  0.9486  0.1895  0.3390
 1425EOH      O 5702   0.923   4.228   5.707 -0.4460 -0.5477  0.2980
 1425EOH      C 5703   0.825   4.184   5.612 -0.2408  0.0961 -0.2159
 1425EOH      C 5704   0.762   4.058   5.674  0.0525  0.2618  0.4256
 1425EOH      H 5705   0.980   4.154   5.718  0.2697 -0.0958 -0.3492
 1426EOH      O 5706   2.121   3.590   5.713  0.1562 -0.2602 -0.1645
 1426EOH      C 5707   2.167   3.463   5.666 -0.4513 -0.3169 -0.6054
 1426EOH      C 5708   2.043   3.391   5.610 -0.7424 -0.1436 -0.1883
 1426EOH      H 5709   2.097   3.586   5.805  0.0165 -1.2036 -0.2438
 1427EOH      O 5710   4.513   4.716   5.298  0.1857 -0.0680 -0.2579
 1427EOH      C 5711   4.560   4.729   5.432  0.1291  0.7572 -0.3164
 1427EOH      C 5712   4.494   4.858   5.485 -0.1568  0.6782 -0.4814
 1427EOH      H 5713   4.589   4.716   5.242  1.1960  1.5185  1.0746
 1428EOH      O 5714   2.600   1.563   5.635 -0.0827 -0.0664  0.1064
 1428EOH      C 5715   2.534   1.679   5.688 -0.4363 -0.2918  0.1571
 1428EOH      C 5716   2.482   1.648   5.829  0.0521 -0.0327  0.3930
 1428EOH      H 5717   2.560   1.547   5.551  0.1254 -1.9280  0.3452
 1429EOH      O 5718   1.315   0.255   6.687 -0.1064 -0.2261 -0.2491
 1429EOH      C 5719   1.420   0.226   6.780 -0.1486  0.1746 -0.0743
 1429EOH      C 5720   1.452   0.367   6.831  0.1660  0.2290 -0.4163
 1429EOH      H 5721   1.363   0.306   6.624  1.2442  1.0147  1.7368
 1430EOH      O 5722   3.795   2.316   6.542 -0.1846 -0.8429  0.2031
 1430EOH      C 5723   3.801   2.332   6.400  0.1101 -0.0382  0.3065
 1430EOH      C 5724   3.946   2.330   6.347 -0.1034 -0.5785 -0.2587
 1430EOH      H 5725   3.711   2.275   6.557 -1.2697 -0.7366 -4.6569
 1431EOH      O 5726   0.786   1.059   3.725  0.4396 -0.3664 -0.1120
 1431EOH      C 5727   0.740   0.966   3.626  0.1817 -0.0420 -0.3000
 1431EOH      C 5728   0.655   0.858   3.696  0.8104 -0.3658 -0.0243
 1431EOH      H 5729   0.835   1.123   3.674  1.2357 -0.2098  0.8316
 1432EOH      O 5730   3.874   2.511   0.145 -0.2677  0.3956 -0.4724
 1432EOH      C 5731   3.781   2.460   0.049 -0.3547 -0.4641  0.0712
 1432EOH      C 5732   3.692   2.574  -0.002  0.2908  0.0977  0.1846
 1432EOH      H 5733   3.892   2.603   0.129 -2.0088  0.5961 -1.3548
 1433EOH      O 5734   4.816   3.386   5.888 -0.3949 -0.6197 -0.1839
 1433EOH      C 5735   4.723   3.474   5.951  0.1958 -0.3224  0.2728
 1433EOH      C 5736   4.581   3.421   5.926  0.2348 -0.2830 -0.0293
 1433EOH      H 5737   4.899   3.425   5.911  0.3751 -2.0061 -0.5489
 1434EOH      O 5738   0.819   2.787   5.950  0.3928  0.2084 -0.1751
 1434EOH      C 5739   0.692   2.845   5.981  0.2148 -0.1787 -0.1752
 1434EOH      C 5740   0.588   2.803   5.876  0.1121  0.0624 -0.1680
 1434EOH      H 5741   0.841   2.715   6.007 -0.6249 -1.3178 -1.6525
 1435EOH      O 5742   0.186   3.216   7.384 -0.3892  0.0945  0.0460
 1435EOH      C 5743   0.283   3.168   7.290 -0.6490  0.0232 -0.1866
 1435EOH      C 5744   0.257   3.244   7.159 -0.3104  0.2138 -0.1441
 1435EOH      H 5745   0.141   3.288   7.342 -1.8856 -1.1722 -0.5441
 1436EOH      O 5746   4.596   3.204   7.190 -0.1987 -0.1661  0.2061
 1436EOH      C 5747   4.567   3.343   7.204 -0.0744 -0.0732 -0.4257
 1436EOH      C 5748   4.700   3.421   7.217 -0.1908  0.0463  0.0671
 1436EOH      H 5749   4.517   3.153   7.174 -1.7306  2.2870 -0.3074
 1437EOH      O 5750   3.622   3.165   0.207 -0.0262 -0.0613  0.0275
 1437EOH      C 5751   3.644   3.134   0.069  0.5520  0.0575  0.0911
 1437EOH      C 5752   3.695   2.989   0.057  0.1722 -0.0932  0.2697
 1437EOH      H 5753   3.572   3.093   0.242  0.2588  0.2512  1.1115
 1438EOH      O 5754   2.614   4.352   5.190  0.2653 -0.2081  0.0700
 1438EOH      C 5755   2.529   4.256   5.254  0.0420 -0.1380 -0.1224
 1438EOH      C 5756   2.523   4.116   5.191  0.2655 -0.2673  0.1448
 1438EOH      H 5757   2.576   4.438   5.199 -1.1235 -0.7627 -0.3951
 1439EOH      O 5758   0.261   2.315   4.823 -0.4042  0.5225 -0.0937
 1439EOH      C 5759   0.207   2.260   4.943  0.1264  0.0212 -0.0829
 1439EOH      C 5760   0.075   2.334   4.974  0.1898 -0.2252  0.8115
 1439EOH      H 5761   0.327   2.374   4.856  0.1088 -0.2950  0.3732
 1440EOH      O 5762   2.936   5.193   0.558  0.6196 -1.0483  0.7404
 1440EOH      C 5763   2.946   5.110   0.443  0.2989 -0.0516 -0.0147
 1440EOH      C 5764   2.821   5.021   0.425  0.4989 -0.2318 -0.5460
 1440EOH      H 5765   2.846   5.222   0.567  0.9218  0.7637 -1.5812
 1441EOH      O 5766   2.962   0.112   3.707 -0.2449  0.2620  0.4938
 1441EOH      C 5767   3.100   0.077   3.709 -0.1968  0.4148 -0.0172
 1441EOH      C 5768   3.149   0.066   3.563  0.3417  0.1366  0.1823
 1441EOH      H 5769   2.927   0.083   3.790 -3.3715  1.4596 -0.3317
 1442EOH      O 5770   3.489   3.509   0.885  0.1828 -0.2469  0.3409
 1442EOH      C 5771   3.608   3.585   0.863  0.0375  0.0114  0.4364
 1442EOH      C 5772   3.694   3.608   0.988  0.2301  0.3049  0.2496
 1442EOH      H 5773   3.460   3.482   0.800  0.8331 -0.6338  0.2419
 1443EOH      O 5774   1.591   5.674   3.071  0.0915  0.1621  0.2463
 1443EOH      C 5775   1.634   5.655   2.936  0.4999  0.4772  0.3273
 1443EOH      C 5776   1.551   5.539   2.876  0.9265  0.3394  0.0021
 1443EOH      H 5777   1.665   5.715   3.114  0.4016 -0.1989  0.0680
 1444EOH      O 5778   0.471   6.393   3.051 -0.3490 -0.1722 -0.0299
 1444EOH      C 5779   0.400   6.301   3.134 -0.5759  0.2592  0.2544
 1444EOH      C 5780   0.449   6.159   3.106 -1.2811  0.1393 -0.3747
 1444EOH      H 5781   0.563   6.383   3.071  0.1293  1.8648 -1.0466
 1445EOH      O 5782   3.703   5.838   1.296 -0.3980  0.1769  0.0068
 1445EOH      C 5783   3.772   5.918   1.392 -0.3341 -0.1806  0.2622
 1445EOH      C 5784   3.876   6.011   1.326 -0.1908 -0.5755 -0.0676
 1445EOH      H 5785   3.652   5.774   1.343  0.1366 -0.4720 -0.2816
 1446EOH      O 5786   2.390   4.544   1.634 -0.2229  0.0515 -0.0471
 1446EOH      C 5787   2.517   4.585   1.685 -0.2602 -0.4892  0.4750
 1446EOH      C 5788   2.506   4.628   1.833 -0.2979  0.1102  0.2996
 1446EOH      H 5789   2.385   4.559   1.540  0.6447 -1.9235 -0.4265
 1447EOH      O 5790   1.146   7.355   1.725 -0.2617 -0.5169 -0.5371
 1447EOH      C 5791   1.075   7.260   1.804 -0.2675 -0.2140 -0.1756
 1447EOH      C 5792   1.090   7.273   1.957  0.5610 -0.5005 -0.2319
 1447EOH      H 5793   1.147   7.315   1.640  0.9475  0.5485 -1.0428
 1448EOH      O 5794   1.981   2.363   3.401 -0.0282  0.1731 -0.1454
 1448EOH      C 5795   1.929   2.276   3.502 -0.0517  0.0366 -0.2745
 1448EOH      C 5796   1.939   2.333   3.645 -0.2440 -0.0938 -0.2083
 1448EOH      H 5797   1.936   2.446   3.397  1.4269  1.0077  0.3327
 1449EOH      O 5798   2.728   6.263   4.523 -0.2430 -0.4613  0.5886
 1449EOH      C 5799   2.840   6.312   4.596 -0.5741  0.5333  0.4350
 1449EOH      C 5800   2.920   6.384   4.486 -0.4657  0.0740  0.2108
 1449EOH      H 5801   2.651   6.308   4.556  1.5711  1.9933  1.6108
 1450EOH      O 5802   4.369   5.089   3.971  0.0844  0.0722  0.6295
 1450EOH      C 5803   4.497   5.139   3.932  0.0616 -0.2121  0.1933
 1450EOH      C 5804   4.541   5.066   3.804 -0.0581 -0.1298  0.1058
 1450EOH      H 5805   4.359   5.000   3.942  0.7866  0.4374 -0.7545
 1451EOH      O 5806   7.081   6.102   3.037 -0.4649 -0.6449  0.3543
 1451EOH      C 5807   6.998   6.031   3.130 -0.3870 -0.2580  0.7212
 1451EOH      C 5808   6.871   6.025   3.043 -0.0093  0.3086  0.1248
 1451EOH      H 5809   7.152   6.142   3.085  0.2329 -0.9714 -0.3934
 1452EOH      O 5810   5.048   3.055   3.820  0.1026  0.8522  0.1998
 1452EOH      C 5811   5.186   3.071   3.784  0.1744 -0.1073  0.0371
 1452EOH      C 5812   5.203   3.152   3.654  0.0823 -0.4881 -0.2159
 1452EOH      H 5813   5.017   2.993   3.755 -0.4308  0.1103  1.1516
 1453EOH      O 5814   2.896   3.279   6.259 -0.1147  0.4690  0.0591
 1453EOH      C 5815   2.909   3.408   6.198  0.2397  0.3021 -0.2233
 1453EOH      C 5816   2.989   3.499   6.293  0.1303 -0.1767  0.3314
 1453EOH      H 5817   2.878   3.227   6.182  0.5251  0.9655 -0.4362
 1454EOH      O 5818   4.131   1.875   6.206 -0.0542 -0.2994 -0.0710
 1454EOH      C 5819   3.997   1.914   6.235 -0.0436  0.1211 -0.5852
 1454EOH      C 5820   3.922   1.901   6.101 -0.3226 -0.3526 -0.3878
 1454EOH      H 5821   4.172   1.876   6.291 -2.3813 -1.2003  1.0961
 1455EOH      O 5822   3.783   5.616   0.459 -0.1432  0.5561 -0.3623
 1455EOH      C 5823   3.900   5.692   0.489  0.4382 -0.3485 -0.2904
 1455EOH      C 5824   3.903   5.815   0.395 -0.1015 -0.3924 -0.3685
 1455EOH      H 5825   3.813   5.541   0.409 -0.7311 -1.1793  1.8029
 1456EOH      O 5826   0.391   0.092   4.259  0.3933  0.0590  0.3187
 1456EOH      C 5827   0.495   0.163   4.328  0.6200 -0.3750  0.4203
 1456EOH      C 5828   0.462   0.176   4.478 -0.3660  0.4725  0.1319
 1456EOH      H 5829   0.421   0.087   4.169 -1.0936  0.2031 -0.2018
 1457EOH      O 5830   0.754   3.794   4.555 -0.7631 -0.3890 -0.4023
 1457EOH      C 5831   0.669   3.716   4.470 -0.8819 -0.3512 -0.3186
 1457EOH      C 5832   0.621   3.594   4.550 -0.5390 -0.3989 -0.1833
 1457EOH      H 5833   0.757   3.883   4.524  3.0623  0.1409  1.2496
 1458EOH      O 5834   4.183   7.325   3.703 -0.8460  0.4442 -0.1798
 1458EOH      C 5835   4.181   7.310   3.561 -0.2789  0.0862 -0.1514
 1458EOH      C 5836   4.278   7.195   3.525  0.5046  0.5207  0.5412
 1458EOH      H 5837   4.250   7.389   3.722  0.1732 -0.7982  0.4974
 1459EOH      O 5838   5.325   6.568   3.879 -0.0786 -0.4062 -0.1575
 1459EOH      C 5839   5.419   6.484   3.812  0.3003  0.0241 -0.1644
 1459EOH      C 5840   5.493   6.566   3.704  0.0316  0.3222 -0.1227
 1459EOH      H 5841   5.287   6.630   3.817 -0.0975 -0.3159 -0.0568
 1460EOH      O 5842   1.377   7.804   2.492  0.1963 -0.2502 -0.2024
 1460EOH      C 5843   1.507   7.830   2.546 -0.0794 -0.0604  0.3831
 1460EOH      C 5844   1.559   7.696   2.600 -0.4257 -0.1434  0.5151
 1460EOH      H 5845   1.386   7.771   2.404 -0.7212  0.6968 -0.6637
 1461EOH      O 5846   3.329   2.205   3.897 -0.0534 -0.2862  0.2678
 1461EOH      C 5847   3.208   2.252   3.957 -0.1767 -0.3073  0.0349
 1461EOH      C 5848   3.238   2.390   4.019  0.3592 -0.4248  0.0371
 1461EOH      H 5849   3.385   2.165   3.962 -0.8402  1.1765  1.8763
 1462EOH      O 5850   3.731   3.602   4.473  0.0882 -0.4013  0.7098
 1462EOH      C 5851   3.814   3.710   4.518 -0.0087 -0.0920  0.1516
 1462EOH      C 5852   3.815   3.809   4.401  1.2083  0.0950  0.3152
 1462EOH      H 5853   3.641   3.629   4.483  0.3003  0.5660  0.0932
 1463EOH      O 5854   3.072   1.443   6.839 -0.8334 -0.1594  0.0314
 1463EOH      C 5855   3.029   1.447   6.703 -0.6086 -0.1787 -0.0396
 1463EOH      C 5856   3.026   1.596   6.665  0.1074  0.0136  0.6410
 1463EOH      H 5857   3.094   1.351   6.845 -0.0896 -0.0629 -1.2034
 1464EOH      O 5858   1.476   3.007   2.714  0.1367 -0.2860 -0.1209
 1464EOH      C 5859   1.605   2.947   2.719  0.1850 -0.2013 -0.3466
 1464EOH      C 5860   1.672   2.945   2.580  0.1954  0.1081 -0.3471
 1464EOH      H 5861   1.437   3.030   2.797 -2.3554 -0.8833 -1.0830
 1465EOH      O 5862   1.483   1.233   2.529  0.2007  0.0609  0.3543
 1465EOH      C 5863   1.526   1.234   2.393  0.1357 -0.1622  0.3321
 1465EOH      C 5864   1.543   1.384   2.362 -0.2677 -0.1443  0.1898
 1465EOH      H 5865   1.563   1.251   2.577  1.9189 -1.7141 -1.7608
 1466EOH      O 5866   3.036   6.421   5.354 -0.3106 -0.2608  0.2472
 1466EOH      C 5867   3.013   6.354   5.478  0.0436 -0.1548  0.3715
 1466EOH      C 5868   2.908   6.436   5.556 -0.0809  0.2354 -0.1976
 1466EOH      H 5869   3.113   6.387   5.311  0.1620  0.1217  0.7844
 1467EOH      O 5870   3.642   5.346   5.283  0.1456  0.3374 -0.0755
 1467EOH      C 5871   3.759   5.263   5.281 -0.0565  0.0463  0.1389
 1467EOH      C 5872   3.855   5.305   5.168  0.4491 -0.3855  0.4085
 1467EOH      H 5873   3.600   5.357   5.367 -1.2420  0.1051 -0.7240
 1468EOH      O 5874   2.490   3.656   1.608 -0.0897  0.1510 -0.1770
 1468EOH      C 5875   2.413   3.625   1.491 -0.1420 -0.5926  0.0553
 1468EOH      C 5876   2.503   3.538   1.401  0.1896 -0.0875 -0.1036
 1468EOH      H 5877   2.527   3.572   1.630  2.9546  1.3328 -0.5459
 1469EOH      O 5878   3.630   6.260   2.631  0.4983 -0.5129  0.2384
 1469EOH      C 5879   3.674   6.368   2.714 -0.2188 -0.1902  0.2008
 1469EOH      C 5880   3.820   6.410   2.687 -0.0753 -0.7092  0.1598
 1469EOH      H 5881   3.629   6.282   2.539 -2.7211  1.3743  0.6577
 1470EOH      O 5882   3.952   1.632   3.515 -0.4344 -0.1511  0.3574
 1470EOH      C 5883   4.080   1.569   3.513 -0.1635  0.4168 -0.0284
 1470EOH      C 5884   4.145   1.597   3.376  0.3029  0.5257  0.2126
 1470EOH      H 5885   3.963   1.718   3.478  0.8762  0.0274  1.1719
 1471EOH      O 5886   0.464   7.685   1.763  0.0843  0.0489 -0.1689
 1471EOH      C 5887   0.586   7.666   1.836 -0.0687  0.1644  0.1156
 1471EOH      C 5888   0.677   7.567   1.760 -0.4845 -0.2007  0.0880
 1471EOH      H 5889   0.448   7.777   1.746  1.0656  0.3770  0.5930
 1472EOH      O 5890   3.851   3.266   2.372 -0.0664 -0.0287  0.1425
 1472EOH      C 5891   3.980   3.238   2.427  0.1092  0.3418 -0.0850
 1472EOH      C 5892   4.043   3.117   2.356 -0.3516 -0.0761  0.2192
 1472EOH      H 5893   3.801   3.192   2.402 -0.3483  1.0680  2.5090
 1473EOH      O 5894   3.263   3.229   2.361  0.0609  0.0924  0.1669
 1473EOH      C 5895   3.379   3.192   2.436  0.1914 -0.7862 -0.4505
 1473EOH      C 5896   3.348   3.203   2.587  0.3958  0.1781 -0.4728
 1473EOH      H 5897   3.293   3.301   2.308  1.8426 -0.9180 -0.2430
 1474EOH      O 5898   4.140   3.373   0.089 -0.1306  0.0390  0.5254
 1474EOH      C 5899   4.165   3.247   0.027 -0.5708  0.1859  0.0500
 1474EOH      C 5900   4.310   3.249  -0.023 -0.4095  0.3141  0.5274
 1474EOH      H 5901   4.119   3.370   0.181 -2.1846 -3.0410  0.0037
 1475EOH      O 5902   1.870   1.119   4.650 -1.1254  0.1056 -0.1889
 1475EOH      C 5903   1.787   1.234   4.664  0.1729  0.9988  0.2549
 1475EOH      C 5904   1.750   1.237   4.814  0.6981 -0.4782  0.4223
 1475EOH      H 5905   1.827   1.048   4.695  2.8498 -2.2206  0.1752
 1476EOH      O 5906   4.577   2.628   4.962 -0.0879  0.4834  0.0611
 1476EOH      C 5907   4.439   2.661   4.946 -0.1538  0.1485 -0.0667
 1476EOH      C 5908   4.433   2.806   4.998 -0.2115  0.2807 -0.4442
 1476EOH      H 5909   4.615   2.609   4.877 -1.8402  1.4149 -0.9525
 1477EOH      O 5910   2.757   4.273   4.965  0.1725  0.4234  0.1927
 1477EOH      C 5911   2.866   4.186   4.994 -0.0812  0.0041 -0.0992
 1477EOH      C 5912   2.839   4.041   4.949  0.5710 -0.1367 -0.0393
 1477EOH      H 5913   2.706   4.294   5.042  2.2276  0.7478  1.4960
 1478EOH      O 5914   1.202   2.683   7.779  0.7808 -0.0115  0.1025
 1478EOH      C 5915   1.173   2.563   7.707 -0.1623  0.2390  0.0562
 1478EOH      C 5916   1.180   2.446   7.807  0.1424 -0.2069 -0.4829
 1478EOH      H 5917   1.293   2.692   7.803  1.4048 -0.2398 -2.0554
 1479EOH      O 5918   2.639   6.119   6.404 -0.4516 -0.1842 -0.1154
 1479EOH      C 5919   2.532   6.215   6.406  0.1070  0.4460 -0.3076
 1479EOH      C 5920   2.416   6.129   6.460  0.1040  0.7044  0.0976
 1479EOH      H 5921   2.622   6.042   6.353  0.7898 -0.3994 -0.2023
 1480EOH      O 5922   3.573   2.189   6.546  0.2967 -0.0604  0.2832
 1480EOH      C 5923   3.512   2.113   6.442 -0.0129 -0.0787  0.4758
 1480EOH      C 5924   3.613   2.013   6.383 -0.3853  0.0712 -0.4152
 1480EOH      H 5925   3.507   2.208   6.612 -0.3875 -0.3653 -0.3015
 1481EOH      O 5926   1.173   4.142   6.873  0.1629 -0.2936  0.0067
 1481EOH      C 5927   1.100   4.168   6.753  1.0450 -0.4480 -0.5727
 1481EOH      C 5928   0.995   4.055   6.750 -0.2223  0.6991 -0.3494
 1481EOH      H 5929   1.235   4.075   6.848  1.6969  0.5566  1.4512
 1482EOH      O 5930   2.280   4.357   7.683  0.3632  0.0494  0.0145
 1482EOH      C 5931   2.183   4.378   7.580 -0.1772 -0.0777  0.5011
 1482EOH      C 5932   2.091   4.256   7.559 -0.4318  0.2099 -0.0505
 1482EOH      H 5933   2.340   4.431   7.683  0.5539 -0.1075  1.7547
 1483EOH      O 5934   0.058   7.584   3.354  0.7336  0.0080 -0.5328
 1483EOH      C 5935   0.152   7.525   3.263  0.3623 -0.3308 -0.6964
 1483EOH      C 5936   0.120   7.377   3.237  0.0902 -0.5428  0.7768
 1483EOH      H 5937   0.078   7.676   3.349  1.1121 -0.1421 -2.1961
 1484EOH      O 5938   4.073   1.553   4.335  0.2944 -0.0245 -0.2224
 1484EOH      C 5939   4.134   1.647   4.424  0.0931 -0.2481  0.1518
 1484EOH      C 5940   4.034   1.683   4.535  0.2711  0.1829  0.1765
 1484EOH      H 5941   3.986   1.583   4.313  0.4458  0.8183  0.2755
 1485EOH      O 5942   1.057   7.339   3.644  0.5978  0.2456  0.0388
 1485EOH      C 5943   0.974   7.447   3.601  0.6398  0.3261  0.1622
 1485EOH      C 5944   0.994   7.571   3.691  0.4834 -0.1589  0.8688
 1485EOH      H 5945   1.037   7.302   3.729  0.4622 -0.7100 -0.3976
 1486EOH      O 5946   2.248   6.515   5.002 -0.0936  0.2451 -0.4646
 1486EOH      C 5947   2.285   6.377   5.005 -0.3133  0.1937  0.1311
 1486EOH      C 5948   2.426   6.350   4.949 -0.3856  0.0016  0.0426
 1486EOH      H 5949   2.174   6.533   5.059 -0.0559  1.1234 -0.6859
 1487EOH      O 5950   1.290   1.438   4.844  0.4122  0.2976 -0.5245
 1487EOH      C 5951   1.310   1.300   4.877 -0.7993  0.3694  0.6019
 1487EOH      C 5952   1.367   1.296   5.020  0.0586  0.6297  0.2753
 1487EOH      H 5953   1.374   1.481   4.840 -0.6424  2.6961  1.6203
 1488EOH      O 5954   5.400   4.203   5.600  0.6374  0.3998  0.1307
 1488EOH      C 5955   5.423   4.084   5.524 -0.4864  0.1498  0.1618
 1488EOH      C 5956   5.453   3.982   5.635  0.2891  0.1169 -0.0699
 1488EOH      H 5957   5.320   4.185   5.648  0.2469  0.8688 -0.3285
 1489EOH      O 5958   2.203   3.734   4.257  0.3881  0.0960  0.3739
 1489EOH      C 5959   2.116   3.834   4.310  0.1901  0.1182  0.0038
 1489EOH      C 5960   2.186   3.969   4.329  0.1641  0.0952  0.2619
 1489EOH      H 5961   2.269   3.778   4.205  1.2048 -2.4611 -0.8480
 1490EOH      O 5962   3.486   5.772   2.325  0.3097  0.1645  0.2754
 1490EOH      C 5963   3.590   5.689   2.378  0.5099  0.0801 -0.2510
 1490EOH      C 5964   3.719   5.772   2.364  0.3718  0.2611 -0.4533
 1490EOH      H 5965   3.406   5.740   2.364 -0.3430 -0.4649 -1.5135
 1491EOH      O 5966   3.713   0.407   5.274 -0.5591 -0.0294 -0.1311
 1491EOH      C 5967   3.762   0.335   5.160 -0.4641  0.0027 -0.1099
 1491EOH      C 5968   3.789   0.438   5.049  0.1198 -0.4768 -0.4126
 1491EOH      H 5969   3.643   0.356   5.312  0.2383  0.7025  2.4371
 1492EOH      O 5970   2.575   5.872   7.636  0.0825 -0.2975  0.1644
 1492EOH      C 5971   2.586   5.781   7.527 -0.0657  0.1999 -0.2675
 1492EOH      C 5972   2.715   5.697   7.534 -0.0811  0.2121  0.1864
 1492EOH      H 5973   2.499   5.925   7.618 -2.9709 -3.3566  3.1736
 1493EOH      O 5974   2.802   4.891   1.757 -0.1413 -0.3617 -0.0127
 1493EOH      C 5975   2.719   4.907   1.872 -0.2429  0.3193 -0.1780
 1493EOH      C 5976   2.807   4.918   1.998 -0.2480 -0.0971 -0.1361
 1493EOH      H 5977   2.748   4.934   1.692 -1.2318  0.8925  1.6839
 1494EOH      O 5978   3.168   3.731   5.575 -0.0010  0.4554 -0.2750
 1494EOH      C 5979   3.180   3.737   5.718 -0.5422  0.3545 -0.2236
 1494EOH      C 5980   3.327   3.732   5.764 -0.6357  0.3711  0.0731
 1494EOH      H 5981   3.207   3.651   5.543  1.2482  1.4155 -1.2087
 1495EOH      O 5982   0.194   5.626   2.641 -0.0014 -0.1715  0.2240
 1495EOH      C 5983   0.151   5.588   2.510  0.5327 -0.0640  0.0172
 1495EOH      C 5984   0.241   5.647   2.399  0.0356  0.2977 -0.1947
 1495EOH      H 5985   0.285   5.601   2.648 -0.3588 -0.8982  2.4941
 1496EOH      O 5986   1.382   4.362   7.718  0.0035  0.6572 -0.5048
 1496EOH      C 5987   1.278   4.429   7.646  0.0334  0.4993 -0.6961
 1496EOH      C 5988   1.153   4.454   7.733  0.2607 -0.3459 -0.1204
 1496EOH      H 5989   1.408   4.296   7.656 -0.8100  1.5253 -1.8002
 1497EOH      O 5990   4.565   3.062   3.574 -0.2320 -0.4726 -0.3669
 1497EOH      C 5991   4.591   3.199   3.606  0.4264 -0.6406 -0.1889
 1497EOH      C 5992   4.741   3.213   3.640  0.3066 -0.1640  0.1405
 1497EOH      H 5993   4.484   3.058   3.524 -0.2131 -1.3372 -0.3326
 1498EOH      O 5994   3.228   3.079   0.309 -0.4406  0.3869  0.2174
 1498EOH      C 5995   3.223   3.172   0.201  0.7542  0.2464  0.0374
 1498EOH      C 5996   3.148   3.300   0.244 -0.3420 -0.2431 -0.4005
 1498EOH      H 5997   3.145   3.034   0.319 -0.6816  0.6583 -0.5617
 1499EOH      O 5998   1.304   0.874   2.454 -0.2161 -0.2245 -0.1948
 1499EOH      C 5999   1.203   0.970   2.424  0.3320  0.4946  0.2570
 1499EOH      C 6000   1.108   0.964   2.545 -0.3962  0.6736 -0.3007
 1499EOH      H 6001   1.269   0.787   2.441  0.9138 -0.7670  0.3307
 1500EOH      O 6002   2.558   2.393   7.526 -0.1080 -0.2923  0.4095
 1500EOH      C 6003   2.625   2.478   7.433  0.0968 -0.1164  0.7171
 1500EOH      C 6004   2.572   2.622   7.446 -0.0375 -0.1201  0.1984
 1500EOH      H 6005   2.624   2.335   7.561  0.1564  0.2901  0.8870
 1501EOH      O 6006   2.341   6.664   6.057  0.3457 -0.4776  0.3915
 1501EOH      C 6007   2.279   6.544   6.105 -0.0674 -0.2648  0.3935
 1501EOH      C 6008   2.331   6.428   6.019  1.0194  0.4483  0.0745
 1501EOH      H 6009   2.317   6.737   6.112 -1.1222 -0.8653  0.2830
 1502EOH      O 6010   1.314   1.250   0.881  0.4097  0.2179 -0.1184
 1502EOH      C 6011   1.237   1.370   0.871 -0.6326 -0.3784  0.6804
 1502EOH      C 6012   1.129   1.361   0.762 -0.5496  0.3435  0.5392
 1502EOH      H 6013   1.377   1.255   0.951 -1.4390 -2.1680  1.7983
 1503EOH      O 6014   1.960   1.272   6.583 -0.0502  0.1570  0.0865
 1503EOH      C 6015   1.858   1.364   6.621 -0.7187 -0.4765 -0.1423
 1503EOH      C 6016   1.738   1.337   6.530 -0.5036 -0.5352 -0.4091
 1503EOH      H 6017   1.924   1.186   6.601 -0.5623  0.6566  1.4206
 1504EOH      O 6018   3.439   5.167   0.587 -0.9436  0.3140 -0.0832
 1504EOH      C 6019   3.508   5.061   0.654 -1.0580  0.8479  0.8903
 1504EOH      C 6020   3.615   5.134   0.738 -0.1430  0.5819 -0.0406
 1504EOH      H 6021   3.353   5.135   0.568 -1.5379  1.5217  0.4814
 1505EOH      O 6022   4.497   4.069   3.104 -0.0373 -0.3656  0.0751
 1505EOH      C 6023   4.431   4.193   3.132 -0.3670 -0.4616 -0.2836
 1505EOH      C 6024   4.464   4.288   3.015 -0.4190 -0.4105 -0.2574
 1505EOH      H 6025   4.448   3.999   3.065  0.9211 -0.2628 -1.3677
 1506EOH      O 6026   1.582   5.460   1.622  0.0439 -0.0538  0.3227
 1506EOH      C 6027   1.663   5.542   1.707  0.4878  0.2100 -0.3439
 1506EOH      C 6028   1.809   5.567   1.665  0.6201  0.0402  0.0072
 1506EOH      H 6029   1.528   5.412   1.683 -0.6151 -0.3779 -0.5059
 1507EOH      O 6030   6.230   1.861   3.980 -0.5638  0.3015 -0.3833
 1507EOH      C 6031   6.213   1.752   4.071 -0.1385  0.1257 -0.5155
 1507EOH      C 6032   6.272   1.640   3.984  0.4551 -0.1138  0.1868
 1507EOH      H 6033   6.187   1.939   4.013  1.8588  1.4874  0.1005
 1508EOH      O 6034   0.817   6.901   6.002 -0.6269 -0.2537 -0.3774
 1508EOH      C 6035   0.742   6.910   6.124 -0.0841 -0.0286 -0.0541
 1508EOH      C 6036   0.699   6.773   6.178  0.4629 -0.0588  0.3008
 1508EOH      H 6037   0.786   6.975   5.953 -0.5623  0.7729  1.0696
 1509EOH      O 6038   2.355   6.165   7.343  0.0185  0.1923  0.7066
 1509EOH      C 6039   2.309   6.296   7.312  0.0762  0.0723  0.1034
 1509EOH      C 6040   2.344   6.405   7.416 -0.1856  0.0724  0.1906
 1509EOH      H 6041   2.388   6.127   7.263 -1.5569 -0.5372  0.3816
 1510EOH      O 6042   0.483   0.727   4.431  0.2569  0.0646  0.2641
 1510EOH      C 6043   0.604   0.652   4.438  0.1255 -0.1715  0.0219
 1510EOH      C 6044   0.580   0.531   4.530 -0.4173 -0.3336 -0.3359
 1510EOH      H 6045   0.441   0.707   4.349 -0.5097  3.7886 -0.3776
 1511EOH      O 6046   0.583   0.571   2.268 -0.1039 -0.1239  0.0837
 1511EOH      C 6047   0.694   0.517   2.197 -0.1917 -0.4978  0.2308
 1511EOH      C 6048   0.644   0.496   2.052  0.4111 -0.2704 -0.0118
 1511EOH      H 6049   0.601   0.566   2.360  0.4811 -0.6836 -0.0592
 1512EOH      O 6050   0.793   2.610   3.062 -0.1427  0.2944  0.3550
 1512EOH      C 6051   0.669   2.682   3.067 -0.0828  0.4084  0.1969
 1512EOH      C 6052   0.687   2.820   3.001 -0.0651  0.1755 -0.2846
 1512EOH      H 6053   0.771   2.520   3.043  0.8762  0.2634 -0.6754
 1513EOH      O 6054   2.774   2.317   2.667  0.2476 -0.3107  0.4403
 1513EOH      C 6055   2.761   2.175   2.676 -0.0407 -0.2998  0.1964
 1513EOH      C 6056   2.640   2.118   2.600  0.0430 -0.5360  0.2391
 1513EOH      H 6057   2.753   2.344   2.755 -0.0639 -1.2284  0.6539
 1514EOH      O 6058   1.899   2.349   5.645 -0.6654  0.8207 -0.5568
 1514EOH      C 6059   1.801   2.264   5.706  0.4889 -0.3553 -0.3272
 1514EOH      C 6060   1.667   2.340   5.705  0.5229 -0.2932 -0.1970
 1514EOH      H 6061   1.883   2.362   5.553  2.7892 -1.0306 -1.5001
 1515EOH      O 6062   2.722   1.341   7.815  0.1760  0.5236  0.1409
 1515EOH      C 6063   2.819   1.245   7.774 -0.4266 -0.0114 -0.0343
 1515EOH      C 6064   2.757   1.112   7.726 -0.0203 -0.2662  0.1467
 1515EOH      H 6065   2.677   1.359   7.734 -0.2898 -3.9836 -0.7033
 1516EOH      O 6066   1.655   4.953   5.391  0.2826  0.1895  0.2836
 1516EOH      C 6067   1.540   5.037   5.396  0.0043 -0.2018  0.4838
 1516EOH      C 6068   1.456   5.021   5.269  0.1677 -0.0394  0.3551
 1516EOH      H 6069   1.716   4.977   5.460 -0.2446  0.3627  0.6869
 1517EOH      O 6070   0.599   4.265   6.921  0.3455 -0.3918 -0.3651
 1517EOH      C 6071   0.717   4.346   6.912 -0.0547  0.2554  0.1412
 1517EOH      C 6072   0.790   4.305   7.041  0.1254  0.0254 -0.0341
 1517EOH      H 6073   0.596   4.220   6.838  1.0295 -1.3894  0.1370
 1518EOH      O 6074   2.798   2.707   1.071  0.4313  0.0395  0.2052
 1518EOH      C 6075   2.755   2.836   1.027  0.1891  0.0517  0.4773
 1518EOH      C 6076   2.765   2.845   0.874  0.4780 -0.4134  0.4694
 1518EOH      H 6077   2.890   2.695   1.051  0.0569  1.2761 -2.4696
 1519EOH      O 6078   7.553   1.657   4.749 -0.1727  0.3010 -0.1245
 1519EOH      C 6079   7.515   1.519   4.750  0.2243  0.1879 -0.2934
 1519EOH      C 6080   7.374   1.506   4.690  0.1000 -0.2700  0.0932
 1519EOH      H 6081   7.620   1.656   4.817  0.1529 -0.5518 -0.4427
 1520EOH      O 6082   2.794   7.500   4.589 -0.0293  0.0339 -0.3983
 1520EOH      C 6083   2.732   7.606   4.516 -0.3925  0.1575  0.0854
 1520EOH      C 6084   2.776   7.732   4.593  0.4675  0.1063 -0.3107
 1520EOH      H 6085   2.779   7.420   4.541  1.4955 -0.2231 -0.5002
 1521EOH      O 6086   6.437   1.876   3.803  0.6944  0.0520 -0.2380
 1521EOH      C 6087   6.407   1.993   3.727  0.3717  0.0142 -0.1705
 1521EOH      C 6088   6.438   2.117   3.812 -0.1787  0.1665 -0.1913
 1521EOH      H 6089   6.370   1.876   3.870 -0.4123  1.2519 -1.3113
 1522EOH      O 6090   0.901   6.453   2.240  0.1132 -0.2182 -0.3512
 1522EOH      C 6091   1.018   6.386   2.286 -0.2337 -0.1388  0.6598
 1522EOH      C 6092   1.046   6.249   2.221  0.0520  0.2081  0.0535
 1522EOH      H 6093   0.844   6.396   2.191 -0.1517  1.3387 -1.9082
 1523EOH      O 6094   2.272   1.582   7.749  0.1700  0.4396  0.4239
 1523EOH      C 6095   2.253   1.724   7.749 -0.5146  0.3493 -0.1040
 1523EOH      C 6096   2.255   1.768   7.601  0.3575  0.1224 -0.1636
 1523EOH      H 6097   2.344   1.577   7.809  1.0368  2.5859 -0.3814
 1524EOH      O 6098   0.487   7.049   2.165 -0.6698 -0.1211 -0.0988
 1524EOH      C 6099   0.484   6.966   2.281 -0.1657 -0.1038 -0.0734
 1524EOH      C 6100   0.384   6.857   2.238  0.1956 -0.2082 -0.6607
 1524EOH      H 6101   0.533   7.126   2.193 -0.4997 -0.7325  1.3201
 1525EOH      O 6102   2.920   6.412   1.199  0.2312  0.6728 -0.0501
 1525EOH      C 6103   2.924   6.353   1.329 -0.2325 -0.1205 -0.3895
 1525EOH      C 6104   2.804   6.258   1.347 -0.2514 -0.0888 -0.3514
 1525EOH      H 6105   3.005   6.405   1.158  0.4727  1.3622  0.3353
 1526EOH      O 6106   6.812   7.370   3.297  0.0478 -0.4007 -0.2168
 1526EOH      C 6107   6.766   7.402   3.429 -0.0056 -0.7964 -0.1398
 1526EOH      C 6108   6.613   7.386   3.417 -0.0609 -0.4152  0.0556
 1526EOH      H 6109   6.775   7.291   3.263 -2.3608  0.8357 -0.5592
 1527EOH      O 6110   3.957   1.603   7.601 -0.1458 -0.1897  0.2370
 1527EOH      C 6111   3.861   1.507   7.645 -0.2498 -0.3278 -0.2796
 1527EOH      C 6112   3.762   1.590   7.729  0.2049 -0.1620  0.0950
 1527EOH      H 6113   4.006   1.641   7.672 -1.2080  2.1223 -0.2285
 1528EOH      O 6114   0.220   2.029   0.085 -0.2076  0.2193 -0.2991
 1528EOH      C 6115   0.226   2.152   0.013  0.1390  0.1940 -0.3145
 1528EOH      C 6116   0.134   2.258   0.076 -0.1695 -0.0398 -0.3763
 1528EOH      H 6117   0.133   1.997   0.072 -0.7214  1.2862  0.3875
 1529EOH      O 6118   5.674   1.171   3.619 -0.1788 -0.1053 -0.6353
 1529EOH      C 6119   5.728   1.076   3.527  0.3896 -0.2834 -0.1261
 1529EOH      C 6120   5.630   1.018   3.423  0.1272 -0.2043  0.0746
 1529EOH      H 6121   5.736   1.203   3.683 -1.5577 -0.2149  0.7819
 1530EOH      O 6122   5.168   6.722   3.758 -0.0012 -0.3674  0.3690
 1530EOH      C 6123   5.063   6.765   3.845  0.1502 -0.1853  0.4601
 1530EOH      C 6124   5.115   6.863   3.952 -0.9332  1.0407 -0.1230
 1530EOH      H 6125   5.126   6.706   3.676 -1.7092 -0.1973  1.1841
 1531EOH      O 6126   2.885   1.134   3.730 -0.5186 -0.4161 -0.2339
 1531EOH      C 6127   2.891   1.275   3.706  0.3973 -0.4260 -0.0847
 1531EOH      C 6128   2.842   1.274   3.560 -0.3958  0.4757  0.1723
 1531EOH      H 6129   2.941   1.099   3.662  0.0221  0.9202 -0.4868
 1532EOH      O 6130   1.604   2.229   2.728  0.2986  0.4620  0.1469
 1532EOH      C 6131   1.464   2.228   2.759  0.2898 -0.2191  0.0880
 1532EOH      C 6132   1.388   2.190   2.631  0.7573 -0.3635 -0.1496
 1532EOH      H 6133   1.652   2.258   2.804  0.4804 -1.7779  0.9264
 1533EOH      O 6134   7.829   1.383   1.696  0.5873 -0.0739 -0.1303
 1533EOH      C 6135   7.964   1.373   1.648  0.4447  0.0379 -0.5569
 1533EOH      C 6136   7.983   1.456   1.520  0.4387  0.1771 -0.4678
 1533EOH      H 6137   7.809   1.475   1.691 -0.7761 -0.3653 -0.0765
 1534EOH      O 6138   1.591   0.872   7.857  0.8951  0.1440  0.2500
 1534EOH      C 6139   1.597   0.748   7.928 -0.0794 -0.1083 -0.0978
 1534EOH      C 6140   1.537   0.768   8.068 -0.3371 -0.2613 -0.1855
 1534EOH      H 6141   1.498   0.888   7.855  0.9764  0.5328 -0.5347
 1535EOH      O 6142   6.689   6.313   4.018 -0.1848 -0.1012  0.0797
 1535EOH      C 6143   6.739   6.326   4.151  0.7988 -0.3972 -0.2611
 1535EOH      C 6144   6.807   6.464   4.145 -0.4149  0.1851 -0.7421
 1535EOH      H 6145   6.738   6.239   3.987 -2.0776 -1.2867 -0.1677
 1536EOH      O 6146   2.737   3.051   6.957  0.3566 -0.1154  0.2541
 1536EOH      C 6147   2.694   2.939   6.879  0.4894  0.2337 -0.3273
 1536EOH      C 6148   2.646   2.817   6.960  0.1395  0.5113 -0.1196
 1536EOH      H 6149   2.679   3.080   7.026 -0.2608 -0.9118  0.0774
 1537EOH      O 6150   1.963   3.414   3.725  0.1246 -0.3530 -0.3051
 1537EOH      C 6151   1.869   3.310   3.695  0.0883 -0.3765 -0.1117
 1537EOH      C 6152   1.779   3.345   3.575  0.5129  0.4465 -0.1950
 1537EOH      H 6153   1.973   3.425   3.818 -2.2137 -0.5921  0.0124
 1538EOH      O 6154   6.708   1.524   3.848 -0.3474  0.2777 -0.3623
 1538EOH      C 6155   6.664   1.420   3.761  0.0179 -0.3443  0.1908
 1538EOH      C 6156   6.515   1.430   3.723  0.1992  0.2927 -0.3523
 1538EOH      H 6157   6.674   1.607   3.818 -1.9389 -0.4527 -0.6472
 1539EOH      O 6158   3.216   0.624   0.548 -0.2883 -0.0263 -0.6331
 1539EOH      C 6159   3.240   0.486   0.578 -0.0294  0.1432 -0.0392
 1539EOH      C 6160   3.379   0.456   0.637 -0.1196 -0.0128  0.0962
 1539EOH      H 6161   3.150   0.660   0.606  0.4399 -0.5238  0.5273
 1540EOH      O 6162   4.891   3.294   6.383 -0.0752  0.2244 -0.4594
 1540EOH      C 6163   4.928   3.204   6.277 -0.0603 -0.1757 -0.1133
 1540EOH      C 6164   4.996   3.075   6.326  0.1808  0.0509  0.1483
 1540EOH      H 6165   4.965   3.314   6.438 -0.5208  1.4292 -0.2821
 1541EOH      O 6166   1.355   5.689   2.394 -0.1353 -0.1091 -0.5925
 1541EOH      C 6167   1.453   5.730   2.299  0.4744 -0.0233  0.0674
 1541EOH      C 6168   1.426   5.645   2.173  0.0871  0.2509 -0.0328
 1541EOH      H 6169   1.297   5.763   2.407  0.6923  0.4306  0.0750
 1542EOH      O 6170   0.992   3.336   5.846 -0.4366 -0.1703  0.1542
 1542EOH      C 6171   0.934   3.226   5.776 -0.1309 -0.1162 -0.1898
 1542EOH      C 6172   0.782   3.219   5.802 -0.1169 -0.4724 -0.2084
 1542EOH      H 6173   1.006   3.397   5.775 -4.2736  1.8755  1.0434
 1543EOH      O 6174   1.109   2.081   3.772 -0.0219  0.0228  0.6473
 1543EOH      C 6175   1.193   1.972   3.736 -0.3964 -0.1016  0.1431
 1543EOH      C 6176   1.148   1.910   3.602  0.9424 -0.6034 -0.0844
 1543EOH      H 6177   1.149   2.154   3.727  0.1972 -1.2163 -1.2018
 1544EOH      O 6178   0.614   1.713   6.196  0.4397  0.0767  0.0335
 1544EOH      C 6179   0.659   1.600   6.120  0.5236  0.2457 -0.1712
 1544EOH      C 6180   0.733   1.660   6.000 -0.2809  0.6759 -0.4577
 1544EOH      H 6181   0.588   1.682   6.281 -2.0472 -0.2290 -0.7834
 1545EOH      O 6182   1.204   7.886   2.671 -0.1730 -0.3879  0.2224
 1545EOH      C 6183   1.108   7.954   2.590  0.2394  0.3165  0.3198
 1545EOH      C 6184   0.986   7.994   2.675 -0.4213 -0.1440 -0.3912
 1545EOH      H 6185   1.265   7.842   2.613  0.2288  0.9564 -0.3875
 1546EOH      O 6186   7.721   1.117   4.929 -0.6576 -0.5257  0.1995
 1546EOH      C 6187   7.804   1.196   5.015 -0.0431 -0.4035 -0.4957
 1546EOH      C 6188   7.888   1.121   5.120  0.4693  0.4248 -0.3138
 1546EOH      H 6189   7.771   1.101   4.850  0.6619  0.5763  0.8018
 1547EOH      O 6190   2.851   6.842   2.690  0.0581  0.3511  0.2426
 1547EOH      C 6191   2.811   6.967   2.634 -0.3959 -0.0342 -0.2962
 1547EOH      C 6192   2.924   7.004   2.536 -0.5334  0.5974 -0.2190
 1547EOH      H 6193   2.789   6.773   2.670 -0.6877  0.3623  2.3738
 1548EOH      O 6194   0.467   0.134   6.366 -0.3145 -0.5857 -0.2265
 1548EOH      C 6195   0.583   0.088   6.436  0.3122  0.7772 -0.3629
 1548EOH      C 6196   0.569   0.140   6.581 -0.4522  0.3867 -0.2972
 1548EOH      H 6197   0.479   0.115   6.274 -0.9291  0.9831 -0.6390
 1549EOH      O 6198   6.330   0.181   4.031 -0.4933 -0.3294 -0.0424
 1549EOH      C 6199   6.352   0.137   4.166  0.1818 -0.1943 -0.1068
 1549EOH      C 6200   6.332  -0.013   4.192 -0.1623 -0.0580  0.4148
 1549EOH      H 6201   6.330   0.275   4.024  1.5996 -0.4860 -3.4127
 1550EOH      O 6202   3.743   6.121   3.990 -0.2124  0.6231 -0.7045
 1550EOH      C 6203   3.863   6.066   3.938 -0.5714 -0.3884 -0.4721
 1550EOH      C 6204   3.868   5.915   3.970 -0.3701 -0.2383  0.1935
 1550EOH      H 6205   3.673   6.071   3.951  0.8610  0.3266 -2.2689
 1551EOH      O 6206   4.722   0.407   4.661 -0.1190  0.0091 -0.0010
 1551EOH      C 6207   4.679   0.341   4.780  0.2162 -0.3611 -0.0870
 1551EOH      C 6208   4.776   0.396   4.886 -0.0788 -0.2328  0.1158
 1551EOH      H 6209   4.688   0.358   4.587  0.1346  0.5085 -0.4555
 1552EOH      O 6210   2.246   0.320   5.304 -0.0048  0.4134  0.2014
 1552EOH      C 6211   2.183   0.192   5.318  0.6019  0.0307 -0.5196
 1552EOH      C 6212   2.259   0.112   5.425  0.0486 -0.1138 -0.2321
 1552EOH      H 6213   2.239   0.352   5.215 -1.5774  1.3884  0.6595
 1553EOH      O 6214   3.689   3.070   3.245 -0.4011  0.4482  0.3766
 1553EOH      C 6215   3.826   3.039   3.215 -0.6422 -0.4119  0.1539
 1553EOH      C 6216   3.906   3.094   3.334 -0.4064  0.3013 -0.3284
 1553EOH      H 6217   3.649   2.989   3.273 -3.1061  1.1357 -1.3641
 1554EOH      O 6218   1.491   1.212   2.869  0.0464  0.0239 -0.1532
 1554EOH      C 6219   1.459   1.154   2.995  0.1915 -0.1224 -0.1833
 1554EOH      C 6220   1.581   1.069   3.035 -0.0008 -0.2780  0.0759
 1554EOH      H 6221   1.412   1.235   2.822  1.9709 -0.0020 -3.6143
 1555EOH      O 6222   0.757   1.521   1.580 -0.5304 -0.1554  0.5108
 1555EOH      C 6223   0.893   1.512   1.623 -0.5396 -0.0726  0.5574
 1555EOH      C 6224   0.900   1.463   1.769 -0.2707 -0.4445  0.4202
 1555EOH      H 6225   0.710   1.579   1.639  0.2997 -1.4005  2.4265
 1556EOH      O 6226   2.945   4.746   1.622 -0.2450  0.0120  0.1671
 1556EOH      C 6227   3.051   4.687   1.698 -0.4298 -0.1915  0.2681
 1556EOH      C 6228   3.120   4.593   1.597  0.2685  0.0964  0.4714
 1556EOH      H 6229   2.906   4.806   1.683  2.9450  2.6622 -0.2860
 1557EOH      O 6230   0.792   1.218   0.437 -0.5199 -0.2510 -0.1230
 1557EOH      C 6231   0.843   1.090   0.474  0.2127  0.0133 -0.2199
 1557EOH      C 6232   0.907   1.009   0.359  0.1103 -0.7193  0.2371
 1557EOH      H 6233   0.752   1.211   0.352 -1.0228 -0.8863  0.1657
 1558EOH      O 6234   2.997   3.204   5.552 -0.2719  0.3289 -0.0721
 1558EOH      C 6235   2.887   3.226   5.640  0.1527  0.0008  0.5458
 1558EOH      C 6236   2.856   3.377   5.639 -0.0370 -0.0394 -0.2706
 1558EOH      H 6237   2.969   3.128   5.502 -1.4816  0.6883  0.0306
 1559EOH      O 6238   4.884   7.154   4.197 -0.2123  0.3926  0.0747
 1559EOH      C 6239   4.870   7.229   4.319  0.1687  0.3245  0.1601
 1559EOH      C 6240   4.901   7.376   4.286 -0.0070  0.1198 -0.9342
 1559EOH      H 6241   4.916   7.068   4.221  1.3848  0.8518 -0.3406
 1560EOH      O 6242   3.845   3.616   3.081 -0.5829  0.0316 -0.3950
 1560EOH      C 6243   3.750   3.662   3.177 -0.2403 -0.6891  0.2980
 1560EOH      C 6244   3.612   3.691   3.116 -0.2152  0.1937  0.6452
 1560EOH      H 6245   3.805   3.549   3.027 -3.1685  0.5253  0.8676
 1561EOH      O 6246   3.934   2.647   4.252  0.3037 -0.3498 -0.2906
 1561EOH      C 6247   3.956   2.507   4.235  0.1497 -0.4264  0.1250
 1561EOH      C 6248   4.100   2.495   4.181  0.1766  0.1644  0.0654
 1561EOH      H 6249   3.912   2.668   4.342 -0.3759 -2.3007  0.0354
 1562EOH      O 6250   2.729   3.156   4.670  0.0035  0.2950 -0.0543
 1562EOH      C 6251   2.680   3.069   4.772 -0.3282  0.3211 -0.1890
 1562EOH      C 6252   2.675   3.133   4.912 -0.4078 -0.0882 -0.0024
 1562EOH      H 6253   2.746   3.109   4.590 -0.4807  2.0960 -1.2484
 1563EOH      O 6254   2.550   2.863   2.848 -0.0679  0.3680  0.1016
 1563EOH      C 6255   2.439   2.952   2.855 -0.4403 -0.0843 -0.0145
 1563EOH      C 6256   2.312   2.873   2.890  0.0404 -0.9262 -0.1595
 1563EOH      H 6257   2.625   2.910   2.814 -0.3527  1.7206  1.2730
 1564EOH      O 6258   0.675   0.368   7.764  0.4426  0.1052  0.2250
 1564EOH      C 6259   0.783   0.280   7.735  0.0483 -0.2706 -0.1201
 1564EOH      C 6260   0.907   0.323   7.816 -0.1155  0.1183 -0.0760
 1564EOH      H 6261   0.656   0.347   7.854 -1.1254 -1.0795 -0.3544
 1565EOH      O 6262   2.342   3.989   3.239 -0.6196 -0.6907 -0.0542
 1565EOH      C 6263   2.250   4.046   3.146  0.1827  0.2387 -0.2836
 1565EOH      C 6264   2.200   4.185   3.187  0.4613  0.2843 -0.0997
 1565EOH      H 6265   2.407   3.939   3.192 -0.9118 -1.0197 -0.1101
 1566EOH      O 6266   3.092   4.108   6.875  0.0087 -0.1045  0.3302
 1566EOH      C 6267   3.042   4.035   6.987 -0.5797  0.0024  0.1390
 1566EOH      C 6268   2.985   3.899   6.942 -0.9475  0.3496 -0.4624
 1566EOH      H 6269   3.144   4.181   6.905 -0.7059  0.1943  0.8563
 1567EOH      O 6270   0.800   4.777   6.808 -0.2894  0.3541 -0.1208
 1567EOH      C 6271   0.707   4.720   6.715 -0.6097  0.2611  0.2531
 1567EOH      C 6272   0.724   4.767   6.569  0.3147 -0.0699  0.2469
 1567EOH      H 6273   0.761   4.771   6.894  0.6573 -0.8911  0.2392
 1568EOH      O 6274   0.947   1.551   0.336 -0.0619  0.0163 -0.4329
 1568EOH      C 6275   1.089   1.543   0.347 -0.0989 -0.4562 -0.3065
 1568EOH      C 6276   1.127   1.393   0.348  0.3651 -0.3384  0.0383
 1568EOH      H 6277   0.914   1.525   0.421  1.7135 -3.6154 -0.7654
 1569EOH      O 6278   2.200   6.495   3.699 -0.5268  0.4490 -0.1013
 1569EOH      C 6279   2.121   6.384   3.657 -0.4298  0.1825  0.4094
 1569EOH      C 6280   2.124   6.255   3.741  0.1906 -0.2969 -0.3473
 1569EOH      H 6281   2.185   6.566   3.638 -1.0442 -0.8683 -1.5310
 1570EOH      O 6282   3.523   7.716   6.231  0.4364 -0.6566 -0.3581
 1570EOH      C 6283   3.442   7.812   6.299  0.3101 -0.5390 -0.6721
 1570EOH      C 6284   3.310   7.743   6.336 -0.1280  0.7634  0.2432
 1570EOH      H 6285   3.507   7.722   6.138 -0.8222  2.9485  0.0297
 1571EOH      O 6286   2.610   0.584   7.099  0.6532 -0.0844 -0.3719
 1571EOH      C 6287   2.577   0.597   6.961 -0.1457  0.6258 -0.1173
 1571EOH      C 6288   2.427   0.606   6.928 -0.2837  0.1263  0.3674
 1571EOH      H 6289   2.703   0.603   7.105  0.3100  2.1977 -1.5948
 1572EOH      O 6290   0.582   5.147   0.720  0.2293  0.1498  0.0341
 1572EOH      C 6291   0.508   5.025   0.711  0.1055  0.1842  0.5790
 1572EOH      C 6292   0.462   4.969   0.846 -0.2967 -0.1643  0.3000
 1572EOH      H 6293   0.523   5.220   0.729  2.4783  1.8237  1.7230
 1573EOH      O 6294   3.971   1.889   6.918  0.1020 -0.3487  0.4946
 1573EOH      C 6295   3.967   1.804   6.803 -0.3764  0.2444  0.0691
 1573EOH      C 6296   4.009   1.892   6.684 -0.3406 -0.5593 -0.5216
 1573EOH      H 6297   3.891   1.868   6.963 -0.9422 -0.0295 -1.1671
 1574EOH      O 6298   3.740   1.834   7.068 -0.0078  0.5556  0.3611
 1574EOH      C 6299   3.685   1.802   7.196 -0.2169  0.0337  0.1446
 1574EOH      C 6300   3.723   1.656   7.228  0.1973  0.0396 -0.3208
 1574EOH      H 6301   3.667   1.815   7.011  0.8619  0.3424 -0.6952
 1575EOH      O 6302   2.691   0.767   4.993 -0.5422 -0.2829 -0.1649
 1575EOH      C 6303   2.629   0.832   4.881  0.2543 -0.4818 -0.7204
 1575EOH      C 6304   2.482   0.788   4.882  0.1183 -0.0224  0.1475
 1575EOH      H 6305   2.680   0.830   5.063 -0.4397  0.6918 -1.0045
 1576EOH      O 6306   0.887   0.225   3.653 -0.2579 -0.0667 -0.0048
 1576EOH      C 6307   0.869   0.114   3.565 -0.7117 -0.1007  0.1277
 1576EOH      C 6308   0.762   0.010   3.604 -0.3526 -0.4005  0.3211
 1576EOH      H 6309   0.950   0.190   3.713  1.3917  1.3762 -0.8547
 1577EOH      O 6310   2.944   5.906   2.823 -0.3243  0.3930  0.3464
 1577EOH      C 6311   3.016   6.026   2.854 -0.4141  0.5537 -0.0564
 1577EOH      C 6312   3.168   6.001   2.846 -0.5615 -0.2229 -0.5288
 1577EOH      H 6313   2.959   5.885   2.732 -2.6384  0.9912 -0.2069
 1578EOH      O 6314   3.704   0.374   5.901 -0.4467  0.0102  0.3944
 1578EOH      C 6315   3.579   0.415   5.846 -0.1507 -0.2593 -0.4916
 1578EOH      C 6316   3.457   0.363   5.925  0.3837 -0.2576  0.3408
 1578EOH      H 6317   3.758   0.350   5.827  0.0897 -0.0379  0.8003
 1579EOH      O 6318   4.187   3.505   6.179 -0.0042 -0.3837  0.1762
 1579EOH      C 6319   4.129   3.534   6.051  0.0329  0.0773  0.2606
 1579EOH      C 6320   4.005   3.454   6.006  0.3126 -0.4050  0.3406
 1579EOH      H 6321   4.249   3.573   6.198  0.8082 -0.2314 -2.7986
 1580EOH      O 6322   7.243   6.766   3.658 -0.4067 -0.1328 -0.1762
 1580EOH      C 6323   7.160   6.867   3.601 -0.4077 -0.0779 -0.0786
 1580EOH      C 6324   7.079   6.807   3.485  0.4537 -0.3100 -0.5656
 1580EOH      H 6325   7.334   6.790   3.656 -0.3137 -0.5017 -2.0359
 1581EOH      O 6326   3.149   1.638   6.998 -0.1034  0.4510 -0.5746
 1581EOH      C 6327   3.077   1.761   6.986 -0.5730  0.2422  0.0759
 1581EOH      C 6328   3.119   1.848   7.106  0.2025 -0.2419  0.1584
 1581EOH      H 6329   3.105   1.571   6.947 -0.3732  0.7371 -0.7186
 1582EOH      O 6330   2.521   6.641   1.840  0.4073 -0.0362 -0.3395
 1582EOH      C 6331   2.663   6.641   1.824  0.5441  0.3570  0.8410
 1582EOH      C 6332   2.700   6.751   1.723  0.1562 -0.2808 -0.0001
 1582EOH      H 6333   2.490   6.556   1.814 -3.6059  1.2896 -0.1871
 1583EOH      O 6334   3.829   5.775   4.643  0.2625  0.2781  0.0704
 1583EOH      C 6335   3.940   5.833   4.713  0.1400  0.6638 -0.0543
 1583EOH      C 6336   3.896   5.829   4.861 -0.0203 -0.0587 -0.1190
 1583EOH      H 6337   3.865   5.744   4.561  0.8693 -0.4011  0.5847
 1584EOH      O 6338   1.229   7.811   1.858  0.3816  0.5658  0.0512
 1584EOH      C 6339   1.086   7.804   1.859  0.3848  0.3945 -0.6834
 1584EOH      C 6340   1.015   7.801   1.722 -0.3028 -0.0675 -0.3168
 1584EOH      H 6341   1.257   7.725   1.833 -2.2644 -0.4101  0.3116
 1585EOH      O 6342   3.577   0.649   4.016 -0.2625 -0.1167 -0.4687
 1585EOH      C 6343   3.604   0.748   3.916  0.2083  0.0504 -0.1783
 1585EOH      C 6344   3.599   0.697   3.771 -0.1717  0.7008 -0.3920
 1585EOH      H 6345   3.488   0.661   4.046  0.4048  1.6673  0.9513
 1586EOH      O 6346   2.362   3.163   0.078  0.8444 -0.0827 -0.2219
 1586EOH      C 6347   2.327   3.036   0.021  0.0840  0.0419 -0.0311
 1586EOH      C 6348   2.260   2.949   0.129 -0.3672 -0.2782 -0.5626
 1586EOH      H 6349   2.454   3.182   0.064  0.3487  1.9520 -0.7518
 1587EOH      O 6350   3.271   2.662   7.588 -0.1570  0.3292  0.1448
 1587EOH      C 6351   3.330   2.785   7.633 -0.4587  0.3445  0.4948
 1587EOH      C 6352   3.465   2.799   7.561 -0.1677 -0.3772  0.8942
 1587EOH      H 6353   3.190   2.658   7.636 -0.9370  2.5281 -0.8950
 1588EOH      O 6354   3.963   3.651   3.601 -0.1522 -0.0344  0.2532
 1588EOH      C 6355   3.863   3.557   3.561 -0.3070  0.2804 -0.1046
 1588EOH      C 6356   3.908   3.464   3.447 -0.3527  0.1670 -0.0305
 1588EOH      H 6357   3.989   3.628   3.689 -0.4750  0.2808  0.4313
 1589EOH      O 6358   2.009   0.332   7.458 -0.1953  0.4975  0.2907
 1589EOH      C 6359   2.121   0.420   7.471 -0.1961  0.4909  0.3406
 1589EOH      C 6360   2.179   0.458   7.334  0.1843 -0.4570  0.2350
 1589EOH      H 6361   1.971   0.346   7.543  1.2517  2.3467  0.6758
 1590EOH      O 6362   2.122   1.206   5.459  0.1432  0.0919  0.2103
 1590EOH      C 6363   1.984   1.227   5.489  0.1656  0.5901 -0.0280
 1590EOH      C 6364   1.905   1.259   5.360  0.5903  0.9222 -0.2040
 1590EOH      H 6365   2.162   1.211   5.545  0.9521 -0.0783 -0.1512
 1591EOH      O 6366   5.836   1.277   3.808  0.0722 -0.3485  0.4052
 1591EOH      C 6367   5.931   1.368   3.865  0.1266 -0.1934  0.0697
 1591EOH      C 6368   5.978   1.455   3.747 -0.6944  0.1937  0.0228
 1591EOH      H 6369   5.828   1.200   3.862  1.6461  0.3024  1.5957
 1592EOH      O 6370   1.573   5.378   7.172 -0.0902 -0.1777 -0.3167
 1592EOH      C 6371   1.534   5.416   7.304 -0.5106 -0.2741 -0.4119
 1592EOH      C 6372   1.608   5.350   7.422  0.1714  0.2426 -0.5496
 1592EOH      H 6373   1.539   5.296   7.138  0.4312 -1.1200  1.3655
 1593EOH      O 6374   1.389   1.085   7.356 -0.6450 -0.5947 -0.7529
 1593EOH      C 6375   1.253   1.104   7.396 -0.5834 -0.6752 -0.5028
 1593EOH      C 6376   1.203   1.247   7.422  0.2088 -0.4970  0.0772
 1593EOH      H 6377   1.392   1.108   7.265  0.2190 -1.1782 -0.8720
 1594EOH      O 6378   2.223   5.494   6.952  0.1273 -0.3354 -0.4944
 1594EOH      C 6379   2.144   5.563   6.856  0.3164  0.0780 -0.3528
 1594EOH      C 6380   2.237   5.654   6.773  0.4535 -0.3028 -0.6145
 1594EOH      H 6381   2.175   5.481   7.033  0.4594 -1.1992 -0.4297
 1595EOH      O 6382   3.009   2.718   1.288  0.2500  0.1385 -0.2696
 1595EOH      C 6383   3.089   2.707   1.406  0.2528  0.2560 -0.2608
 1595EOH      C 6384   3.237   2.732   1.375  0.3396 -0.1090 -0.1519
 1595EOH      H 6385   2.930   2.767   1.302  0.3141  0.1767 -0.0503
 1596EOH      O 6386   4.581   5.537   4.403 -0.2686  0.3978 -0.0240
 1596EOH      C 6387   4.524   5.491   4.280 -0.2910 -0.0317  0.1453
 1596EOH      C 6388   4.607   5.559   4.169  0.0243  0.0453  0.4282
 1596EOH      H 6389   4.672   5.512   4.400  0.0819  1.4552  1.3572
 1597EOH      O 6390   2.248   1.525   1.440  0.1141 -0.6142 -0.2521
 1597EOH      C 6391   2.284   1.591   1.318 -0.4458 -0.0178 -0.1009
 1597EOH      C 6392   2.184   1.703   1.283  0.3055  0.6546 -0.0899
 1597EOH      H 6393   2.312   1.456   1.439 -1.5765 -2.2052 -2.6319
 1598EOH      O 6394   7.419   1.214   2.723 -0.1577  0.3960  0.4937
 1598EOH      C 6395   7.406   1.078   2.681 -0.0638  0.6369 -0.3210
 1598EOH      C 6396   7.272   1.057   2.608 -0.6334  0.2988  0.8157
 1598EOH      H 6397   7.512   1.214   2.741 -0.0643 -1.0521  0.0918
 1599EOH      O 6398   2.958   1.180   7.131 -0.4569  0.0097  0.3852
 1599EOH      C 6399   2.995   1.308   7.183  0.1028 -0.1460  0.3738
 1599EOH      C 6400   2.912   1.343   7.308 -0.2900  0.1997  0.0184
 1599EOH      H 6401   2.899   1.189   7.058 -4.0832  1.7720  3.3644
 1600EOH      O 6402   2.339   7.310   6.959  0.5628 -0.3214  0.5891
 1600EOH      C 6403   2.329   7.353   7.095 -0.5452  0.4798  0.2596
 1600EOH      C 6404   2.218   7.287   7.179 -0.6418 -0.3580 -0.5047
 1600EOH      H 6405   2.403   7.240   6.958 -0.7052 -1.4990 -0.1674
 1601EOH      O 6406   0.816   1.414   5.070 -0.6406  0.2009 -0.4025
 1601EOH      C 6407   0.851   1.520   5.161 -0.3539 -0.4873  0.2934
 1601EOH      C 6408   0.993   1.491   5.214 -0.0614  0.1992 -0.1066
 1601EOH      H 6409   0.722   1.422   5.066 -0.9100 -2.4772  0.0072
 1602EOH      O 6410   2.603   5.410   4.920  0.2797 -0.1200  0.4863
 1602EOH      C 6411   2.557   5.291   4.983  0.6828 -0.2605  0.5193
 1602EOH      C 6412   2.472   5.340   5.102  0.5118  0.1538  0.2284
 1602EOH      H 6413   2.678   5.384   4.868  1.1021  2.2830  0.3867
 1603EOH      O 6414   2.834   1.556   2.577  0.2544  0.5010  0.0066
 1603EOH      C 6415   2.700   1.585   2.620  0.0840 -0.3450  0.0560
 1603EOH      C 6416   2.701   1.724   2.685 -0.3644 -0.5430  0.4825
 1603EOH      H 6417   2.847   1.472   2.536 -0.7894  0.5874 -0.5244
 1604EOH      O 6418   0.582   1.635   2.245  0.2393  0.4245 -0.3938
 1604EOH      C 6419   0.715   1.659   2.198  0.3141  0.0263 -0.3920
 1604EOH      C 6420   0.814   1.714   2.303 -0.2580  0.1517  0.0862
 1604EOH      H 6421   0.549   1.721   2.264 -0.3696  0.0169  0.3806
 1605EOH      O 6422   4.778   7.629   3.725  0.1661  0.0287  0.3253
 1605EOH      C 6423   4.846   7.754   3.740  0.6277 -0.2186  0.3247
 1605EOH      C 6424   4.755   7.872   3.700 -0.0152 -0.7328  0.2662
 1605EOH      H 6425   4.843   7.561   3.737 -0.7833 -1.1052 -0.7583
 1606EOH      O 6426   3.875   5.738   4.371 -0.1754 -0.4070 -0.4855
 1606EOH      C 6427   3.812   5.650   4.278 -0.1827 -0.8644 -0.0549
 1606EOH      C 6428   3.661   5.674   4.254 -0.1094 -0.2618  0.0814
 1606EOH      H 6429   3.967   5.726   4.354  0.1669  0.3210  0.7633
 1607EOH      O 6430   2.491   0.493   0.745 -0.4675  0.3366  0.3788
 1607EOH      C 6431   2.522   0.607   0.664 -0.3321 -0.1762 -0.2957
 1607EOH      C 6432   2.393   0.650   0.593 -0.1372  0.5819 -0.1864
 1607EOH      H 6433   2.534   0.414   0.717 -0.2058  0.5639  0.1388
 1608EOH      O 6434   3.461   7.269   4.596  0.1780 -0.4975 -0.2135
 1608EOH      C 6435   3.344   7.220   4.529  0.1755  0.3704 -0.8506
 1608EOH      C 6436   3.217   7.297   4.570  0.5616  0.4719  0.1936
 1608EOH      H 6437   3.527   7.201   4.597 -0.9834 -1.6677  1.6494
 1609EOH      O 6438   2.844   0.246   3.550 -0.2217  0.2290 -0.0672
 1609EOH      C 6439   2.917   0.362   3.508  0.0741  0.2009  0.3752
 1609EOH      C 6440   2.874   0.399   3.365  0.2679  0.6339  0.4279
 1609EOH      H 6441   2.893   0.191   3.609 -1.3113 -2.4591 -1.5729
 1610EOH      O 6442   4.399   7.509   3.692  0.3587  0.6115 -0.7829
 1610EOH      C 6443   4.420   7.571   3.819 -0.1854 -0.2945 -0.2427
 1610EOH      C 6444   4.432   7.722   3.792  0.5926 -0.2254  0.4480
 1610EOH      H 6445   4.469   7.534   3.634  0.7881  1.6827  0.1784
 1611EOH      O 6446   3.503   5.524   3.270 -0.5798  0.5542  0.2774
 1611EOH      C 6447   3.401   5.424   3.279  0.0686 -0.0613  0.9430
 1611EOH      C 6448   3.451   5.280   3.302 -0.3978 -0.5478 -0.9864
 1611EOH      H 6449   3.450   5.596   3.241 -1.6287  0.5644  2.1238
 1612EOH      O 6450   1.605   0.060   3.921 -0.1252  0.5749  0.2721
 1612EOH      C 6451   1.524   0.029   4.035 -0.2544 -0.5174 -0.1107
 1612EOH      C 6452   1.394   0.112   4.032 -0.3881 -0.7270 -0.1217
 1612EOH      H 6453   1.659  -0.011   3.890 -0.7565  0.6009 -0.9030
 1613EOH      O 6454   4.868   4.004   6.519  0.3170 -0.1525  0.0698
 1613EOH      C 6455   4.970   3.991   6.618  0.0220  0.3302  0.4434
 1613EOH      C 6456   5.107   4.032   6.561  0.1094 -0.4864  0.0504
 1613EOH      H 6457   4.789   3.964   6.551 -1.4644  1.7297 -1.7764
 1614EOH      O 6458   0.009   1.811   4.808  0.4014  0.4681  0.0213
 1614EOH      C 6459   0.149   1.835   4.828  0.4136 -0.0004  0.4851
 1614EOH      C 6460   0.174   1.803   4.977 -0.3195 -0.3910  0.5300
 1614EOH      H 6461  -0.005   1.720   4.789 -1.3228  0.7136 -0.0071
 1615EOH      O 6462   4.254   6.073   5.545 -0.0494 -0.2665 -0.1902
 1615EOH      C 6463   4.353   6.159   5.603 -0.0859 -0.4422  0.1336
 1615EOH      C 6464   4.287   6.251   5.707  0.0903 -0.6208  0.4036
 1615EOH      H 6465   4.225   6.008   5.607  2.8233 -0.7527  0.6877
 1616EOH      O 6466   1.237   4.981   7.462  0.0103 -0.5770  0.2312
 1616EOH      C 6467   1.137   4.893   7.514 -0.2117 -0.4086  0.0951
 1616EOH      C 6468   1.000   4.932   7.455  0.1032  0.2725 -0.1930
 1616EOH      H 6469   1.307   4.979   7.525 -0.1739  0.5070  0.4721
 1617EOH      O 6470   2.074   6.153   0.517  0.0575  0.1339 -0.1521
 1617EOH      C 6471   2.198   6.098   0.472 -0.4726 -0.6731 -0.6379
 1617EOH      C 6472   2.205   6.139   0.323 -0.2271  0.6702 -0.2553
 1617EOH      H 6473   2.027   6.079   0.552  0.4307 -0.2722 -0.4903
 1618EOH      O 6474   4.825   2.820   7.199 -0.0410 -0.1434  0.4851
 1618EOH      C 6475   4.868   2.699   7.135 -0.1825 -0.1233  0.3498
 1618EOH      C 6476   4.847   2.566   7.209 -0.2980 -0.2362  0.1096
 1618EOH      H 6477   4.850   2.893   7.143  0.3919 -1.4963 -1.1173
 1619EOH      O 6478   2.201   3.357   0.204 -0.3729 -0.0179 -0.1480
 1619EOH      C 6479   2.267   3.388   0.326  0.2875 -0.1460 -0.4733
 1619EOH      C 6480   2.247   3.276   0.431  0.4464 -0.0112 -0.2982
 1619EOH      H 6481   2.245   3.279   0.174 -0.0732 -0.0778  0.4582
 1620EOH      O 6482   7.822   0.684   2.121  0.5453 -0.2941  0.0227
 1620EOH      C 6483   7.755   0.740   2.234 -0.5913 -0.2900 -0.6544
 1620EOH      C 6484   7.726   0.629   2.336 -0.8502  0.5961  0.2393
 1620EOH      H 6485   7.909   0.721   2.128  1.0968 -1.3796 -0.9409
 1621EOH      O 6486   2.892   3.378   2.906  0.7782 -0.1535  0.0589
 1621EOH      C 6487   2.994   3.474   2.880 -0.1677  0.8302 -0.0258
 1621EOH      C 6488   3.061   3.424   2.751 -0.4541  0.5654 -0.0710
 1621EOH      H 6489   2.887   3.375   3.000  1.6535 -0.4343  0.1107
 1622EOH      O 6490   3.358   3.920   3.599  0.6823 -0.3601 -0.0499
 1622EOH      C 6491   3.316   4.038   3.668 -0.0071 -0.4190 -0.3698
 1622EOH      C 6492   3.168   4.028   3.709 -0.0641 -0.0518 -0.4792
 1622EOH      H 6493   3.436   3.936   3.547  0.2074  0.2519 -0.5929
 1623EOH      O 6494   4.502   4.701   3.842  0.3608 -0.0977  0.3440
 1623EOH      C 6495   4.514   4.700   3.699  0.7563 -0.2824  0.3776
 1623EOH      C 6496   4.393   4.623   3.642  0.3853  0.1725  0.5508
 1623EOH      H 6497   4.575   4.657   3.883  0.5201 -0.1599 -0.0045
 1624EOH      O 6498   1.735   5.695   4.918 -0.0412 -0.0489  0.4440
 1624EOH      C 6499   1.609   5.718   4.983  0.0776  0.1921  0.5926
 1624EOH      C 6500   1.531   5.826   4.906  0.0310 -0.4589 -0.2825
 1624EOH      H 6501   1.785   5.642   4.978  0.6576 -0.7642 -0.7685
 1625EOH      O 6502   1.040   1.144   3.548  0.3743  0.2832  0.3996
 1625EOH      C 6503   1.175   1.098   3.552  0.3863  0.2448 -0.3961
 1625EOH      C 6504   1.181   0.986   3.657 -0.3725  0.8140  0.2549
 1625EOH      H 6505   1.036   1.237   3.528  0.2953 -0.2511 -2.1651
 1626EOH      O 6506   0.290   7.561   4.140  0.1588  0.3454  0.2697
 1626EOH      C 6507   0.271   7.426   4.183  0.1343  0.2585 -0.0146
 1626EOH      C 6508   0.338   7.317   4.096 -0.1390 -0.1009  0.2230
 1626EOH      H 6509   0.272   7.621   4.210  1.2099  0.8761  0.0972
 1627EOH      O 6510   3.968   5.282   0.159 -0.0827  0.4273  0.2489
 1627EOH      C 6511   4.108   5.308   0.170  0.0184  0.1155 -0.2701
 1627EOH      C 6512   4.184   5.342   0.041  0.3733  1.0761  0.1949
 1627EOH      H 6513   3.957   5.204   0.105 -1.1418  0.9437 -0.3105
 1628EOH      O 6514   0.344   0.084   1.540  0.3317 -0.5786  0.1195
 1628EOH      C 6515   0.304   0.180   1.442 -0.1555  0.0711  0.9427
 1628EOH      C 6516   0.353   0.323   1.471  0.3003  0.1465 -0.1557
 1628EOH      H 6517   0.287   0.010   1.527  0.1553 -0.3712 -0.2722
 1629EOH      O 6518   7.684   1.194   3.030  0.4040  0.1914 -0.4416
 1629EOH      C 6519   7.671   1.053   3.051 -0.2866  0.3280  0.0614
 1629EOH      C 6520   7.749   1.000   3.172  0.2247 -0.3360 -0.5545
 1629EOH      H 6521   7.665   1.199   2.938 -1.6965 -0.3217 -0.0570
 1630EOH      O 6522   7.054   6.597   3.718  0.2589  0.4300  0.7572
 1630EOH      C 6523   7.097   6.477   3.783 -0.1956 -0.1206  0.0433
 1630EOH      C 6524   7.240   6.486   3.838 -0.3041  0.3710  0.2461
 1630EOH      H 6525   7.132   6.644   3.694 -0.3781  0.8424 -0.5174
 1631EOH      O 6526   1.597   1.707   4.371 -0.1964  0.3461 -0.1170
 1631EOH      C 6527   1.680   1.740   4.259 -0.2959  0.9653 -0.0094
 1631EOH      C 6528   1.799   1.642   4.253 -1.0149  0.1297 -0.7129
 1631EOH      H 6529   1.597   1.612   4.371  0.6062  0.3420  0.2831
 1632EOH      O 6530   0.496   2.670   2.377 -0.3420  0.3741 -0.8023
 1632EOH      C 6531   0.515   2.550   2.301 -0.0898 -0.2627  0.2645
 1632EOH      C 6532   0.535   2.597   2.156 -0.0147  0.3134  0.4581
 1632EOH      H 6533   0.546   2.671   2.457 -0.0493  0.3313 -0.9816
 1633EOH      O 6534   7.502   0.254   4.087  0.2040  0.1577 -0.4340
 1633EOH      C 6535   7.542   0.119   4.114 -0.8061 -0.1155 -0.2877
 1633EOH      C 6536   7.433   0.018   4.072 -0.6653 -0.2911 -0.2291
 1633EOH      H 6537   7.557   0.313   4.136  0.2315 -1.1334  1.1291
 1634EOH      O 6538   2.150   4.845   1.814 -0.6381  0.7446  0.2461
 1634EOH      C 6539   2.113   4.765   1.701  0.7004  0.6412 -0.1302
 1634EOH      C 6540   2.141   4.835   1.567 -0.0767  0.3379 -0.4490
 1634EOH      H 6541   2.151   4.784   1.886 -0.2000  0.6504  0.1640
 1635EOH      O 6542   2.767   1.901   3.784 -0.0713  0.1081 -0.5215
 1635EOH      C 6543   2.718   2.030   3.821  0.0473  0.0625 -0.1996
 1635EOH      C 6544   2.766   2.067   3.962 -0.4757 -0.3656  0.0938
 1635EOH      H 6545   2.763   1.907   3.690  1.0143 -2.7980 -0.8059
 1636EOH      O 6546   7.397   0.067   2.652  0.3370  0.0212 -0.4117
 1636EOH      C 6547   7.486   0.112   2.755 -0.0305  0.2052 -0.1765
 1636EOH      C 6548   7.621   0.143   2.687  0.2343  0.0254  0.2710
 1636EOH      H 6549   7.347  -0.006   2.685 -1.1493  0.7623 -0.9984
 1637EOH      O 6550   1.634   1.147   7.428 -0.1339 -0.0409 -0.0841
 1637EOH      C 6551   1.733   1.111   7.524 -0.1118  0.2991  0.0230
 1637EOH      C 6552   1.878   1.070   7.490 -0.3265 -0.3238 -0.1454
 1637EOH      H 6553   1.557   1.093   7.430  1.0348 -1.7646 -0.3600
 1638EOH      O 6554   0.749   3.284   1.255  0.1486  0.0214  0.1736
 1638EOH      C 6555   0.695   3.223   1.138  0.2731 -0.0715  0.1641
 1638EOH      C 6556   0.789   3.250   1.019 -0.3920  0.2005 -0.3024
 1638EOH      H 6557   0.711   3.237   1.328  0.7689  1.7985  1.6719
 1639EOH      O 6558   2.342   5.274   2.679  0.3452 -0.3455 -0.0418
 1639EOH      C 6559   2.454   5.280   2.767  0.0970 -0.1305  0.2592
 1639EOH      C 6560   2.409   5.368   2.886  0.1522 -0.2273  0.3516
 1639EOH      H 6561   2.372   5.324   2.604 -1.3384  0.7809  0.0211
 1640EOH      O 6562   0.702   2.191   1.775 -0.0034 -0.2749  0.0824
 1640EOH      C 6563   0.617   2.190   1.890  0.0789 -0.1102  0.1459
 1640EOH      C 6564   0.508   2.081   1.897 -0.0991  0.0291 -0.3912
 1640EOH      H 6565   0.686   2.275   1.733  1.3893  0.7153  1.4521
 1641EOH      O 6566   0.219   7.055   1.760  0.2965  0.2983  0.7943
 1641EOH      C 6567   0.094   7.021   1.821 -0.2817  0.5295 -0.2409
 1641EOH      C 6568  -0.007   6.979   1.713 -0.8238  0.6591  0.2112
 1641EOH      H 6569   0.278   7.086   1.827  1.9142  0.0779 -0.4880
 1642EOH      O 6570   3.535   4.517   6.480 -0.3189  0.4640 -0.1325
 1642EOH      C 6571   3.601   4.563   6.599 -0.0473  0.0320 -0.1163
 1642EOH      C 6572   3.528   4.680   6.666 -0.3891 -0.0938 -0.2677
 1642EOH      H 6573   3.583   4.547   6.404  1.0474 -1.2624  0.0324
 1643EOH      O 6574   2.340   6.470   2.436 -0.1348  0.3753  0.4518
 1643EOH      C 6575   2.356   6.583   2.350  0.0121 -0.0137 -0.0373
 1643EOH      C 6576   2.278   6.705   2.403 -0.5294 -0.1318 -0.5486
 1643EOH      H 6577   2.405   6.403   2.419  0.1726  0.0365  2.8510
 1644EOH      O 6578   1.264   1.984   1.161 -0.2178 -0.3894 -0.0726
 1644EOH      C 6579   1.249   2.126   1.163  0.0568 -0.3615 -0.0397
 1644EOH      C 6580   1.346   2.204   1.254 -0.0492  0.0313 -0.2615
 1644EOH      H 6581   1.211   1.956   1.087 -2.7593  2.1009  0.6786
 1645EOH      O 6582   2.626   1.194   0.898 -0.5514 -0.4154 -0.5200
 1645EOH      C 6583   2.637   1.336   0.915  0.7042 -0.5655 -0.0063
 1645EOH      C 6584   2.549   1.386   1.031  0.0092  0.4562 -0.9611
 1645EOH      H 6585   2.652   1.181   0.808 -1.1055  0.1377 -0.7600
 1646EOH      O 6586   1.458   1.185   0.683  0.5727 -0.3691  0.2628
 1646EOH      C 6587   1.388   1.167   0.560  0.4287  0.3493  0.2367
 1646EOH      C 6588   1.332   1.023   0.565  0.1927  0.4309 -0.0490
 1646EOH      H 6589   1.400   1.202   0.756 -0.3125 -0.0864 -0.4917
 1647EOH      O 6590   4.023   1.924   3.484 -0.3102 -0.0451  0.2653
 1647EOH      C 6591   3.900   1.986   3.446  0.1351  0.1818 -0.8403
 1647EOH      C 6592   3.895   2.120   3.522 -0.3361 -0.4409  0.2385
 1647EOH      H 6593   4.094   1.981   3.458  1.7061 -3.0817 -1.1938
 1648EOH      O 6594   4.116   3.315   3.913 -0.2285  0.1391 -0.4552
 1648EOH      C 6595   4.028   3.202   3.903 -0.6282  0.4075 -0.0271
 1648EOH      C 6596   4.037   3.133   3.765 -0.6698 -0.4848  0.4155
 1648EOH      H 6597   4.179   3.290   3.979 -1.1247  1.8512  1.0835
 1649EOH      O 6598   7.554   7.065   3.523  0.0487 -0.2241 -0.5426
 1649EOH      C 6599   7.611   7.097   3.396 -0.2100  0.3596 -0.5109
 1649EOH      C 6600   7.591   6.990   3.287 -0.2726  0.1271 -0.2696
 1649EOH      H 6601   7.589   7.135   3.576 -0.1382 -0.1345 -0.5396
 1650EOH      O 6602   1.554   6.456   4.164 -0.1295  0.0335  0.3363
 1650EOH      C 6603   1.565   6.356   4.062 -0.5629  0.2088  0.1145
 1650EOH      C 6604   1.436   6.299   4.002 -0.5219  0.2939 -0.0554
 1650EOH      H 6605   1.525   6.536   4.122  0.6262 -0.3408 -0.9363
 1651EOH      O 6606   4.473   2.984   4.501 -0.3345 -0.2309 -0.1700
 1651EOH      C 6607   4.460   3.074   4.611 -0.2535 -0.5115  0.0698
 1651EOH      C 6608   4.313   3.105   4.644 -0.0715  0.5667 -0.0971
 1651EOH      H 6609   4.427   3.030   4.432 -2.7633  2.5389  3.1039
 1652EOH      O 6610   2.390   3.058   0.639  0.3749 -0.7244  0.0853
 1652EOH      C 6611   2.410   3.072   0.780  0.4023  0.1433 -0.0045
 1652EOH      C 6612   2.312   2.975   0.847  0.3111  0.3864  0.2140
 1652EOH      H 6613   2.331   2.985   0.624  0.6864 -0.8553 -0.4810
 1653EOH      O 6614   2.722   4.843   3.589  0.1155  0.2641  0.3123
 1653EOH      C 6615   2.845   4.811   3.654 -0.0911 -0.0420  0.5491
 1653EOH      C 6616   2.901   4.684   3.588 -0.0636  0.3378 -0.1536
 1653EOH      H 6617   2.687   4.919   3.633  0.0426  0.0921  0.5507
 1654EOH      O 6618   1.541   1.778   2.989 -0.1601  0.3209  0.7193
 1654EOH      C 6619   1.605   1.656   2.951 -0.0540  0.4144  0.5991
 1654EOH      C 6620   1.578   1.553   3.062  0.0578  0.1382  0.3686
 1654EOH      H 6621   1.500   1.816   2.913 -0.8623 -1.2503  0.3046
 1655EOH      O 6622   3.943   6.846   5.255 -0.0720  0.2920 -0.2003
 1655EOH      C 6623   4.051   6.832   5.347 -0.3407 -0.6291 -0.0246
 1655EOH      C 6624   4.179   6.808   5.266 -0.4369  0.2072 -0.4253
 1655EOH      H 6625   3.913   6.936   5.249  0.8130  0.5438 -1.0331
 1656EOH      O 6626   1.767   0.195   3.790  0.0489  0.3809 -0.0009
 1656EOH      C 6627   1.898   0.138   3.799 -0.0639  0.1240  0.0154
 1656EOH      C 6628   1.985   0.243   3.727 -0.1259 -0.0790 -0.3556
 1656EOH      H 6629   1.717   0.190   3.869 -0.0722 -0.3926 -0.1253
 1657EOH      O 6630   3.940   6.992   2.843  0.2414 -0.3398 -0.0062
 1657EOH      C 6631   4.013   7.056   2.737 -0.1986 -0.0294 -0.1220
 1657EOH      C 6632   4.000   7.207   2.761  0.4929 -0.0160  0.1597
 1657EOH      H 6633   3.851   6.986   2.812 -0.1087  0.9195  0.7350
 1658EOH      O 6634   4.358   1.533   6.344  0.7598 -0.4223  0.2106
 1658EOH      C 6635   4.362   1.487   6.209  0.7258 -0.2186  0.1392
 1658EOH      C 6636   4.454   1.577   6.125 -0.0783 -0.1944 -0.7281
 1658EOH      H 6637   4.296   1.483   6.395  0.6886 -0.7847 -0.2216
 1659EOH      O 6638   4.852   1.736   3.226 -0.2811 -0.1491  0.5730
 1659EOH      C 6639   4.724   1.790   3.196  0.1136  0.4200 -0.0964
 1659EOH      C 6640   4.724   1.858   3.058  0.3433 -0.4713 -0.5336
 1659EOH      H 6641   4.862   1.656   3.177 -0.0476  0.3373 -0.1693
 1660EOH      O 6642   2.648   6.082   4.375 -0.0793 -0.3086  0.1395
 1660EOH      C 6643   2.659   5.956   4.441  0.0212 -0.1228  0.4744
 1660EOH      C 6644   2.808   5.935   4.471  0.0880 -0.1449  0.1286
 1660EOH      H 6645   2.678   6.147   4.436 -0.3970 -0.3035  0.2929
 1661EOH      O 6646   3.152   6.316   6.391  0.1887  0.1744 -0.0121
 1661EOH      C 6647   3.030   6.296   6.463 -0.0624  0.0530 -0.4623
 1661EOH      C 6648   2.928   6.354   6.364 -0.8104  0.0751  0.3127
 1661EOH      H 6649   3.200   6.235   6.394  0.6962  0.5061  0.8230
 1662EOH      O 6650   2.100   0.075   5.921 -0.2565  0.3856 -0.2139
 1662EOH      C 6651   2.192  -0.016   5.981 -0.3224  0.0550 -0.6127
 1662EOH      C 6652   2.132  -0.156   6.000 -0.2132  0.0464 -0.3282
 1662EOH      H 6653   2.135   0.163   5.926 -0.2196  0.2901  1.4428
 1663EOH      O 6654   3.476   1.650   3.598  0.0172  0.8572 -0.7518
 1663EOH      C 6655   3.618   1.638   3.610 -0.1012  0.0263 -0.1539
 1663EOH      C 6656   3.659   1.671   3.755 -0.3991  0.0982 -0.0867
 1663EOH      H 6657   3.426   1.597   3.658  0.4228  0.9338 -0.3482
 1664EOH      O 6658   3.363   2.417   2.790  0.0671 -0.1609 -0.2435
 1664EOH      C 6659   3.309   2.373   2.665  0.0489  0.1641 -0.3490
 1664EOH      C 6660   3.329   2.223   2.638  1.0196  0.0590  0.8900
 1664EOH      H 6661   3.444   2.462   2.775  0.2467  1.4123  4.5693
 1665EOH      O 6662   1.874   7.211   4.936  0.4467  0.0556 -0.4155
 1665EOH      C 6663   1.969   7.131   5.006 -0.3079 -0.1997  0.3180
 1665EOH      C 6664   1.897   7.005   5.059 -0.4232 -0.3405 -0.1724
 1665EOH      H 6665   1.892   7.300   4.964 -1.8630  1.0466 -1.9316
 1666EOH      O 6666   1.125   2.712   4.572 -0.5335  0.3168 -0.1537
 1666EOH      C 6667   1.085   2.790   4.685 -0.3149  0.2429 -0.0234
 1666EOH      C 6668   1.072   2.710   4.816 -0.5481 -0.6040 -0.5623
 1666EOH      H 6669   1.076   2.738   4.496  1.7331  1.0186 -1.4159
 1667EOH      O 6670   2.461   5.017   3.132 -0.3277  0.5187 -0.1589
 1667EOH      C 6671   2.330   5.009   3.188 -0.1549 -0.1272  0.1572
 1667EOH      C 6672   2.293   5.149   3.241 -0.4577  0.0149 -0.4263
 1667EOH      H 6673   2.475   4.930   3.098 -0.9273  0.0527  0.7475
 1668EOH      O 6674   2.396   5.413   2.492  0.1190 -0.1098 -0.0441
 1668EOH      C 6675   2.319   5.411   2.372  0.5543 -0.4769 -0.3152
 1668EOH      C 6676   2.405   5.472   2.259  0.3511  0.5923  0.1034
 1668EOH      H 6677   2.383   5.500   2.527 -3.2881  0.0863 -1.6067
 1669EOH      O 6678   4.824   3.857   4.845 -0.3454  0.2538  0.4909
 1669EOH      C 6679   4.958   3.897   4.875 -0.0953 -0.0995 -0.1423
 1669EOH      C 6680   4.970   3.972   5.008  0.2727 -0.0250 -0.2168
 1669EOH      H 6681   4.810   3.774   4.889  3.7877 -1.5507 -1.2846
 1670EOH      O 6682   4.692   7.282   3.938  0.5526  0.4291  0.3829
 1670EOH      C 6683   4.583   7.189   3.931  0.6151  0.4226 -0.5178
 1670EOH      C 6684   4.486   7.229   3.819 -0.2339 -0.5954 -0.1602
 1670EOH      H 6685   4.743   7.238   4.005  0.1574 -0.2610  0.2427
 1671EOH      O 6686   2.280   6.388   1.215 -0.6297  0.0216  0.3507
 1671EOH      C 6687   2.294   6.489   1.114 -0.0856 -0.2451  0.1572
 1671EOH      C 6688   2.417   6.579   1.131 -0.1367 -0.0603 -0.4536
 1671EOH      H 6689   2.339   6.317   1.193 -0.0669  0.5277  0.2130
 1672EOH      O 6690   2.092   0.902   5.991  0.0615  0.6567 -0.2793
 1672EOH      C 6691   2.070   0.792   5.902  0.7422 -0.1862  0.5820
 1672EOH      C 6692   2.127   0.841   5.768 -0.0557 -0.0181  0.2975
 1672EOH      H 6693   2.044   0.887   6.071  1.7139  0.2161  0.6681
 1673EOH      O 6694   3.072   5.688   4.831 -0.1176 -0.3686  0.6602
 1673EOH      C 6695   2.964   5.780   4.809  0.0970 -0.0454  0.9671
 1673EOH      C 6696   2.830   5.729   4.866 -0.0309 -0.7375  0.0583
 1673EOH      H 6697   3.152   5.734   4.812 -0.2336 -0.3038  0.3163
 1674EOH      O 6698   1.469   4.306   6.299 -0.0167  0.0602  0.1678
 1674EOH      C 6699   1.452   4.297   6.440 -0.3605 -0.1716  0.1117
 1674EOH      C 6700   1.453   4.443   6.488  0.3746 -0.1249 -0.0397
 1674EOH      H 6701   1.397   4.353   6.259 -0.0906 -0.1246  0.0823
 1675EOH      O 6702   1.510   3.745   2.198 -0.1787  0.5278  0.4192
 1675EOH      C 6703   1.371   3.711   2.200 -0.0906  0.1698  0.4432
 1675EOH      C 6704   1.337   3.668   2.343 -0.6261 -0.0571  0.2488
 1675EOH      H 6705   1.557   3.682   2.145  1.0161 -0.7057  2.8598
 1676EOH      O 6706   1.791   2.987   6.774  0.0542 -0.6621  0.2753
 1676EOH      C 6707   1.866   2.875   6.727  0.5449 -0.3598  0.3407
 1676EOH      C 6708   1.779   2.779   6.645 -0.1711 -0.0706  0.7592
 1676EOH      H 6709   1.845   3.029   6.840  2.8051  0.3160 -2.4945
 1677EOH      O 6710   3.191   2.077   5.068  0.4041  0.4178  0.1188
 1677EOH      C 6711   3.239   1.992   5.173  0.3040  0.4432  0.1847
 1677EOH      C 6712   3.390   1.964   5.162  0.1578 -0.1127 -0.4308
 1677EOH      H 6713   3.101   2.085   5.095  0.5794 -1.2913  1.2729
 1678EOH      O 6714   3.233   6.571   2.722  0.1275 -0.5262 -0.0199
 1678EOH      C 6715   3.258   6.651   2.606 -0.4731 -0.6847 -0.2619
 1678EOH      C 6716   3.396   6.617   2.546 -0.4872 -0.6073 -0.3388
 1678EOH      H 6717   3.197   6.630   2.785  0.9435  1.4226 -1.3296
 1679EOH      O 6718   3.016   3.172   0.915  0.0787 -0.0250  0.3456
 1679EOH      C 6719   2.973   3.170   1.052 -0.1056  0.2930  0.2910
 1679EOH      C 6720   3.048   3.056   1.122 -0.2691 -0.0617 -0.1019
 1679EOH      H 6721   2.937   3.200   0.872 -0.7779 -1.2634  1.0455
 1680EOH      O 6722   0.498   6.323   0.437  0.0763 -0.0804  0.7922
 1680EOH      C 6723   0.527   6.456   0.392 -0.4059 -0.2553 -0.0457
 1680EOH      C 6724   0.449   6.483   0.262  0.2950 -0.6110 -0.5467
 1680EOH      H 6725   0.554   6.270   0.383 -1.8579  0.0456 -1.4128
 1681EOH      O 6726   1.463   7.140   7.794 -0.8233 -0.3110 -0.2512
 1681EOH      C 6727   1.386   7.236   7.722 -0.7196  0.0442  0.1096
 1681EOH      C 6728   1.371   7.355   7.819  0.0264 -0.0457  0.3350
 1681EOH      H 6729   1.393   7.083   7.824 -0.5904  2.0083  5.3078
 1682EOH      O 6730   0.405   2.962   2.347  0.1126  0.2585 -0.0250
 1682EOH      C 6731   0.510   3.057   2.327  0.1899  0.3117  0.6321
 1682EOH      C 6732   0.624   2.996   2.244 -0.2890  0.9481 -0.5073
 1682EOH      H 6733   0.421   2.891   2.286  0.3684  0.5019 -0.2452
 1683EOH      O 6734   6.492   1.250   4.325 -0.4220  0.3365  0.1622
 1683EOH      C 6735   6.495   1.260   4.468 -0.6562  0.3717  0.1652
 1683EOH      C 6736   6.351   1.250   4.519 -0.7306 -0.7289 -0.2459
 1683EOH      H 6737   6.575   1.266   4.281 -0.6751  0.5338 -0.2421
 1684EOH      O 6738   3.473   1.116   6.036  0.4123 -0.6781  0.2165
 1684EOH      C 6739   3.479   0.974   6.052 -0.2721 -0.7725 -0.3848
 1684EOH      C 6740   3.388   0.957   6.175  0.5016  0.1026  0.3074
 1684EOH      H 6741   3.424   1.147   5.961  1.6968  0.8743 -0.0164
 1685EOH      O 6742   2.914   6.886   4.265  0.1900  0.6112  0.1823
 1685EOH      C 6743   2.846   6.767   4.225 -0.1047  0.8462 -0.0285
 1685EOH      C 6744   2.699   6.787   4.267 -0.2413  0.2307 -0.2084
 1685EOH      H 6745   3.006   6.873   4.276  0.1305  1.9446  2.5064
 1686EOH      O 6746   7.821   1.993   1.893 -0.0284 -0.3431  0.3258
 1686EOH      C 6747   7.884   2.059   2.003  0.6571 -0.1344 -0.1896
 1686EOH      C 6748   7.853   1.987   2.135 -0.1808  0.4362 -0.0679
 1686EOH      H 6749   7.733   2.030   1.893 -0.0168 -0.3122 -0.4662
 1687EOH      O 6750   1.972   0.673   1.581  0.2074 -0.3715  0.0825
 1687EOH      C 6751   2.086   0.747   1.538 -0.1298 -0.2401 -0.6003
 1687EOH      C 6752   2.171   0.649   1.455  0.3765 -0.1083 -0.2438
 1687EOH      H 6753   1.931   0.635   1.504  1.1263  0.8135 -1.0015
 1688EOH      O 6754   3.178   3.907   0.092  0.1088  0.5301  0.3410
 1688EOH      C 6755   3.258   3.883  -0.024 -0.2315  0.0910  0.2016
 1688EOH      C 6756   3.400   3.933   0.005 -0.2438  0.4933 -0.4258
 1688EOH      H 6757   3.174   4.001   0.102 -0.3050  0.6561 -0.9512
 1689EOH      O 6758   4.596   4.457   5.598 -0.2182 -0.8244  0.1469
 1689EOH      C 6759   4.727   4.406   5.623  0.1202 -0.1908 -0.3303
 1689EOH      C 6760   4.827   4.515   5.665  0.5270 -0.3696 -0.8309
 1689EOH      H 6761   4.572   4.505   5.676  1.2514 -1.8040  1.2239
 1690EOH      O 6762   3.491   6.390   5.168  0.1256  0.2817  0.1374
 1690EOH      C 6763   3.493   6.522   5.113 -0.3912 -0.0388 -0.6518
 1690EOH      C 6764   3.496   6.625   5.228  0.6214 -0.5661 -0.2063
 1690EOH      H 6765   3.578   6.352   5.167 -0.6661 -1.5316 -1.7504
 1691EOH      O 6766   0.944   0.834   6.181  0.4762 -0.7763 -0.4384
 1691EOH      C 6767   0.842   0.787   6.269  0.1959  0.0659 -0.3044
 1691EOH      C 6768   0.758   0.910   6.308  0.3341  0.1044 -0.1335
 1691EOH      H 6769   0.917   0.814   6.093 -3.0211  0.8919  0.1555
 1692EOH      O 6770   4.103   7.381   3.945 -0.1841  0.2202  0.1841
 1692EOH      C 6771   3.977   7.446   3.957 -0.2411  0.0898  0.2977
 1692EOH      C 6772   3.962   7.566   3.861  0.6715  0.1995  0.2890
 1692EOH      H 6773   4.117   7.365   3.853  0.6227 -0.8284  0.4704
 1693EOH      O 6774   4.769   0.663   4.609  0.2104  0.5345  0.4274
 1693EOH      C 6775   4.876   0.697   4.522  0.1334  0.2439  0.2173
 1693EOH      C 6776   4.995   0.606   4.560 -0.1307 -0.2294 -0.0914
 1693EOH      H 6777   4.767   0.569   4.621 -2.9067  0.5373  0.3816
 1694EOH      O 6778   3.831   4.565   2.629 -0.3429  0.1093 -0.4512
 1694EOH      C 6779   3.917   4.455   2.600 -0.1389  0.0853  0.2501
 1694EOH      C 6780   3.860   4.320   2.648 -0.2928 -0.1190 -0.5115
 1694EOH      H 6781   3.891   4.632   2.659  0.3838 -0.0681 -1.4618
 1695EOH      O 6782   0.759   6.510   1.346  0.3505  0.1356 -0.1965
 1695EOH      C 6783   0.711   6.486   1.479 -0.2685 -0.2537 -0.4916
 1695EOH      C 6784   0.754   6.340   1.504  0.6348  0.0745 -0.1232
 1695EOH      H 6785   0.684   6.516   1.289 -1.0511  0.9991  1.6977
 1696EOH      O 6786   7.700   7.580   4.796  0.0424 -0.2257  0.1406
 1696EOH      C 6787   7.601   7.478   4.783  0.0577 -0.2394  0.1399
 1696EOH      C 6788   7.639   7.364   4.880  0.1899 -0.3177 -0.0056
 1696EOH      H 6789   7.661   7.666   4.786 -1.3602 -0.8452  0.1629
 1697EOH      O 6790   1.470   7.651   0.324  0.3322 -0.5671  0.0033
 1697EOH      C 6791   1.376   7.620   0.221  0.0172 -0.2819  0.2038
 1697EOH      C 6792   1.234   7.667   0.254 -0.0589  0.3033 -0.9238
 1697EOH      H 6793   1.497   7.570   0.365  1.0065 -0.8852 -1.0465
 1698EOH      O 6794   2.653   5.812   1.747 -0.0226 -0.0248  0.3368
 1698EOH      C 6795   2.584   5.763   1.633  0.1292 -0.1159  0.2842
 1698EOH      C 6796   2.502   5.640   1.677 -0.2111 -0.0360 -0.1180
 1698EOH      H 6797   2.735   5.767   1.757  0.3014  0.7055  1.1100
 1699EOH      O 6798   0.108   2.143   3.519 -0.1999  0.1173 -0.2500
 1699EOH      C 6799   0.220   2.176   3.436  0.1852 -0.1430  0.1621
 1699EOH      C 6800   0.183   2.238   3.300 -0.2433 -0.2371  0.2337
 1699EOH      H 6801   0.127   2.169   3.608  1.4492  2.2078 -1.1658
 1700EOH      O 6802   4.281   6.644   3.144 -1.0294  0.4617  0.5955
 1700EOH      C 6803   4.384   6.669   3.241 -0.5929  0.7779  0.0583
 1700EOH      C 6804   4.523   6.686   3.178 -0.5465 -0.3013 -0.1459
 1700EOH      H 6805   4.272   6.723   3.093  0.5982 -0.5790 -1.3535
 1701EOH      O 6806   0.042   1.119   7.136 -0.0702  0.4773 -0.3104
 1701EOH      C 6807  -0.046   1.059   7.232  0.4223  0.4025  0.0940
 1701EOH      C 6808   0.012   0.935   7.304 -0.6678 -0.2436 -0.1385
 1701EOH      H 6809   0.098   1.184   7.176 -0.5709  2.4605 -2.7082
 1702EOH      O 6810   1.822   0.321   5.685  0.5201 -0.0763  0.1136
 1702EOH      C 6811   1.901   0.344   5.568  0.3522 -0.4007 -0.0645
 1702EOH      C 6812   1.804   0.346   5.448  0.7259 -0.3430 -0.3702
 1702EOH      H 6813   1.842   0.234   5.717 -1.1730 -1.1252 -1.5419
 1703EOH      O 6814   1.886   4.322   3.669  0.4348  0.5280 -0.0497
 1703EOH      C 6815   1.916   4.289   3.533 -0.0371  0.4200 -0.1253
 1703EOH      C 6816   1.861   4.151   3.496  0.0937  0.2063  0.4678
 1703EOH      H 6817   1.914   4.251   3.725  0.3924  0.7753  0.2840
 1704EOH      O 6818   2.432   5.554   3.624  0.3785  0.6629  0.1774
 1704EOH      C 6819   2.401   5.542   3.485 -0.1804 -0.5376  0.3976
 1704EOH      C 6820   2.255   5.527   3.438 -0.0519  0.0492 -0.1946
 1704EOH      H 6821   2.381   5.615   3.675 -2.5609 -0.4259 -1.3591
 1705EOH      O 6822   2.112   0.183   2.543 -0.0800  0.1123 -0.2660
 1705EOH      C 6823   2.148   0.064   2.472  0.2905 -0.0614  0.2095
 1705EOH      C 6824   2.041  -0.046   2.485  0.0378  0.1177 -0.3361
 1705EOH      H 6825   2.174   0.253   2.528  2.3937 -1.6096  1.4866
 1706EOH      O 6826   1.129   1.900   0.976 -0.0449 -0.2258  0.2309
 1706EOH      C 6827   0.995   1.852   0.975  0.0035 -0.3556  0.0023
 1706EOH      C 6828   0.990   1.700   0.948  0.8068 -0.4526  0.3800
 1706EOH      H 6829   1.175   1.866   0.901  0.2495 -0.8943  0.7069
 1707EOH      O 6830   0.678   3.518   1.293  0.3553 -0.1666 -0.1354
 1707EOH      C 6831   0.737   3.562   1.416 -0.3795  0.2255  0.0818
 1707EOH      C 6832   0.867   3.637   1.380 -0.2688  0.1991  0.4283
 1707EOH      H 6833   0.708   3.429   1.278 -0.1213 -0.1946 -0.9327
 1708EOH      O 6834   1.748   1.134   0.702  0.3272  0.1551  0.1168
 1708EOH      C 6835   1.846   1.133   0.598  0.3374  0.5911  0.1204
 1708EOH      C 6836   1.976   1.064   0.641  0.5380  0.7902 -0.1654
 1708EOH      H 6837   1.665   1.147   0.659  1.5994  1.4050 -2.0364
 1709EOH      O 6838   4.682   4.580   3.986  0.4587 -0.0436 -0.3116
 1709EOH      C 6839   4.744   4.669   4.079 -0.6480 -0.3769  0.7580
 1709EOH      C 6840   4.693   4.814   4.069  0.3657 -0.0612  0.1325
 1709EOH      H 6841   4.717   4.495   4.005  1.3408  0.3433 -0.1639
 1710EOH      O 6842   0.492   1.941   4.091 -0.0884 -0.3086 -0.0710
 1710EOH      C 6843   0.351   1.956   4.110 -0.0783 -0.0926 -0.1687
 1710EOH      C 6844   0.286   1.817   4.122  0.6381 -0.3038  1.3771
 1710EOH      H 6845   0.529   2.019   4.129  0.7423  0.1907 -1.8434
 1711EOH      O 6846   1.070   0.246   5.267  0.5472  0.0128  0.3804
 1711EOH      C 6847   1.012   0.161   5.168  0.6626 -0.1408  0.4432
 1711EOH      C 6848   1.025   0.013   5.208 -0.5950 -0.2118  0.6285
 1711EOH      H 6849   1.109   0.324   5.230 -2.5544 -0.1312 -3.5278
 1712EOH      O 6850   1.510   1.460   4.321  0.0909 -0.1656 -0.3429
 1712EOH      C 6851   1.499   1.351   4.412 -0.3197  0.2178  0.0681
 1712EOH      C 6852   1.456   1.401   4.551 -0.0397 -0.8229  0.5354
 1712EOH      H 6853   1.472   1.442   4.236 -0.7342  1.5893 -0.3790
 1713EOH      O 6854   1.441   4.210   2.931  0.2206 -0.0766 -0.2732
 1713EOH      C 6855   1.320   4.248   2.998 -0.1214 -0.7571 -0.5061
 1713EOH      C 6856   1.314   4.182   3.137 -0.4060 -0.4440 -0.3708
 1713EOH      H 6857   1.507   4.272   2.959 -0.5523 -0.1688  1.8194
 1714EOH      O 6858   1.080   4.716   1.902  0.6799  0.0868  0.0724
 1714EOH      C 6859   1.128   4.628   2.004  0.0856 -0.0267  0.2609
 1714EOH      C 6860   1.134   4.486   1.944 -0.2735  0.3991 -0.8060
 1714EOH      H 6861   1.113   4.802   1.924  2.5688 -0.5362 -0.3078
 1715EOH      O 6862   3.246   6.332   5.232  0.2156 -0.3619  0.2605
 1715EOH      C 6863   3.193   6.223   5.155  0.5288 -0.0796 -0.3646
 1715EOH      C 6864   3.207   6.247   5.004  0.3342  0.6011 -0.2802
 1715EOH      H 6865   3.338   6.339   5.211  0.4603 -0.6978  1.2250
 1716EOH      O 6866   3.823   7.094   2.159 -0.3755 -0.5767 -0.3576
 1716EOH      C 6867   3.905   7.040   2.055 -0.3125 -0.4858 -0.3545
 1716EOH      C 6868   3.813   6.992   1.941  0.4788 -0.2015 -1.1231
 1716EOH      H 6869   3.745   7.040   2.162  0.4019 -1.6662  0.7676
 1717EOH      O 6870   4.587   2.696   4.532 -0.2464 -0.0040  0.1304
 1717EOH      C 6871   4.477   2.657   4.450  0.1504 -0.1037 -0.3527
 1717EOH      C 6872   4.357   2.644   4.545  0.0187 -0.2847 -0.5446
 1717EOH      H 6873   4.619   2.779   4.500 -0.0295 -0.2425 -0.2765
 1718EOH      O 6874   5.450   3.879   5.042 -0.1126 -0.2385  0.2092
 1718EOH      C 6875   5.342   3.881   5.136 -0.5669 -0.2130 -0.3128
 1718EOH      C 6876   5.272   3.745   5.117  0.2425 -0.6757  0.0210
 1718EOH      H 6877   5.504   3.952   5.069  0.6316 -1.3911  1.9205
 1719EOH      O 6878   0.865   3.335   0.183 -0.0639  0.2984  0.2122
 1719EOH      C 6879   0.825   3.404   0.302 -0.6224 -0.4067  0.4358
 1719EOH      C 6880   0.938   3.460   0.390 -0.0540  0.2061 -0.6821
 1719EOH      H 6881   0.792   3.282   0.156 -0.4668  0.9457  0.0225
 1720EOH      O 6882   7.018   1.300   4.856  0.3006 -0.1344  0.1553
 1720EOH      C 6883   6.991   1.260   4.721 -0.5911  0.1358  0.2540
 1720EOH      C 6884   6.843   1.266   4.678 -0.2626  0.6251 -0.8045
 1720EOH      H 6885   6.974   1.383   4.864 -0.0313 -0.4849  2.1337
 1721EOH      O 6886   1.871   1.045   6.641 -0.1563  0.0189 -0.4733
 1721EOH      C 6887   1.773   1.030   6.745 -0.1176 -0.6952 -0.5341
 1721EOH      C 6888   1.633   1.012   6.683 -0.5540  0.8526 -0.0214
 1721EOH      H 6889   1.943   0.986   6.656  0.3026  0.0082 -2.5615
 1722EOH      O 6890   1.702   4.801   2.321 -0.3429  0.0404 -0.4901
 1722EOH      C 6891   1.637   4.723   2.220 -0.4571 -0.0604 -0.3394
 1722EOH      C 6892   1.513   4.800   2.171 -0.7276 -0.3168 -0.0641
 1722EOH      H 6893   1.649   4.786   2.398 -0.7205 -0.0042 -0.7573
 1723EOH      O 6894   3.225   2.584   7.317  0.1682  0.0737  1.1371
 1723EOH      C 6895   3.345   2.626   7.252 -0.4266 -0.0362 -0.0466
 1723EOH      C 6896   3.338   2.770   7.197  0.7145  0.0733  0.0844
 1723EOH      H 6897   3.241   2.599   7.409  1.4588  0.1619  0.9125
 1724EOH      O 6898   6.997   2.387   3.065 -0.3273  0.2944  0.2831
 1724EOH      C 6899   7.045   2.512   3.116 -0.0153  0.2770  0.0300
 1724EOH      C 6900   7.081   2.620   3.012  0.5495 -0.6517 -0.7466
 1724EOH      H 6901   7.009   2.322   3.133 -0.7470  1.7819  1.8159
 1725EOH      O 6902   3.616   6.672   3.672  0.1214 -0.1349 -0.0576
 1725EOH      C 6903   3.648   6.804   3.626 -0.0512 -0.1249 -0.1511
 1725EOH      C 6904   3.629   6.898   3.746 -0.0713 -0.4355  0.0900
 1725EOH      H 6905   3.695   6.629   3.700 -1.0987 -2.0933  0.5426
 1726EOH      O 6906   6.998   0.997   3.542  0.3705  0.3416 -0.9804
 1726EOH      C 6907   6.975   1.128   3.595 -0.3789 -0.1320 -0.1185
 1726EOH      C 6908   6.973   1.109   3.748 -0.2091 -0.2371 -0.1284
 1726EOH      H 6909   6.916   0.951   3.548  0.5525  0.1133 -0.1852
 1727EOH      O 6910   3.868   0.315   5.734 -0.1532 -0.0831 -0.3388
 1727EOH      C 6911   3.917   0.389   5.622 -0.1817  0.0214 -0.2817
 1727EOH      C 6912   4.066   0.415   5.650 -0.2840  0.3698 -0.0498
 1727EOH      H 6913   3.916   0.234   5.727 -1.4498 -0.8671 -0.3332
 1728EOH      O 6914   1.110   7.415   6.153 -0.2170 -0.1929 -0.4198
 1728EOH      C 6915   1.081   7.304   6.067  0.6226 -0.7788  0.0500
 1728EOH      C 6916   1.159   7.316   5.934  0.1044  0.2857 -0.1595
 1728EOH      H 6917   1.203   7.428   6.163 -0.4811  2.5346 -1.0884
 1729EOH      O 6918   3.036   1.908   3.147  0.3799  0.3371  0.5593
 1729EOH      C 6919   3.145   1.986   3.096 -0.1119  0.8263  0.2529
 1729EOH      C 6920   3.099   2.049   2.963 -0.3877 -0.1874 -0.1422
 1729EOH      H 6921   3.060   1.868   3.229 -0.2049  1.2831  1.2013
 1730EOH      O 6922   2.987   0.401   1.044 -0.3246  0.6203  0.0930
 1730EOH      C 6923   2.930   0.392   0.913 -0.1548  0.2685  0.0404
 1730EOH      C 6924   2.798   0.471   0.919  0.1940  0.8549  0.0594
 1730EOH      H 6925   2.913   0.385   1.100  0.2234 -0.3679  0.5597
 1731EOH      O 6926   3.129   2.023   4.440  0.1483  0.0963 -0.0936
 1731EOH      C 6927   3.099   2.162   4.443 -0.5634 -0.0638  0.2826
 1731EOH      C 6928   3.011   2.209   4.326  0.3073  0.5651 -0.1267
 1731EOH      H 6929   3.080   1.978   4.507  0.3851  0.6337  0.4369
 1732EOH      O 6930   1.938   1.746   7.063  0.0918  0.2256 -0.3563
 1732EOH      C 6931   1.797   1.720   7.064  0.1075  0.1505  0.1538
 1732EOH      C 6932   1.783   1.606   6.961 -0.3378  0.1296  0.2387
 1732EOH      H 6933   1.984   1.669   7.094 -0.2295 -0.0223 -0.4857
 1733EOH      O 6934   1.323   6.174   0.096 -0.2200 -0.2506 -0.2561
 1733EOH      C 6935   1.445   6.208   0.029 -0.2340  0.4422  0.0622
 1733EOH      C 6936   1.407   6.266  -0.109  0.2186  0.1806 -0.1738
 1733EOH      H 6937   1.292   6.096   0.052 -3.2851  1.6887 -1.6816
 1734EOH      O 6938   0.495   7.176   3.731 -0.0296 -0.6986 -0.6841
 1734EOH      C 6939   0.400   7.080   3.778 -0.1217 -0.2675  0.0081
 1734EOH      C 6940   0.449   6.994   3.896 -0.4550 -0.7896 -0.2325
 1734EOH      H 6941   0.463   7.196   3.644  0.5219 -1.7110 -1.1345
 1735EOH      O 6942   4.353   3.780   0.098  0.2569  0.2044 -0.6333
 1735EOH      C 6943   4.291   3.830   0.217  0.0447 -0.5025 -0.4471
 1735EOH      C 6944   4.368   3.944   0.286 -0.2559 -0.1455 -0.6992
 1735EOH      H 6945   4.290   3.724   0.055 -0.4495 -1.5855  2.5731
 1736EOH      O 6946   4.685   2.561   4.737  0.1040 -0.2951  1.4095
 1736EOH      C 6947   4.679   2.427   4.688 -0.1452  0.4450 -0.5984
 1736EOH      C 6948   4.800   2.401   4.595  0.1599 -0.3366  0.0168
 1736EOH      H 6949   4.654   2.615   4.666  1.3171 -0.7949  0.4949
 1737EOH      O 6950   1.141   2.562   1.974  0.4543 -0.1646  0.6389
 1737EOH      C 6951   1.000   2.575   1.954  0.4779  0.2581  0.7487
 1737EOH      C 6952   0.941   2.497   2.072 -0.3752  0.0202  0.1675
 1737EOH      H 6953   1.166   2.577   2.064  1.7800  1.0669  0.0963
 1738EOH      O 6954   2.871   5.556   2.577  0.5042  0.5048 -0.6415
 1738EOH      C 6955   2.761   5.510   2.498  0.2629  0.0930 -0.0689
 1738EOH      C 6956   2.816   5.438   2.373  0.0938  0.3870 -0.3157
 1738EOH      H 6957   2.837   5.586   2.660 -0.9824 -0.0166 -1.0459
 1739EOH      O 6958   2.154   6.590   5.630  0.2602  0.6676 -0.2016
 1739EOH      C 6959   2.178   6.451   5.649 -0.3039  0.5672 -0.2099
 1739EOH      C 6960   2.080   6.362   5.570  0.2785  0.2122 -0.5370
 1739EOH      H 6961   2.094   6.623   5.695  1.4309  2.1186  0.1956
 1740EOH      O 6962   1.243   0.611   0.609  0.3508 -0.1718 -0.2976
 1740EOH      C 6963   1.328   0.654   0.503  0.6714 -0.2421 -0.0696
 1740EOH      C 6964   1.395   0.537   0.428 -0.9082 -1.1408 -0.1074
 1740EOH      H 6965   1.298   0.582   0.681 -0.1670  3.9001  1.9090
 1741EOH      O 6966   6.440   0.242   2.651 -0.3275  0.4262 -0.4066
 1741EOH      C 6967   6.384   0.271   2.780  0.3835  0.0254 -0.0088
 1741EOH      C 6968   6.476   0.194   2.876  0.2024 -0.9265 -0.5955
 1741EOH      H 6969   6.372   0.283   2.599 -0.2386 -0.4753 -1.2283
 1742EOH      O 6970   2.998   0.977   3.557  0.4386 -0.3520  0.0905
 1742EOH      C 6971   3.099   0.957   3.458  0.2366 -0.4747 -0.0911
 1742EOH      C 6972   3.153   1.097   3.423 -0.5145 -0.0584  0.4129
 1742EOH      H 6973   2.964   0.892   3.578  1.0305 -0.5212  0.3729
 1743EOH      O 6974   3.760   0.102   4.025  0.4618 -0.2221  0.1192
 1743EOH      C 6975   3.798   0.008   3.924  0.4784  0.0689 -0.1431
 1743EOH      C 6976   3.762   0.059   3.783 -0.7917 -0.0626  0.1298
 1743EOH      H 6977   3.819   0.173   4.006 -1.7442  1.3761 -1.0052
 1744EOH      O 6978   2.698   6.646   2.616  0.4426  0.1843  0.8453
 1744EOH      C 6979   2.576   6.602   2.676 -0.0803  0.1567 -0.2365
 1744EOH      C 6980   2.607   6.517   2.800 -0.1546 -0.3332 -0.5541
 1744EOH      H 6981   2.681   6.633   2.524  1.8056 -2.0776  0.8820
 1745EOH      O 6982   4.075   5.614   6.646  0.8634 -0.1960 -0.3267
 1745EOH      C 6983   4.191   5.653   6.720  0.2260  0.5360  0.2998
 1745EOH      C 6984   4.269   5.522   6.745 -0.4814 -0.1504 -0.9892
 1745EOH      H 6985   4.074   5.671   6.571 -0.6552 -0.1819 -0.3130
 1746EOH      O 6986   3.776   6.057   2.740  0.6921  0.3283 -0.4544
 1746EOH      C 6987   3.714   5.932   2.706  0.2389  0.5875 -0.5893
 1746EOH      C 6988   3.574   5.946   2.770  0.3154  0.0716 -0.3034
 1746EOH      H 6989   3.715   6.121   2.707 -0.9637 -0.0633  1.7105
 1747EOH      O 6990   0.328   1.447   6.371 -0.5160  0.5451 -0.2773
 1747EOH      C 6991   0.327   1.351   6.265  0.2804 -0.4015  0.5776
 1747EOH      C 6992   0.469   1.292   6.255  0.4425  0.0626  0.1525
 1747EOH      H 6993   0.238   1.469   6.391 -0.8736 -0.5551 -0.6494
 1748EOH      O 6994   5.690   3.524   3.583 -0.0454 -0.1811 -0.6379
 1748EOH      C 6995   5.745   3.653   3.555  0.1149 -0.0574  0.2358
 1748EOH      C 6996   5.637   3.740   3.488  0.0266 -0.3340  0.0143
 1748EOH      H 6997   5.703   3.456   3.518  2.0539 -0.5261  0.1322
 1749EOH      O 6998   6.092   1.177   3.246 -0.0078  0.2243  0.1295
 1749EOH      C 6999   5.980   1.248   3.194  0.0828  0.0973 -0.2465
 1749EOH      C 7000   5.940   1.371   3.278  0.0319 -0.0191 -0.1012
 1749EOH      H 7001   6.082   1.088   3.216  0.9445  0.4772 -0.9914
 1750EOH      O 7002   7.886   1.878   0.012  0.0003  0.2216  0.2518
 1750EOH      C 7003   7.754   1.887  -0.042  0.0349 -0.3250  0.0770
 1750EOH      C 7004   7.705   1.743  -0.067 -0.3734 -0.1605 -0.0761
 1750EOH      H 7005   7.885   1.838   0.098  1.6290 -0.4953 -0.0530
 1751EOH      O 7006   4.337   4.126   7.764  0.6155 -0.0031 -0.5821
 1751EOH      C 7007   4.215   4.053   7.777  0.3660  0.5115  0.0301
 1751EOH      C 7008   4.116   4.090   7.665  0.0045 -0.4719  0.0142
 1751EOH      H 7009   4.407   4.063   7.765  0.3349 -0.3141  0.7324
 1752EOH      O 7010   2.963   3.192   6.517 -0.2818  0.5333 -0.1446
 1752EOH      C 7011   3.103   3.174   6.540 -0.3815 -0.2831 -0.1911
 1752EOH      C 7012   3.123   3.162   6.692 -0.3439 -0.0343 -0.1769
 1752EOH      H 7013   2.948   3.239   6.436  1.0309 -0.6693 -1.1149
 1753EOH      O 7014   0.760   1.078   3.985  0.0788 -0.5122  0.6305
 1753EOH      C 7015   0.618   1.074   3.993  0.0169  0.1708 -0.0071
 1753EOH      C 7016   0.587   1.115   4.138  0.0122 -0.4209  0.1613
 1753EOH      H 7017   0.785   1.071   3.894 -1.3253 -2.4747  0.3703
 1754EOH      O 7018   2.536   3.849   3.095 -0.2219 -0.2694 -0.3784
 1754EOH      C 7019   2.568   3.724   3.035  0.3975 -0.4794  0.3810
 1754EOH      C 7020   2.450   3.682   2.945 -0.0992  0.4209  0.6108
 1754EOH      H 7021   2.581   3.917   3.048  0.4090  0.3294  1.0662
 1755EOH      O 7022   2.486   5.284   4.501 -0.0947 -0.1529 -0.1587
 1755EOH      C 7023   2.450   5.200   4.611 -0.0580 -0.1884 -0.1743
 1755EOH      C 7024   2.332   5.250   4.696  0.2641 -0.4716  0.4469
 1755EOH      H 7025   2.521   5.358   4.549 -1.2121  0.8129 -0.8187
 1756EOH      O 7026   2.677   2.537   1.255 -0.1762  0.2256  0.0942
 1756EOH      C 7027   2.609   2.427   1.193  0.0803  0.0569  0.1138
 1756EOH      C 7028   2.503   2.464   1.088  0.0384 -0.6396 -0.0898
 1756EOH      H 7029   2.725   2.577   1.184 -0.7517 -1.2729 -1.1882
 1757EOH      O 7030   6.764   0.957   2.686  0.2109  0.1526 -0.0770
 1757EOH      C 7031   6.819   1.070   2.755  0.4774  0.2404 -0.4296
 1757EOH      C 7032   6.836   1.177   2.646  0.1181 -0.0071 -0.7337
 1757EOH      H 7033   6.841   0.917   2.649  0.5672  0.4302  0.3597
 1758EOH      O 7034   4.366   3.857   6.043  0.1520  0.2322  0.4831
 1758EOH      C 7035   4.360   3.904   5.908  0.3167 -0.0121  0.3890
 1758EOH      C 7036   4.374   3.793   5.802 -0.0536  0.4360 -0.1345
 1758EOH      H 7037   4.300   3.895   6.098  0.5457 -0.7341  1.6365
 1759EOH      O 7038   7.596   2.155   1.888  0.0452  0.6546 -0.0092
 1759EOH      C 7039   7.478   2.074   1.882  0.5252 -0.0315 -0.1968
 1759EOH      C 7040   7.457   2.033   1.734 -0.1264 -0.2170 -0.0541
 1759EOH      H 7041   7.575   2.234   1.935 -0.9655  0.7186 -0.5607
 1760EOH      O 7042   2.018   3.400   0.052 -0.1480  0.3007  0.0921
 1760EOH      C 7043   2.072   3.443  -0.074  0.3044  0.0981  0.2172
 1760EOH      C 7044   2.118   3.589  -0.063 -0.3082  0.2479  0.8409
 1760EOH      H 7045   2.085   3.389   0.117 -1.5413 -0.3633  1.4451
 1761EOH      O 7046   1.214   7.008   1.559 -0.3117 -0.1149 -0.4288
 1761EOH      C 7047   1.346   6.972   1.600 -0.3787 -0.2410 -0.3199
 1761EOH      C 7048   1.380   6.829   1.554 -0.1174 -0.2055 -0.2381
 1761EOH      H 7049   1.148   6.959   1.607 -1.0680 -1.2210 -2.5284
 1762EOH      O 7050   1.987   1.932   4.026 -0.0877 -0.1769 -0.0610
 1762EOH      C 7051   1.966   2.061   4.085 -0.2897 -0.2503  0.0293
 1762EOH      C 7052   2.037   2.046   4.220 -0.3191  0.0540  0.0795
 1762EOH      H 7053   1.961   1.942   3.936 -2.2718 -2.8762  0.2101
 1763EOH      O 7054   1.738   4.872   2.709 -0.5128 -0.0966 -0.2233
 1763EOH      C 7055   1.839   4.783   2.759 -0.0778  0.2563 -0.4757
 1763EOH      C 7056   1.925   4.842   2.872  0.1256 -0.0222 -0.4847
 1763EOH      H 7057   1.702   4.912   2.787 -0.7389 -0.6819 -0.0196
 1764EOH      O 7058   4.983   7.524   3.559  0.4039  0.0270  0.1435
 1764EOH      C 7059   5.047   7.471   3.443  0.2745 -0.3160  0.2310
 1764EOH      C 7060   5.135   7.353   3.490  0.5341  0.0386  0.6361
 1764EOH      H 7061   4.931   7.460   3.603  1.3991 -1.9664 -1.5018
 1765EOH      O 7062   4.758   1.707   5.287  0.1399  0.6579 -0.4722
 1765EOH      C 7063   4.806   1.704   5.152 -0.1680 -0.2418 -0.5647
 1765EOH      C 7064   4.956   1.680   5.132 -0.1011 -0.2119 -0.1170
 1765EOH      H 7065   4.688   1.645   5.301 -0.3089  1.2588 -0.0515
 1766EOH      O 7066   3.515   1.603   0.690 -0.1342 -0.1463 -0.1320
 1766EOH      C 7067   3.412   1.633   0.785  0.1153 -0.0773  0.1153
 1766EOH      C 7068   3.367   1.503   0.855 -0.4176  0.1505  0.1948
 1766EOH      H 7069   3.513   1.673   0.627 -2.7934 -0.8994 -0.9624
 1767EOH      O 7070   3.447   4.518   4.013 -0.3869 -0.0716 -0.4362
 1767EOH      C 7071   3.545   4.445   3.939  0.2848  0.0591  0.3240
 1767EOH      C 7072   3.490   4.322   3.865  0.1961  0.0852  0.3449
 1767EOH      H 7073   3.402   4.472   4.083  0.4425 -1.3162 -0.7228
 1768EOH      O 7074   3.919   2.871   6.068 -0.7132 -0.0059 -0.6142
 1768EOH      C 7075   3.933   2.779   6.177 -0.7141  0.4122 -0.2566
 1768EOH      C 7076   3.957   2.632   6.135  0.5494  0.5493 -0.0131
 1768EOH      H 7077   3.932   2.958   6.104  0.8176 -0.7371  0.6914
 1769EOH      O 7078   2.440   1.316   1.410  0.5708 -0.5700 -0.3044
 1769EOH      C 7079   2.558   1.315   1.491  0.3504 -0.6042  0.0169
 1769EOH      C 7080   2.678   1.381   1.421 -0.1018 -0.3094 -0.4865
 1769EOH      H 7081   2.431   1.233   1.366 -1.1064 -0.8749  0.5885
 1770EOH      O 7082   3.005   1.660   5.227  0.0420  0.5251 -0.4156
 1770EOH      C 7083   2.884   1.601   5.179  0.3982 -0.4152 -0.1613
 1770EOH      C 7084   2.831   1.689   5.064  0.2743 -0.0041  0.2114
 1770EOH      H 7085   2.991   1.740   5.275 -0.7950  0.0356  0.1484
 1771EOH      O 7086   2.335   3.109   3.362 -0.0089  0.1007 -0.3805
 1771EOH      C 7087   2.202   3.098   3.313 -0.1623  0.4624 -0.0443
 1771EOH      C 7088   2.208   3.149   3.168  0.2187 -0.1102 -0.2313
 1771EOH      H 7089   2.337   3.074   3.450  0.3052  0.4126 -0.2597
 1772EOH      O 7090   4.592   3.565   5.283 -0.4075  0.1767 -0.6487
 1772EOH      C 7091   4.459   3.516   5.302 -0.0065 -0.7270 -0.1549
 1772EOH      C 7092   4.460   3.445   5.438  0.2882 -0.5342 -0.0577
 1772EOH      H 7093   4.635   3.489   5.247 -3.0345 -2.0083  0.6512
 1773EOH      O 7094   2.533   4.877   5.243 -0.8904 -0.0646 -0.0702
 1773EOH      C 7095   2.581   4.989   5.168  0.3495 -0.6799 -0.2018
 1773EOH      C 7096   2.716   5.021   5.236  0.1679 -0.4501  0.0509
 1773EOH      H 7097   2.528   4.792   5.203 -0.5207  0.2929 -0.8936
 1774EOH      O 7098   0.531   5.363   2.896 -0.1585  0.6194 -0.1867
 1774EOH      C 7099   0.513   5.380   3.037  0.8356 -0.1701  0.0488
 1774EOH      C 7100   0.574   5.513   3.086  0.1373 -0.0089  0.4866
 1774EOH      H 7101   0.613   5.319   2.879 -0.8687 -0.8725  0.1613
 1775EOH      O 7102   2.691   0.679   6.497  0.1898 -0.4238 -0.0752
 1775EOH      C 7103   2.744   0.591   6.596  0.3546 -0.4273 -0.1671
 1775EOH      C 7104   2.816   0.473   6.527  0.1849 -0.5182 -0.1887
 1775EOH      H 7105   2.608   0.639   6.474  0.1647  0.4411 -1.5983
 1776EOH      O 7106   1.842   3.647   3.719  0.1292 -0.5413  0.1138
 1776EOH      C 7107   1.889   3.720   3.606 -0.3013 -0.1536  0.1804
 1776EOH      C 7108   2.043   3.731   3.598 -0.3453  0.4473  0.1028
 1776EOH      H 7109   1.889   3.566   3.717 -2.0863 -1.8662  0.2385
 1777EOH      O 7110   2.557   4.613   5.119 -0.0429 -0.3829 -0.0050
 1777EOH      C 7111   2.684   4.628   5.055  0.1461  0.2793  0.5218
 1777EOH      C 7112   2.800   4.609   5.154  0.5730 -0.2156 -0.0709
 1777EOH      H 7113   2.487   4.621   5.056  1.9059 -0.2828 -2.2306
 1778EOH      O 7114   3.302   0.153   6.588  0.1267 -0.1392 -0.4981
 1778EOH      C 7115   3.360   0.039   6.653 -0.3735 -0.0828  0.0563
 1778EOH      C 7116   3.456   0.089   6.762 -0.2174 -0.6134  0.1597
 1778EOH      H 7117   3.241   0.195   6.647  0.6982  3.1003 -2.0570
 1779EOH      O 7118   2.373   4.665   4.961  0.2930  0.5768  0.4719
 1779EOH      C 7119   2.237   4.680   5.003  0.2781  0.4161  0.4782
 1779EOH      C 7120   2.204   4.585   5.119 -0.3756 -0.0433 -0.0812
 1779EOH      H 7121   2.373   4.653   4.868 -1.4672 -1.2892  0.6828
 1780EOH      O 7122   2.730   5.794   7.834 -0.0086 -0.2302 -0.0752
 1780EOH      C 7123   2.862   5.849   7.839 -0.3270  0.5082  0.3419
 1780EOH      C 7124   2.937   5.788   7.958  0.0269 -0.2209 -0.2504
 1780EOH      H 7125   2.675   5.824   7.764 -0.5232 -1.1669 -0.0740
 1781EOH      O 7126   2.090   4.091   5.144  0.5247 -0.8110 -0.0919
 1781EOH      C 7127   2.101   4.080   5.286 -0.1982 -0.1418  0.0174
 1781EOH      C 7128   2.082   3.937   5.339  0.1977 -0.0645  0.3734
 1781EOH      H 7129   2.148   4.023   5.112  1.0811  0.1782 -1.2105
 1782EOH      O 7130   1.335   5.808   0.149 -0.5262  0.0836  0.5885
 1782EOH      C 7131   1.419   5.791   0.263 -0.2054  0.0638  0.3510
 1782EOH      C 7132   1.526   5.902   0.272  0.1111 -0.1509 -0.7072
 1782EOH      H 7133   1.263   5.747   0.154 -0.0426 -0.9059 -2.8811
 1783EOH      O 7134   0.093   2.483   1.700 -0.5142 -0.0563 -0.1452
 1783EOH      C 7135   0.197   2.390   1.667  0.2619  0.6471  0.3143
 1783EOH      C 7136   0.208   2.282   1.777  0.6859  0.5678  0.1917
 1783EOH      H 7137   0.011   2.439   1.719  0.0951 -0.8932  0.5798
 1784EOH      O 7138   3.779   7.591   5.155 -0.1166  0.2274 -0.2006
 1784EOH      C 7139   3.851   7.515   5.253  0.2501  0.2422 -0.4587
 1784EOH      C 7140   3.837   7.595   5.384 -0.8502  0.0074 -0.4216
 1784EOH      H 7141   3.699   7.546   5.130  1.6485 -2.3837 -1.4341
 1785EOH      O 7142   6.640   1.733   3.740 -0.0964 -0.2236 -0.2976
 1785EOH      C 7143   6.707   1.774   3.620  0.1671  0.4360  0.0728
 1785EOH      C 7144   6.855   1.736   3.607  0.0260  0.0334 -0.3331
 1785EOH      H 7145   6.568   1.791   3.758 -1.3191 -1.5870 -0.7342
 1786EOH      O 7146   1.737   7.279   4.718 -0.3970  0.4993  0.1148
 1786EOH      C 7147   1.646   7.170   4.697  0.3668 -0.0296 -0.4977
 1786EOH      C 7148   1.730   7.043   4.679  0.0121 -0.3311 -0.0385
 1786EOH      H 7149   1.795   7.255   4.789 -1.0046 -0.7224  0.2234
 1787EOH      O 7150   0.279   2.718   0.711  0.5333 -0.3568  0.2279
 1787EOH      C 7151   0.328   2.792   0.823 -0.2397  0.3328  0.1192
 1787EOH      C 7152   0.250   2.769   0.954  0.5095 -0.1872  0.4776
 1787EOH      H 7153   0.339   2.738   0.641  0.5810 -1.7600 -0.1529
 1788EOH      O 7154   6.238   7.769   2.584  0.1567 -1.0306 -0.9357
 1788EOH      C 7155   6.361   7.809   2.643 -0.2874 -0.3064 -0.4924
 1788EOH      C 7156   6.466   7.696   2.638  0.0563 -0.0593  0.7367
 1788EOH      H 7157   6.245   7.727   2.499 -0.3216 -0.1242 -1.4398
 1789EOH      O 7158   0.857   4.506   0.221  0.9177  0.5038 -0.3045
 1789EOH      C 7159   0.996   4.509   0.188  0.9941 -0.4306 -0.0616
 1789EOH      C 7160   1.011   4.631   0.095  0.6299  0.1410  0.6271
 1789EOH      H 7161   0.813   4.451   0.158 -0.3891  0.1373  0.8995
 1790EOH      O 7162   1.648   2.757   7.661  0.3904  0.6434 -0.7432
 1790EOH      C 7163   1.599   2.844   7.559 -0.2897  0.2628 -0.7451
 1790EOH      C 7164   1.464   2.916   7.577 -0.3345  0.0679 -0.3180
 1790EOH      H 7165   1.740   2.737   7.651  0.8419  3.4152 -2.6725
 1791EOH      O 7166   7.233   1.006   4.243 -0.1127 -0.0660  0.4457
 1791EOH      C 7167   7.236   1.146   4.273  0.0356  0.1546 -0.5871
 1791EOH      C 7168   7.351   1.177   4.371 -0.1449 -0.0815 -0.2993
 1791EOH      H 7169   7.179   0.953   4.300  0.8630 -1.3252  0.2268
 1792EOH      O 7170   4.699   4.017   3.270 -0.1972  0.4879  0.0412
 1792EOH      C 7171   4.630   3.923   3.353  0.0384  0.0147 -0.3016
 1792EOH      C 7172   4.734   3.817   3.393  0.4677  0.5318 -0.0518
 1792EOH      H 7173   4.637   4.032   3.201 -1.7224  1.6383  1.6038
 1793EOH      O 7174   0.617   0.165   3.244 -0.2669  0.2232 -0.0659
 1793EOH      C 7175   0.518   0.062   3.236 -0.0713  0.0025  0.3407
 1793EOH      C 7176   0.396   0.122   3.165  0.3245  0.2964 -0.0913
 1793EOH      H 7177   0.585   0.232   3.302 -2.8471 -0.9392 -0.0689
 1794EOH      O 7178   4.109   5.698   4.357 -0.2672 -0.3891  0.3165
 1794EOH      C 7179   4.196   5.766   4.267 -0.5475  0.5406  0.7428
 1794EOH      C 7180   4.185   5.920   4.278  0.3588  0.6520  0.2008
 1794EOH      H 7181   4.152   5.622   4.392 -1.4592 -1.3204 -0.1764
 1795EOH      O 7182   2.452   2.226   7.761  0.2772  0.4875  0.6922
 1795EOH      C 7183   2.381   2.187   7.878 -0.2154  0.2340  0.3090
 1795EOH      C 7184   2.459   2.246   7.997 -0.0471  0.6827 -0.0236
 1795EOH      H 7185   2.384   2.246   7.699  1.2434 -1.3975 -1.0450
 1796EOH      O 7186   3.313   2.101   0.578 -0.4485 -0.0451  0.3897
 1796EOH      C 7187   3.333   2.088   0.719  0.1222  0.0277  0.3152
 1796EOH      C 7188   3.460   2.001   0.733  0.3489  0.2367 -0.4281
 1796EOH      H 7189   3.244   2.045   0.546 -1.3790  0.7831  0.8841
 1797EOH      O 7190   6.190   7.575   4.417 -0.4594  0.8057  0.2187
 1797EOH      C 7191   6.094   7.490   4.480  0.1354  0.0055  0.0505
 1797EOH      C 7192   6.055   7.526   4.624  0.0051  0.3858 -0.0808
 1797EOH      H 7193   6.241   7.512   4.368 -1.8150  1.3523 -1.9462
 1798EOH      O 7194   0.213   1.567   0.943  0.0583 -0.1242 -0.0200
 1798EOH      C 7195   0.169   1.703   0.931  0.2889 -0.1007 -0.5861
 1798EOH      C 7196   0.036   1.727   0.857 -0.1072  0.0527  0.1761
 1798EOH      H 7197   0.235   1.558   1.034  3.1040  0.9279 -0.5962
 1799EOH      O 7198   0.715   0.852   6.843 -0.1887 -0.3335  0.0703
 1799EOH      C 7199   0.640   0.853   6.721  0.4244  0.7791 -0.2956
 1799EOH      C 7200   0.532   0.961   6.738 -0.3865 -0.0699 -0.0383
 1799EOH      H 7201   0.658   0.825   6.913 -1.2043 -0.0920 -0.6378
 1800EOH      O 7202   3.300   0.148   4.535 -0.4995  0.0818 -0.3940
 1800EOH      C 7203   3.201   0.045   4.543 -0.4977  0.1828  0.9218
 1800EOH      C 7204   3.115   0.055   4.416 -0.0363 -0.8250  0.5243
 1800EOH      H 7205   3.379   0.112   4.497 -1.5430 -0.2178 -2.3441
 1801EOH      O 7206   3.500   4.654   5.395 -0.4299  0.3043  0.2748
 1801EOH      C 7207   3.541   4.565   5.499 -0.1276  0.1711  0.0420
 1801EOH      C 7208   3.651   4.463   5.464 -0.1939  0.0629  0.1520
 1801EOH      H 7209   3.572   4.694   5.348 -1.0329  1.7528  0.5343
 1802EOH      O 7210   3.244   0.832   1.518  0.5160 -0.3042  0.5079
 1802EOH      C 7211   3.222   0.703   1.461  0.5420  0.0746 -0.3584
 1802EOH      C 7212   3.107   0.707   1.359  0.3086 -0.1167 -0.1029
 1802EOH      H 7213   3.203   0.834   1.603  0.2718  1.7727  0.3832
 1803EOH      O 7214   4.151   3.676   4.864 -0.1520 -0.3711 -0.4107
 1803EOH      C 7215   4.152   3.550   4.930 -0.4091 -0.1997 -0.0826
 1803EOH      C 7216   4.198   3.431   4.844 -0.6759 -0.4345  0.0964
 1803EOH      H 7217   4.145   3.743   4.930  1.1711  1.3305 -1.9135
 1804EOH      O 7218   1.350   4.213   4.840  0.1106 -0.3212 -0.1648
 1804EOH      C 7219   1.422   4.103   4.785 -0.0970 -0.5329 -0.0153
 1804EOH      C 7220   1.366   3.962   4.815 -0.4822 -0.4765 -0.4543
 1804EOH      H 7221   1.385   4.241   4.923 -0.8260  1.5835 -0.3946
 1805EOH      O 7222   4.316   4.842   3.926  0.5500 -0.0279  0.5582
 1805EOH      C 7223   4.193   4.769   3.914  0.4991  0.0856  0.3869
 1805EOH      C 7224   4.072   4.834   3.984  0.0379  0.2723 -0.5680
 1805EOH      H 7225   4.383   4.788   3.886  0.2791 -0.5498  0.8020
 1806EOH      O 7226   3.231   1.921   0.229  0.1512 -0.3325 -0.2810
 1806EOH      C 7227   3.158   1.895   0.109  0.1259 -0.3232 -0.2676
 1806EOH      C 7228   3.047   1.794   0.140 -0.5591  0.6387  0.4642
 1806EOH      H 7229   3.283   1.991   0.193 -0.1243 -0.7578 -1.5248
 1807EOH      O 7230   3.486   4.800   2.433 -0.1164  0.0000  0.3279
 1807EOH      C 7231   3.597   4.770   2.348 -0.2902 -0.2868  0.2053
 1807EOH      C 7232   3.607   4.617   2.333  0.3221 -0.2323  0.0374
 1807EOH      H 7233   3.513   4.835   2.517 -0.2732 -0.4153  0.5534
 1808EOH      O 7234   5.208   4.818   4.399 -0.5013  0.3433  0.3831
 1808EOH      C 7235   5.147   4.689   4.387  0.1383  0.0055  0.6768
 1808EOH      C 7236   4.997   4.715   4.411  0.0908  0.0727  0.3014
 1808EOH      H 7237   5.289   4.806   4.351  0.1706  1.7454  1.1258
 1809EOH      O 7238   1.974   0.710   4.060  0.1292 -0.1558  0.2843
 1809EOH      C 7239   1.917   0.599   3.989  0.2704 -0.3609  0.4905
 1809EOH      C 7240   2.017   0.561   3.878  0.1353  0.1788  0.1821
 1809EOH      H 7241   1.911   0.755   4.114 -1.7861 -0.2858 -1.7788
 1810EOH      O 7242   2.790   7.291   3.152  0.6141  0.2020  0.3629
 1810EOH      C 7243   2.794   7.150   3.176 -0.0227  0.0394 -0.4801
 1810EOH      C 7244   2.690   7.064   3.101 -0.0137 -0.1122 -0.3166
 1810EOH      H 7245   2.840   7.310   3.075 -4.6512  3.5284 -2.5330
 1811EOH      O 7246   7.096   2.076   2.128 -0.2493  0.3860 -0.5031
 1811EOH      C 7247   6.975   2.042   2.195  0.2953 -0.0083  0.2917
 1811EOH      C 7248   6.990   1.971   2.331 -0.1973 -0.3008  0.1940
 1811EOH      H 7249   7.166   2.041   2.182 -0.8209  1.9344  1.3069
 1812EOH      O 7250   3.195   4.864   1.063  0.1162  0.4431 -0.4638
 1812EOH      C 7251   3.292   4.764   1.096 -0.1173  0.1531 -0.6530
 1812EOH      C 7252   3.285   4.738   1.248 -0.3626  0.4584 -0.6128
 1812EOH      H 7253   3.211   4.894   0.975  1.0526  0.5649 -0.2620
 1813EOH      O 7254   2.580   3.392   1.683  0.3556 -0.0015 -0.0923
 1813EOH      C 7255   2.533   3.288   1.770 -0.2936  0.3405 -0.0312
 1813EOH      C 7256   2.380   3.297   1.784 -0.3855 -0.3538 -0.5123
 1813EOH      H 7257   2.674   3.384   1.679  0.2656 -0.3302 -1.9190
 1814EOH      O 7258   3.327   2.433   5.309 -0.2440  0.1243  0.0429
 1814EOH      C 7259   3.407   2.441   5.190  0.3228  0.8760  0.4742
 1814EOH      C 7260   3.302   2.443   5.078  0.2026  0.5642  0.5823
 1814EOH      H 7261   3.378   2.405   5.384 -0.2028  0.1384  0.0200
 1815EOH      O 7262   4.751   3.276   6.620 -0.1371  0.0236 -0.5266
 1815EOH      C 7263   4.649   3.367   6.660 -0.1776 -0.1180 -0.3042
 1815EOH      C 7264   4.628   3.324   6.806 -0.2892 -0.4933 -0.4303
 1815EOH      H 7265   4.770   3.277   6.527  0.8522  0.5170 -0.3309
 1816EOH      O 7266   1.193   0.276   6.093 -0.0175  0.1446  0.5147
 1816EOH      C 7267   1.124   0.357   5.997  0.2614  0.0487  0.2333
 1816EOH      C 7268   1.184   0.496   5.973 -0.3959  0.3323  0.2472
 1816EOH      H 7269   1.256   0.230   6.039 -0.8957 -1.4763  0.8278
 1817EOH      O 7270   2.742   3.004   2.739  0.0733 -0.0766 -0.1805
 1817EOH      C 7271   2.873   2.947   2.728 -0.0286 -0.3070 -0.2091
 1817EOH      C 7272   2.928   2.986   2.590  0.7895 -0.1276  0.1632
 1817EOH      H 7273   2.745   3.098   2.735 -1.1543 -0.0327 -0.3426
 1818EOH      O 7274   0.698   4.367   0.052  0.2810 -0.2171  0.0152
 1818EOH      C 7275   0.574   4.297   0.040  0.0845  0.1095  0.1440
 1818EOH      C 7276   0.455   4.389   0.073 -0.1474 -0.2688  0.3656
 1818EOH      H 7277   0.763   4.309   0.014 -0.6343 -0.2631 -1.5015
 1819EOH      O 7278   4.479   6.683   3.741  0.4075 -0.2623 -0.6224
 1819EOH      C 7279   4.516   6.818   3.711 -0.4789  0.1951  0.2968
 1819EOH      C 7280   4.669   6.838   3.710 -0.4655  0.0881  0.1568
 1819EOH      H 7281   4.399   6.667   3.692  0.1968 -1.1580 -0.0051
 1820EOH      O 7282   1.749   5.661   0.427 -0.2910  0.2343  0.1864
 1820EOH      C 7283   1.724   5.527   0.384  0.0255  0.3391 -0.3161
 1820EOH      C 7284   1.760   5.513   0.234 -0.3294  0.0122 -0.3697
 1820EOH      H 7285   1.810   5.652   0.499  0.7673  0.3253 -0.6955
 1821EOH      O 7286   3.444   1.310   7.325 -0.3104  0.3881  0.5909
 1821EOH      C 7287   3.415   1.284   7.187  0.1308  0.1941  0.5346
 1821EOH      C 7288   3.546   1.246   7.116  0.0664 -0.0986  0.5754
 1821EOH      H 7289   3.472   1.229   7.365  0.3824 -0.0217 -0.6907
 1822EOH      O 7290   4.375   3.664   6.211  0.1245 -0.3059 -0.4325
 1822EOH      C 7291   4.499   3.651   6.281 -0.2550  0.0612  0.3030
 1822EOH      C 7292   4.478   3.534   6.379 -0.0046 -0.1472  0.1085
 1822EOH      H 7293   4.393   3.717   6.134 -0.5225  1.1099  0.3848
 1823EOH      O 7294   1.584   2.840   1.498  0.2136 -0.3053 -0.1675
 1823EOH      C 7295   1.602   2.715   1.431 -0.1404 -0.4969  0.0937
 1823EOH      C 7296   1.465   2.654   1.397 -0.4028  0.1147  0.0558
 1823EOH      H 7297   1.542   2.827   1.582 -1.7566  2.9667 -0.5579
 1824EOH      O 7298   1.086   7.560   2.847  0.4015 -0.3218 -0.0713
 1824EOH      C 7299   1.027   7.567   2.717 -0.1344 -0.1986  0.1741
 1824EOH      C 7300   1.113   7.493   2.612 -0.1871 -0.4267  0.2938
 1824EOH      H 7301   1.035   7.622   2.897 -0.4786  0.2289 -1.6256
 1825EOH      O 7302   3.433   0.218   4.756 -0.4658  0.0446  0.6032
 1825EOH      C 7303   3.488   0.348   4.738 -0.2679 -0.1214 -0.0102
 1825EOH      C 7304   3.625   0.338   4.668 -0.3007  0.1448 -0.1130
 1825EOH      H 7305   3.381   0.200   4.679  1.6174 -0.1071 -0.7839
 1826EOH      O 7306   2.249   0.452   0.830  0.2103  0.1664 -0.0605
 1826EOH      C 7307   2.223   0.513   0.956 -0.4347  0.2397 -0.2286
 1826EOH      C 7308   2.186   0.659   0.926 -0.8825  0.0951 -0.3806
 1826EOH      H 7309   2.336   0.481   0.808  0.0313  0.0124 -0.9928
 1827EOH      O 7310   1.470   1.715   1.728 -0.0874  0.3684 -0.0846
 1827EOH      C 7311   1.387   1.805   1.654  0.0780  0.2306 -0.4387
 1827EOH      C 7312   1.309   1.901   1.745  0.4681 -0.3749  0.5395
 1827EOH      H 7313   1.496   1.649   1.664 -0.5601 -0.3387  0.4458
 1828EOH      O 7314   4.164   5.306   5.091  0.3007 -0.1728  0.5383
 1828EOH      C 7315   4.179   5.256   4.958  0.2998 -0.1726  0.5379
 1828EOH      C 7316   4.106   5.352   4.861  0.7127 -0.6623 -0.2629
 1828EOH      H 7317   4.204   5.235   5.139 -0.0194 -0.4245  0.4353
 1829EOH      O 7318   1.815   3.906   1.286 -0.3158  0.1959 -0.1889
 1829EOH      C 7319   1.710   4.004   1.285 -0.3047  0.2143  0.2643
 1829EOH      C 7320   1.759   4.121   1.198 -0.3954  0.6725  0.8292
 1829EOH      H 7321   1.820   3.864   1.201  2.3389  1.7313 -0.8484
 1830EOH      O 7322   1.338   0.278   4.992 -0.1627 -0.1631  0.1036
 1830EOH      C 7323   1.410   0.159   4.959 -0.6123 -0.1927 -0.7765
 1830EOH      C 7324   1.508   0.192   4.844  0.5185  0.2212  0.2931
 1830EOH      H 7325   1.280   0.293   4.919 -0.2367  0.5287  0.3023
 1831EOH      O 7326   1.369   7.362   7.154  0.5070 -0.4812  0.3036
 1831EOH      C 7327   1.235   7.374   7.203  0.4843  0.1546  0.0849
 1831EOH      C 7328   1.179   7.512   7.164  0.6085  0.1658 -0.0575
 1831EOH      H 7329   1.367   7.352   7.060 -0.9840 -1.6957  0.4341
 1832EOH      O 7330   0.730   6.147   2.040 -0.1417  0.4818  0.6747
 1832EOH      C 7331   0.775   6.189   1.911 -0.1439  0.0426  0.5317
 1832EOH      C 7332   0.691   6.313   1.877  0.5933  0.1629 -0.9082
 1832EOH      H 7333   0.727   6.054   2.024  2.8644  0.3149  0.8078
 1833EOH      O 7334   2.748   7.116   0.605 -0.5724  0.0780 -0.0145
 1833EOH      C 7335   2.782   7.085   0.470 -0.1155  0.1336  0.0882
 1833EOH      C 7336   2.756   7.207   0.379  0.4416 -0.1262 -0.4257
 1833EOH      H 7337   2.796   7.191   0.635  1.1159 -0.6786 -0.7382
 1834EOH      O 7338   2.193   6.638   0.069  0.0637 -0.3323  0.2825
 1834EOH      C 7339   2.077   6.586   0.004  0.0521  0.1175 -0.0620
 1834EOH      C 7340   2.050   6.454   0.079 -0.3296  0.0771 -0.2736
 1834EOH      H 7341   2.249   6.679   0.004  0.8399  1.0902  1.8175
 1835EOH      O 7342   2.866   1.329   2.462 -0.3074  0.1336 -0.1276
 1835EOH      C 7343   2.905   1.216   2.541 -1.0557 -0.2475 -0.2958
 1835EOH      C 7344   2.920   1.088   2.458  0.1184 -0.3399  0.0440
 1835EOH      H 7345   2.914   1.337   2.381 -0.0499 -3.5594 -0.4229
 1836EOH      O 7346   0.110   1.081   3.989 -0.5523 -0.4972  0.4244
 1836EOH      C 7347   0.219   0.990   4.010 -0.1494 -0.1584 -0.1909
 1836EOH      C 7348   0.221   0.885   3.896 -0.5167  0.3735 -0.6907
 1836EOH      H 7349   0.105   1.145   4.058  0.8167  0.5934 -0.4451
 1837EOH      O 7350   3.391   0.090   4.968 -0.2591 -0.0535  0.4208
 1837EOH      C 7351   3.430  -0.047   4.976  0.0248 -0.0263 -0.5096
 1837EOH      C 7352   3.360  -0.119   5.093 -0.0343  0.8151 -0.0231
 1837EOH      H 7353   3.419   0.130   4.887  0.6476 -0.0237  0.7418
 1838EOH      O 7354   2.891   6.939   6.441 -0.0373 -0.0043 -0.2791
 1838EOH      C 7355   2.973   6.923   6.557 -0.1417  0.0523 -0.1966
 1838EOH      C 7356   2.928   6.815   6.656 -0.0141  0.4191  0.2656
 1838EOH      H 7357   2.947   6.985   6.380 -2.7490  3.0424 -0.5973
 1839EOH      O 7358   4.457   4.254   6.777  0.1919 -0.2064  0.3275
 1839EOH      C 7359   4.380   4.370   6.811 -0.0300 -0.1533 -0.3541
 1839EOH      C 7360   4.475   4.489   6.832 -0.6204  0.2298  0.1606
 1839EOH      H 7361   4.401   4.179   6.784 -0.0127 -0.1472 -0.6146
 1840EOH      O 7362   1.508   3.409   2.015  0.0839 -0.4506 -0.3659
 1840EOH      C 7363   1.472   3.297   2.097  0.0679 -0.0489  0.1749
 1840EOH      C 7364   1.584   3.280   2.201 -0.3333  0.0391  0.6254
 1840EOH      H 7365   1.459   3.396   1.935  2.4164 -0.5267 -1.8143
 1841EOH      O 7366   4.375   3.270   4.050  0.3536  0.0410  0.1107
 1841EOH      C 7367   4.440   3.386   3.997 -0.0537 -0.0700 -0.6399
 1841EOH      C 7368   4.590   3.361   4.022 -0.0848 -0.2765 -0.6564
 1841EOH      H 7369   4.403   3.247   4.137 -0.3629 -1.4718 -0.0278
 1842EOH      O 7370   5.389   2.464   3.995  0.4086 -1.0789  0.2452
 1842EOH      C 7371   5.301   2.430   3.887 -0.0821  0.3461  0.1882
 1842EOH      C 7372   5.336   2.533   3.778  0.1822 -0.2477 -0.2948
 1842EOH      H 7373   5.475   2.467   3.956  0.3341 -2.0538 -0.0215
 1843EOH      O 7374   1.116   1.160   4.289  0.1676 -0.1069 -0.1460
 1843EOH      C 7375   1.072   1.229   4.407  0.4697 -0.1169 -0.0274
 1843EOH      C 7376   1.130   1.147   4.523  0.2990  0.3083  0.3594
 1843EOH      H 7377   1.050   1.177   4.224  0.2352  0.0073 -0.1836
 1844EOH      O 7378   4.474   5.089   6.224 -0.6895  0.1188  0.3627
 1844EOH      C 7379   4.552   5.177   6.305  0.1341 -0.1814 -0.0873
 1844EOH      C 7380   4.541   5.143   6.455 -0.5863  0.4322  0.0020
 1844EOH      H 7381   4.488   5.004   6.263 -1.3932 -0.3616 -0.4095
 1845EOH      O 7382   3.108   4.571   4.565  0.2455 -0.3442  0.2443
 1845EOH      C 7383   2.989   4.588   4.642  0.0535  0.2096 -0.1746
 1845EOH      C 7384   3.025   4.661   4.773 -0.2924 -0.4433  0.2901
 1845EOH      H 7385   3.157   4.500   4.605  1.0634  0.4553  0.6941
 1846EOH      O 7386   6.229   1.499   2.713  0.2755 -0.2762  0.0063
 1846EOH      C 7387   6.314   1.531   2.823 -0.1073  0.1135  0.1927
 1846EOH      C 7388   6.319   1.413   2.922  0.4778 -0.1205 -0.1082
 1846EOH      H 7389   6.199   1.578   2.671  1.2490  0.1025  0.0122
 1847EOH      O 7390   2.433   4.856   0.379 -0.1599 -0.1315 -0.1230
 1847EOH      C 7391   2.341   4.947   0.439  0.2444  0.2614 -0.1048
 1847EOH      C 7392   2.405   4.978   0.576 -0.3220 -0.1900  0.2637
 1847EOH      H 7393   2.406   4.774   0.418 -0.8578  0.7573  1.2936
 1848EOH      O 7394   2.263   2.650   3.805  0.4624 -0.6116 -0.0757
 1848EOH      C 7395   2.220   2.784   3.780 -0.0878 -0.7181  0.2898
 1848EOH      C 7396   2.140   2.805   3.650  0.4934 -0.2009  0.0119
 1848EOH      H 7397   2.248   2.632   3.896 -0.3827 -2.8990 -0.6530
 1849EOH      O 7398   4.522   4.580   5.831  0.0670  0.2413 -0.3767
 1849EOH      C 7399   4.541   4.717   5.867 -0.2258  0.2697 -0.3318
 1849EOH      C 7400   4.691   4.738   5.896 -0.3584  0.4752  0.2322
 1849EOH      H 7401   4.466   4.538   5.894 -1.1025 -1.1260 -2.2727
 1850EOH      O 7402   7.845   1.124   2.633 -0.1589  0.4589 -0.2152
 1850EOH      C 7403   7.785   1.008   2.577  0.1282  0.2994 -0.1920
 1850EOH      C 7404   7.699   1.048   2.456 -0.3460  0.2950  0.1397
 1850EOH      H 7405   7.929   1.137   2.590  0.1220  1.2053  0.5355
 1851EOH      O 7406   2.625   5.225   5.509  0.3184  0.1990  0.1954
 1851EOH      C 7407   2.556   5.325   5.584  0.2556  0.2158  0.1145
 1851EOH      C 7408   2.404   5.316   5.559  0.2735  0.1445  0.0322
 1851EOH      H 7409   2.564   5.157   5.486  1.1100 -0.2185 -0.6816
 1852EOH      O 7410   2.617   7.040   0.795  0.1290 -0.0050 -0.3088
 1852EOH      C 7411   2.623   6.897   0.807  0.3557 -0.0075 -0.4685
 1852EOH      C 7412   2.547   6.840   0.928  0.0977  0.6227 -0.3290
 1852EOH      H 7413   2.658   7.049   0.711  0.1797  2.3323 -0.0645
 1853EOH      O 7414   1.438   6.607   4.394  0.1231 -0.3077 -0.0486
 1853EOH      C 7415   1.529   6.702   4.451  0.1971 -0.3620 -0.0767
 1853EOH      C 7416   1.634   6.724   4.340  0.4899 -0.5286  0.1640
 1853EOH      H 7417   1.488   6.528   4.378 -0.1548 -0.5532  0.2964
 1854EOH      O 7418   1.759   2.058   2.618  0.2170 -0.4543  0.2388
 1854EOH      C 7419   1.887   2.115   2.589 -0.1711  0.1311 -0.3376
 1854EOH      C 7420   1.978   2.003   2.537 -0.1708 -0.2704  0.5088
 1854EOH      H 7421   1.705   2.119   2.664 -0.0088 -1.5114  1.4044
 1855EOH      O 7422   2.979   0.872   0.215  0.1471  0.0253  0.5843
 1855EOH      C 7423   2.850   0.844   0.158  0.2429  0.1728  0.2967
 1855EOH      C 7424   2.747   0.827   0.270 -0.2993  0.4092 -0.1627
 1855EOH      H 7425   3.034   0.815   0.164  0.6905  0.9470  0.1176
 1856EOH      O 7426   0.233   0.167   6.495  0.6349  0.6905 -0.3173
 1856EOH      C 7427   0.206   0.266   6.593 -0.0123 -0.2521  0.4652
 1856EOH      C 7428   0.285   0.397   6.578 -0.2075 -0.2089 -0.1713
 1856EOH      H 7429   0.326   0.164   6.478  0.9727  2.6644  1.0717
 1857EOH      O 7430   2.174   3.278   4.119 -0.3972 -0.0792 -0.2465
 1857EOH      C 7431   2.233   3.150   4.141  0.0481  0.1985  0.1979
 1857EOH      C 7432   2.133   3.035   4.160  0.2950 -0.1467 -0.5828
 1857EOH      H 7433   2.214   3.335   4.184 -0.1575  0.8699 -1.2116
 1858EOH      O 7434   1.662   7.606   5.220  0.3367 -0.4731 -0.0393
 1858EOH      C 7435   1.642   7.602   5.361  0.1301  0.6020 -0.0349
 1858EOH      C 7436   1.765   7.529   5.419 -0.1385 -0.0454 -0.2769
 1858EOH      H 7437   1.628   7.525   5.184  0.4148  0.0268 -1.2727
 1859EOH      O 7438   1.741   5.530   0.751  0.3239  0.1578  0.2063
 1859EOH      C 7439   1.745   5.403   0.817 -0.0106  0.1256  0.1658
 1859EOH      C 7440   1.797   5.292   0.725  0.0289  0.4063 -0.1496
 1859EOH      H 7441   1.823   5.546   0.708 -0.2298 -1.2883 -1.4409
 1860EOH      O 7442   0.784   3.687   7.436 -0.4967 -0.4284  0.6760
 1860EOH      C 7443   0.760   3.636   7.304  0.1456 -0.0597  0.4147
 1860EOH      C 7444   0.646   3.714   7.237  0.2048 -0.1288  0.2342
 1860EOH      H 7445   0.868   3.731   7.437 -0.8348  0.2809 -0.4512
 1861EOH      O 7446   0.097   1.396   0.121 -0.3255 -0.2391 -0.1521
 1861EOH      C 7447  -0.027   1.361   0.184 -0.0265  0.2083  0.7007
 1861EOH      C 7448  -0.010   1.213   0.225  0.0350  0.0734  0.2007
 1861EOH      H 7449   0.117   1.478   0.164 -0.3209 -0.3332  0.0270
 1862EOH      O 7450   1.440   5.318   1.757  0.0150 -0.2356  0.2748
 1862EOH      C 7451   1.335   5.342   1.851 -0.1858  0.7254 -0.1880
 1862EOH      C 7452   1.357   5.296   1.996 -0.6728 -0.6243 -0.5347
 1862EOH      H 7453   1.470   5.229   1.771 -1.3700 -0.7056  0.3049
 1863EOH      O 7454   3.543   6.220   5.979 -0.7905 -0.1396  0.1522
 1863EOH      C 7455   3.544   6.214   6.122  0.2304  0.4816  0.1739
 1863EOH      C 7456   3.632   6.094   6.159 -0.1606 -0.0069 -0.4838
 1863EOH      H 7457   3.456   6.209   5.945 -2.0338  2.1245  2.4122
 1864EOH      O 7458   2.848   0.638   7.108  0.0182  0.0525 -0.2286
 1864EOH      C 7459   2.983   0.638   7.063  0.1452  0.2186  0.1522
 1864EOH      C 7460   2.963   0.652   6.911  0.6812  0.1351  0.0724
 1864EOH      H 7461   2.838   0.730   7.126  1.1279  0.2768 -0.7627
 1865EOH      O 7462   2.101   3.840   5.674  0.9435 -0.6093 -0.5433
 1865EOH      C 7463   2.217   3.906   5.725  0.3673 -0.1772  0.2104
 1865EOH      C 7464   2.347   3.850   5.664 -0.3696 -0.8483 -0.7574
 1865EOH      H 7465   2.117   3.748   5.688  0.3395 -0.8242 -1.2177
 1866EOH      O 7466   3.394   2.337   6.675  0.1443 -0.1893 -0.1135
 1866EOH      C 7467   3.467   2.412   6.773  0.3850 -0.1397 -0.3300
 1866EOH      C 7468   3.559   2.504   6.692  0.0389  0.3934 -0.1177
 1866EOH      H 7469   3.306   2.317   6.700 -0.1491 -0.0474 -1.0346
 1867EOH      O 7470   2.386   6.007   7.572 -0.4541 -0.1529  0.5525
 1867EOH      C 7471   2.272   6.056   7.643 -0.4788  0.2895  0.2097
 1867EOH      C 7472   2.288   6.029   7.794 -0.0553 -0.3898  0.0421
 1867EOH      H 7473   2.395   6.058   7.493 -2.7876  2.2040  1.7148
 1868EOH      O 7474   6.838   1.654   5.183  0.1420 -0.2785  0.4807
 1868EOH      C 7475   6.715   1.723   5.202  0.1097 -0.1970 -0.0097
 1868EOH      C 7476   6.619   1.634   5.283  0.1292  0.0106  0.2464
 1868EOH      H 7477   6.851   1.597   5.257 -0.8657  0.5370  1.2834
 1869EOH      O 7478   1.173   0.292   4.546  0.0241 -0.2648  0.0357
 1869EOH      C 7479   1.261   0.245   4.443  0.4614  0.1822  0.2042
 1869EOH      C 7480   1.317   0.108   4.484  0.2162  0.1037  0.2772
 1869EOH      H 7481   1.153   0.381   4.523  1.0641  0.4083  1.6792
 1870EOH      O 7482   0.306   2.328   0.846  0.2000 -0.2523 -0.1150
 1870EOH      C 7483   0.330   2.189   0.818  0.2002 -0.2376 -0.1878
 1870EOH      C 7484   0.403   2.178   0.682 -0.0221  0.4321 -0.3651
 1870EOH      H 7485   0.251   2.364   0.779 -0.3433 -1.3117 -0.2553
 1871EOH      O 7486   3.102   7.057   5.053 -0.0023 -0.5005 -0.3481
 1871EOH      C 7487   3.193   7.109   4.955  0.2095  0.2996  0.2741
 1871EOH      C 7488   3.333   7.044   4.943  0.1245  0.1769 -0.0586
 1871EOH      H 7489   3.104   6.963   5.044  2.2292 -0.4722 -0.3532
 1872EOH      O 7490   4.274   3.513   3.564  0.1016 -0.0188 -0.0098
 1872EOH      C 7491   4.293   3.650   3.600  0.6351  0.0407 -0.4957
 1872EOH      C 7492   4.438   3.681   3.641  0.4040  0.7201 -0.1786
 1872EOH      H 7493   4.186   3.501   3.595 -0.1946  1.6248 -0.1570
 1873EOH      O 7494   4.880   7.395   3.776 -0.3490 -0.0124 -0.0191
 1873EOH      C 7495   4.991   7.334   3.843 -0.7506 -0.0081  0.6532
 1873EOH      C 7496   4.999   7.185   3.805  0.5108  0.2064  0.0422
 1873EOH      H 7497   4.808   7.381   3.835  0.0448 -1.2705  0.1683
 1874EOH      O 7498   1.240   0.286   7.122 -0.1787 -0.4731  0.4381
 1874EOH      C 7499   1.354   0.265   7.206  0.2257 -0.5555 -0.1229
 1874EOH      C 7500   1.311   0.226   7.349  0.3389  0.4166  0.1786
 1874EOH      H 7501   1.240   0.377   7.096 -0.2172 -0.9944 -1.4554
 1875EOH      O 7502   1.841   7.059   4.200 -0.2415 -0.6097  0.5202
 1875EOH      C 7503   1.715   7.111   4.242 -0.1154  0.0005  0.1486
 1875EOH      C 7504   1.614   7.086   4.128  0.5484 -0.2226 -0.3964
 1875EOH      H 7505   1.853   6.965   4.197  0.6127 -0.4772 -0.8082
 1876EOH      O 7506   2.712   1.280   0.162  0.4478 -0.3232 -0.1107
 1876EOH      C 7507   2.842   1.267   0.220  0.5934  0.2231 -0.3081
 1876EOH      C 7508   2.904   1.408   0.221  0.4286  0.2951 -0.3356
 1876EOH      H 7509   2.724   1.308   0.072  1.2320 -0.8786 -0.1873
 1877EOH      O 7510   4.001   4.713   2.785  1.1435 -0.1128  0.0595
 1877EOH      C 7511   4.037   4.846   2.822  0.6833  0.2872 -0.9265
 1877EOH      C 7512   3.999   4.928   2.697  0.1945  0.0106 -0.9618
 1877EOH      H 7513   4.010   4.654   2.859  0.7379 -0.4741 -0.1755
 1878EOH      O 7514   1.953   3.327   7.424 -0.3944 -0.0928  0.6256
 1878EOH      C 7515   1.884   3.450   7.447 -0.0311  0.2301 -0.0004
 1878EOH      C 7516   1.741   3.409   7.488 -0.3037  0.5968 -0.5740
 1878EOH      H 7517   2.042   3.357   7.413  0.2003 -1.7523  0.6759
 1879EOH      O 7518   1.960   5.207   1.952  0.3480  0.2975 -0.3094
 1879EOH      C 7519   1.863   5.115   2.002  0.2337  0.3587 -0.4175
 1879EOH      C 7520   1.730   5.194   2.003  0.1452  0.2069  0.3188
 1879EOH      H 7521   2.041   5.159   1.952 -0.9171 -1.8834 -0.6734
 1880EOH      O 7522   4.122   7.471   4.942  0.5093 -0.2378  0.0384
 1880EOH      C 7523   4.263   7.465   4.920  0.6402  0.3808  0.6683
 1880EOH      C 7524   4.325   7.606   4.910  0.0361  0.6367  0.5026
 1880EOH      H 7525   4.081   7.533   4.884 -0.9444 -0.1887  1.0728
 1881EOH      O 7526   2.851   0.091   3.936 -0.2942 -0.5164  0.1872
 1881EOH      C 7527   2.838   0.192   4.036 -0.2262  0.1981 -0.5214
 1881EOH      C 7528   2.817   0.333   3.977  0.2603  0.3266 -0.3936
 1881EOH      H 7529   2.847   0.006   3.976  1.6163  0.6093  2.9433
 1882EOH      O 7530   2.860   5.579   1.951  0.4842  0.0489  0.0068
 1882EOH      C 7531   2.738   5.576   2.027  0.3073 -0.0260 -0.2782
 1882EOH      C 7532   2.693   5.431   2.004  0.0045 -0.0580  0.5144
 1882EOH      H 7533   2.860   5.508   1.888 -3.1852 -0.0346 -0.0019
 1883EOH      O 7534   3.517   0.067   4.428 -0.3219 -0.3769  0.1776
 1883EOH      C 7535   3.600  -0.035   4.484  0.1526 -0.0219  0.1218
 1883EOH      C 7536   3.753  -0.020   4.471  0.2150 -0.3409  0.4809
 1883EOH      H 7537   3.546   0.091   4.341 -1.2212  1.1801  0.2802
 1884EOH      O 7538   0.567   6.459   1.136 -0.2701 -0.0235 -0.1975
 1884EOH      C 7539   0.639   6.370   1.050 -0.0097  0.0382 -0.0447
 1884EOH      C 7540   0.630   6.228   1.107  0.1534 -0.0268 -0.1808
 1884EOH      H 7541   0.475   6.446   1.119  0.1973 -0.9864 -2.0686
 1885EOH      O 7542   7.646   1.686   4.509  0.2004  0.1974 -0.6195
 1885EOH      C 7543   7.548   1.701   4.406 -0.3573 -0.0333 -0.1288
 1885EOH      C 7544   7.636   1.767   4.298 -0.3681  0.6487  0.2789
 1885EOH      H 7545   7.607   1.705   4.593  0.2849 -2.1842 -0.0129
 1886EOH      O 7546   2.245   2.574   4.043  0.2521  0.6281  0.3242
 1886EOH      C 7547   2.135   2.591   4.134 -0.0422 -0.3353  0.1557
 1886EOH      C 7548   2.028   2.497   4.077 -0.1346 -0.3148  0.2973
 1886EOH      H 7549   2.310   2.532   4.097  1.0597 -0.1794 -1.2702
 1887EOH      O 7550   7.589   7.245   3.687 -0.1840  0.0865 -0.1404
 1887EOH      C 7551   7.690   7.331   3.740 -0.0215 -0.1110 -0.1298
 1887EOH      C 7552   7.649   7.403   3.869 -0.0668 -0.1121 -0.1433
 1887EOH      H 7553   7.538   7.198   3.751 -0.5022 -0.7312 -0.9756
 1888EOH      O 7554   2.883   3.368   3.162 -0.1018  0.5326  0.0644
 1888EOH      C 7555   2.932   3.275   3.259 -0.1756  0.4075 -0.0202
 1888EOH      C 7556   2.986   3.160   3.172  0.3025  0.6136  0.0060
 1888EOH      H 7557   2.861   3.452   3.200  0.3011  0.2243  0.9963
 1889EOH      O 7558   2.474   2.176   0.525 -0.0802 -0.3038 -0.1672
 1889EOH      C 7559   2.606   2.171   0.470  0.1965 -0.6485  0.5223
 1889EOH      C 7560   2.624   2.048   0.379  0.1843 -0.4433  0.2425
 1889EOH      H 7561   2.475   2.112   0.594 -1.7485  1.7151  1.7982
 1890EOH      O 7562   4.547   6.565   4.913  0.1187 -0.1590 -0.1880
 1890EOH      C 7563   4.453   6.656   4.855 -0.1212 -0.2075  0.1195
 1890EOH      C 7564   4.524   6.755   4.761 -0.7508  0.2819  0.1576
 1890EOH      H 7565   4.503   6.507   4.974  0.1568  0.9815  0.9353
 1891EOH      O 7566   4.970   6.833   4.847 -0.4789 -0.4646 -0.0907
 1891EOH      C 7567   5.061   6.819   4.957 -0.1234  0.1404 -0.3074
 1891EOH      C 7568   5.196   6.870   4.903 -0.0471  0.1888 -0.0719
 1891EOH      H 7569   4.906   6.763   4.850 -0.4638 -0.5247 -1.2585
 1892EOH      O 7570   0.140   1.342   7.206  0.4787  0.2687 -0.1864
 1892EOH      C 7571   0.071   1.398   7.318  0.9300  0.8423 -0.1915
 1892EOH      C 7572  -0.054   1.471   7.266  0.1603 -0.0385  0.4174
 1892EOH      H 7573   0.158   1.418   7.152  0.5669 -0.6205 -1.4268
 1893EOH      O 7574   6.637   0.163   3.741  0.1122 -0.0933 -0.3731
 1893EOH      C 7575   6.558   0.257   3.668  0.3688  0.3045 -0.1345
 1893EOH      C 7576   6.520   0.370   3.767  0.0185  0.1930 -0.1416
 1893EOH      H 7577   6.580   0.102   3.786 -0.0426 -0.9595 -1.7103
 1894EOH      O 7578   2.819   1.185   6.905 -0.1513 -0.0269 -0.4818
 1894EOH      C 7579   2.838   1.058   6.842 -0.1353 -0.0526 -0.4255
 1894EOH      C 7580   2.721   0.960   6.860 -0.2029  0.1115  0.0283
 1894EOH      H 7581   2.749   1.223   6.855 -1.3324 -2.2128 -0.5630
 1895EOH      O 7582   2.131   2.395   1.317 -0.0608  0.2141 -0.1145
 1895EOH      C 7583   2.096   2.258   1.337 -0.0851  0.2862  0.3536
 1895EOH      C 7584   2.028   2.212   1.467 -0.6943  0.5333  0.1207
 1895EOH      H 7585   2.146   2.400   1.224  1.4918  2.1293  0.2076
 1896EOH      O 7586   4.084   1.311   4.369  0.5033  0.5564 -0.0581
 1896EOH      C 7587   4.074   1.228   4.253  0.4371  0.3636  0.0838
 1896EOH      C 7588   4.206   1.216   4.175  0.0966 -0.5017 -0.3684
 1896EOH      H 7589   4.096   1.402   4.346 -2.0568  1.4005  1.7758
 1897EOH      O 7590   1.107   2.149   7.537 -0.2208  0.0429 -0.3726
 1897EOH      C 7591   0.973   2.167   7.584 -0.3135 -0.5396 -0.4070
 1897EOH      C 7592   0.964   2.110   7.726 -0.1605 -0.1002 -0.2214
 1897EOH      H 7593   1.121   2.061   7.506  1.2386 -0.5822  1.9488
 1898EOH      O 7594   0.541   2.247   7.613  0.4761  0.9527 -0.3679
 1898EOH      C 7595   0.455   2.335   7.686 -0.2032  0.1406 -0.1875
 1898EOH      C 7596   0.527   2.370   7.818  0.1505 -0.7038 -0.1466
 1898EOH      H 7597   0.543   2.165   7.659 -2.1411  1.4608  0.7516
 1899EOH      O 7598   1.016   0.835   5.170  0.2104  0.2619  0.5216
 1899EOH      C 7599   1.113   0.906   5.093 -0.1708  0.1607 -0.0553
 1899EOH      C 7600   1.103   0.861   4.946 -0.1898  0.0755 -0.0277
 1899EOH      H 7601   0.935   0.879   5.148  0.6383  1.0665  0.5195
 1900EOH      O 7602   3.746   2.846   6.911  0.4495 -0.3322 -0.1033
 1900EOH      C 7603   3.842   2.787   6.999  0.1921 -0.0057  0.4025
 1900EOH      C 7604   3.824   2.634   7.005  0.2096 -0.0391 -0.3615
 1900EOH      H 7605   3.765   2.811   6.825  0.1654  0.1128 -0.3461
 1901EOH      O 7606   3.389   0.699   0.120 -0.3042 -0.1144 -0.6795
 1901EOH      C 7607   3.439   0.826   0.077 -0.1051 -0.1473 -0.5450
 1901EOH      C 7608   3.587   0.811   0.119 -0.1677  0.7470  0.0135
 1901EOH      H 7609   3.396   0.711   0.214 -2.2082 -1.2070 -0.3736
 1902EOH      O 7610   0.822   3.372   1.930 -0.1151  0.3183  0.1610
 1902EOH      C 7611   0.806   3.330   2.066 -0.5292  0.7685  0.2533
 1902EOH      C 7612   0.880   3.422   2.165  0.1887  0.2581  0.1877
 1902EOH      H 7613   0.805   3.465   1.925 -0.1569  0.2822 -0.3476
 1903EOH      O 7614   7.711   7.570   3.419  0.4695 -0.4192  0.0244
 1903EOH      C 7615   7.655   7.490   3.314  0.2445 -0.1524 -0.0602
 1903EOH      C 7616   7.501   7.497   3.321  0.2623  0.1040  0.0682
 1903EOH      H 7617   7.804   7.575   3.405  0.7420  0.3595  2.0884
 1904EOH      O 7618   1.511   5.762   5.631  0.0869 -0.4264  0.0076
 1904EOH      C 7619   1.510   5.826   5.503  0.2142 -0.5041 -0.0320
 1904EOH      C 7620   1.368   5.843   5.446  0.1496  0.0657  0.2988
 1904EOH      H 7621   1.524   5.831   5.693  0.5637  0.4681 -1.0720
 1905EOH      O 7622   1.435   4.284   5.081  0.1183 -0.1479 -0.1617
 1905EOH      C 7623   1.449   4.210   5.202  0.1272 -0.4254 -0.3300
 1905EOH      C 7624   1.407   4.062   5.204  0.3186 -0.4733  0.3458
 1905EOH      H 7625   1.430   4.376   5.103 -0.1596 -0.5017  1.2836
 1906EOH      O 7626   3.535   6.372   1.664 -0.3054 -0.0275 -0.4032
 1906EOH      C 7627   3.548   6.341   1.525  0.5366 -0.1414 -0.2987
 1906EOH      C 7628   3.672   6.422   1.482  0.3460  0.3837  0.1390
 1906EOH      H 7629   3.464   6.432   1.676  0.3956  1.1349 -1.9172
 1907EOH      O 7630   2.535   0.057   3.895 -0.3852  0.4853 -0.2871
 1907EOH      C 7631   2.462  -0.008   3.790 -0.0926  0.4284 -0.4581
 1907EOH      C 7632   2.327   0.056   3.753  0.0898  0.8130 -0.4620
 1907EOH      H 7633   2.581   0.132   3.859 -0.8292  0.5356 -0.7582
 1908EOH      O 7634   1.910   3.548   0.250  0.1017  0.5652  0.0994
 1908EOH      C 7635   1.875   3.467   0.362 -0.7037  0.1949 -0.4126
 1908EOH      C 7636   1.914   3.561   0.478  0.0053 -0.6820  0.0647
 1908EOH      H 7637   1.955   3.495   0.186 -2.2201 -0.4731 -0.7369
 1909EOH      O 7638   0.788   7.625   6.090 -0.2237  0.3745 -0.1441
 1909EOH      C 7639   0.818   7.750   6.026  0.4448  0.1473 -0.2728
 1909EOH      C 7640   0.731   7.771   5.901  0.3975 -0.5342 -0.3604
 1909EOH      H 7641   0.848   7.625   6.163  1.0881 -0.2770 -1.2096
 1910EOH      O 7642   4.885   0.158   4.453 -0.3345 -0.2465  0.2849
 1910EOH      C 7643   4.861   0.040   4.376  0.2160 -0.0451 -0.1987
 1910EOH      C 7644   4.980  -0.021   4.298  0.3364 -0.3987  0.2564
 1910EOH      H 7645   4.796   0.190   4.454 -0.5285 -0.7321 -0.6593
 1911EOH      O 7646   1.639   1.724   0.512  0.4151  0.2413  0.1587
 1911EOH      C 7647   1.657   1.582   0.510 -0.5097  0.1279 -0.3333
 1911EOH      C 7648   1.651   1.529   0.365 -0.4591  0.0561 -0.3089
 1911EOH      H 7649   1.685   1.770   0.580 -2.0586  1.7330  0.8928
 1912EOH      O 7650   3.482   5.288   6.244  0.3324  0.2878  0.5551
 1912EOH      C 7651   3.371   5.278   6.333 -0.1006  0.2278  0.0104
 1912EOH      C 7652   3.419   5.282   6.479  0.4895 -0.0678 -0.1788
 1912EOH      H 7653   3.443   5.271   6.160 -0.1614 -0.7075  0.9840
 1913EOH      O 7654   2.128   6.361   2.241 -0.3843  0.5895  0.8630
 1913EOH      C 7655   1.990   6.331   2.265 -0.3634  0.0415  0.2880
 1913EOH      C 7656   1.951   6.317   2.116 -0.0372  0.3437  0.1726
 1913EOH      H 7657   2.160   6.413   2.314 -0.2353  0.0557  1.1774
 1914EOH      O 7658   2.597   3.983   4.168 -0.0032 -0.4092 -0.0048
 1914EOH      C 7659   2.597   4.119   4.124 -0.2822 -0.2523  0.4780
 1914EOH      C 7660   2.743   4.168   4.125 -0.3434 -0.0469 -0.5327
 1914EOH      H 7661   2.667   3.972   4.230 -0.2981 -0.8757  0.2425
 1915EOH      O 7662   3.414   6.078   6.610  0.7846 -0.0404 -0.2378
 1915EOH      C 7663   3.522   6.169   6.635  0.5041  0.2581 -0.1045
 1915EOH      C 7664   3.636   6.126   6.541  0.2563  0.4508 -0.4934
 1915EOH      H 7665   3.382   6.045   6.692 -0.5661  1.1246 -0.2745
 1916EOH      O 7666   0.804   1.462   0.529  0.0448  0.0742 -0.0635
 1916EOH      C 7667   0.757   1.490   0.661  0.3066 -0.3956  0.1305
 1916EOH      C 7668   0.697   1.364   0.726  0.2247 -0.5771 -0.2967
 1916EOH      H 7669   0.770   1.376   0.509 -3.6615  1.3964  0.0339
 1917EOH      O 7670   3.563   4.575   6.030  0.1372  0.1113 -0.0636
 1917EOH      C 7671   3.610   4.573   5.895 -0.2280 -0.3742 -0.1866
 1917EOH      C 7672   3.716   4.464   5.868  0.1950  0.0614 -0.2858
 1917EOH      H 7673   3.520   4.492   6.042 -0.8456  0.7855  1.2770
 1918EOH      O 7674   1.249   0.555   2.650  0.5107 -0.2892  0.3246
 1918EOH      C 7675   1.230   0.667   2.737  0.1375  0.2100 -0.3968
 1918EOH      C 7676   1.082   0.668   2.779  0.3827 -0.6630  0.5052
 1918EOH      H 7677   1.319   0.504   2.688  1.1854  0.6284  0.3112
 1919EOH      O 7678   2.607   2.978   3.702  0.1469 -0.4177 -0.0197
 1919EOH      C 7679   2.666   2.874   3.623  0.1335 -0.1990 -0.3195
 1919EOH      C 7680   2.671   2.906   3.472  0.1525  0.3944 -0.1958
 1919EOH      H 7681   2.661   2.989   3.779  1.3764  0.9974 -1.0486
 1920EOH      O 7682   4.228   1.255   6.856 -0.3739  0.3530  0.6080
 1920EOH      C 7683   4.272   1.166   6.959 -0.0968 -0.0251  0.1656
 1920EOH      C 7684   4.418   1.203   6.990 -0.0271 -0.1656  0.0031
 1920EOH      H 7685   4.133   1.256   6.858 -0.4783  0.3812 -2.5381
 1921EOH      O 7686   2.842   3.659   7.882  0.1056 -0.2648 -0.2257
 1921EOH      C 7687   2.913   3.595   7.776  0.4418  0.5037 -0.4684
 1921EOH      C 7688   2.983   3.704   7.693  0.2947  0.2671 -0.9029
 1921EOH      H 7689   2.907   3.680   7.948  1.4222  0.9113 -1.8675
 1922EOH      O 7690   2.958   1.637   4.656 -0.2771  0.5919 -0.9907
 1922EOH      C 7691   3.034   1.561   4.561  0.6207 -0.1330  0.2879
 1922EOH      C 7692   3.185   1.568   4.587  0.7382  0.1148 -0.4507
 1922EOH      H 7693   2.898   1.574   4.693 -1.1210  1.3505 -1.0593
 1923EOH      O 7694   7.207   6.601   2.943 -0.9296  0.0988  0.5399
 1923EOH      C 7695   7.287   6.720   2.947 -0.3859 -0.2527  0.2128
 1923EOH      C 7696   7.228   6.818   3.050 -0.7690 -0.3201  0.0596
 1923EOH      H 7697   7.184   6.588   2.852  1.2018  1.7400 -0.2722
 1924EOH      O 7698   1.196   0.525   6.998  0.4183 -0.1326 -0.5789
 1924EOH      C 7699   1.204   0.655   7.055  0.4961 -0.2905 -0.2307
 1924EOH      C 7700   1.346   0.714   7.039  0.2388  0.3027 -0.3399
 1924EOH      H 7701   1.190   0.523   6.903 -1.0118  1.3337 -0.5377
 1925EOH      O 7702   4.033   2.209   7.155 -0.4202  0.7848 -0.2344
 1925EOH      C 7703   3.892   2.186   7.165 -0.2161 -0.5127 -0.2533
 1925EOH      C 7704   3.809   2.269   7.066 -0.1814 -0.1309  0.0376
 1925EOH      H 7705   4.058   2.191   7.066 -0.1549  0.1922 -0.0425
 1926EOH      O 7706   2.165   6.455   2.644  0.6642  0.3656  0.5548
 1926EOH      C 7707   2.170   6.332   2.717  0.4884  0.0439  0.0349
 1926EOH      C 7708   2.305   6.265   2.687  0.5341  0.1145  0.0839
 1926EOH      H 7709   2.230   6.436   2.578  0.1136 -1.3256  0.4696
 1927EOH      O 7710   1.885   4.147   5.020 -0.1688 -0.4071 -0.1002
 1927EOH      C 7711   1.882   4.290   5.010  0.2266 -0.3958 -0.0646
 1927EOH      C 7712   1.783   4.325   4.898  0.3846  0.4910  0.0643
 1927EOH      H 7713   1.966   4.129   5.064 -0.5913 -0.4684  0.6514
 1928EOH      O 7714   3.877   1.127   5.679  0.2119 -0.2749 -0.4264
 1928EOH      C 7715   3.808   1.146   5.555  0.2935 -0.0619 -0.4391
 1928EOH      C 7716   3.662   1.190   5.578  0.2050 -0.5055 -0.1488
 1928EOH      H 7717   3.924   1.207   5.696  1.9256 -1.3440 -0.0935
 1929EOH      O 7718   5.045   6.660   3.540  0.1311 -0.4612  1.0287
 1929EOH      C 7719   4.994   6.554   3.459 -0.3922  0.1899  0.5048
 1929EOH      C 7720   4.961   6.436   3.553  0.2568 -0.1714  0.2814
 1929EOH      H 7721   5.075   6.731   3.486  1.1632 -1.1061  0.7480
 1930EOH      O 7722   1.202   2.866   5.955  0.0893  0.2877 -0.0161
 1930EOH      C 7723   1.205   2.963   6.060 -0.5625 -0.2386  0.4946
 1930EOH      C 7724   1.303   2.910   6.166 -0.3292  0.2585  0.5290
 1930EOH      H 7725   1.119   2.881   5.911  0.0032 -1.5347 -0.5215
 1931EOH      O 7726   0.572   5.833   1.883 -0.1446  0.4431  0.2549
 1931EOH      C 7727   0.434   5.871   1.875 -0.3594 -0.3997 -0.0998
 1931EOH      C 7728   0.358   5.798   1.762  0.3318 -0.1171 -0.7515
 1931EOH      H 7729   0.560   5.753   1.932 -1.2796 -0.1377 -0.8977
 1932EOH      O 7730   4.403   3.367   4.349 -0.1311 -0.1854  0.1961
 1932EOH      C 7731   4.521   3.417   4.411  0.1173 -0.3335 -0.1537
 1932EOH      C 7732   4.505   3.558   4.472  0.2381 -0.3610 -0.0561
 1932EOH      H 7733   4.334   3.409   4.398  0.9928 -0.0578  1.6965
 1933EOH      O 7734   2.615   1.281   6.747 -0.8065 -0.0222  0.3686
 1933EOH      C 7735   2.613   1.418   6.705  0.4444  0.0274  0.4639
 1933EOH      C 7736   2.638   1.508   6.827 -0.1945  0.3690  0.3410
 1933EOH      H 7737   2.586   1.229   6.674  0.9926 -1.8661  0.9129
 1934EOH      O 7738   1.447   0.865   7.492 -0.1329 -0.0170  0.5744
 1934EOH      C 7739   1.560   0.802   7.433 -0.6431 -0.4117  0.0119
 1934EOH      C 7740   1.600   0.676   7.513  0.3296  0.1167  0.3711
 1934EOH      H 7741   1.427   0.942   7.441  0.1333 -1.3808 -1.6433
 1935EOH      O 7742   3.118   4.474   6.699 -0.1493 -0.0180  0.6935
 1935EOH      C 7743   3.071   4.583   6.620  0.3799 -0.0784  0.2955
 1935EOH      C 7744   3.145   4.715   6.646  0.0096  0.1978 -0.0390
 1935EOH      H 7745   3.061   4.400   6.680 -0.3290  0.3696 -0.2898
 1936EOH      O 7746   3.041   5.133   0.780  0.0706  0.4284  0.2845
 1936EOH      C 7747   3.030   5.234   0.881 -0.4445  0.5567  0.1039
 1936EOH      C 7748   3.153   5.327   0.871  0.1828 -0.2249  0.4575
 1936EOH      H 7749   3.003   5.170   0.702 -0.5041 -3.4264 -1.3927
 1937EOH      O 7750   1.607   1.848   2.619  0.1989 -0.4147  0.2900
 1937EOH      C 7751   1.670   1.753   2.532 -0.2766 -0.7228  0.2775
 1937EOH      C 7752   1.809   1.717   2.588  0.1135  0.3575  0.0132
 1937EOH      H 7753   1.660   1.925   2.606  1.0274 -0.8167  1.3094
 1938EOH      O 7754   1.740   4.114   5.594  0.4909 -0.4929 -0.6375
 1938EOH      C 7755   1.846   4.192   5.538  0.2314  0.2031 -0.1609
 1938EOH      C 7756   1.821   4.343   5.557  0.5614  0.4055 -1.2970
 1938EOH      H 7757   1.774   4.030   5.619 -1.1890 -1.6244 -1.9730
 1939EOH      O 7758   2.735   1.616   3.148  0.6171 -0.0880  0.5933
 1939EOH      C 7759   2.768   1.517   3.050  0.0435  0.1637  0.1439
 1939EOH      C 7760   2.910   1.541   2.996 -0.0141  0.6664  0.2099
 1939EOH      H 7761   2.762   1.702   3.119  1.2575 -1.4645 -3.0565
 1940EOH      O 7762   5.059   3.292   3.310 -0.4662  0.5995 -0.3522
 1940EOH      C 7763   5.194   3.306   3.266 -0.1375  0.1083  0.4882
 1940EOH      C 7764   5.257   3.431   3.330  0.3999  0.0315  0.1191
 1940EOH      H 7765   5.001   3.355   3.272 -0.4964  2.0622  2.0098
 1941EOH      O 7766   6.722   7.748   2.193  0.0375 -0.2367 -0.1071
 1941EOH      C 7767   6.853   7.740   2.135 -0.1151 -0.4327 -0.4277
 1941EOH      C 7768   6.832   7.773   1.986  1.0328 -0.0563 -0.5087
 1941EOH      H 7769   6.702   7.836   2.220  1.4558 -0.1536  0.7841
 1942EOH      O 7770   4.613   1.663   5.817 -0.1035 -0.0975  0.0645
 1942EOH      C 7771   4.511   1.650   5.716  0.0879 -0.3199 -0.1004
 1942EOH      C 7772   4.474   1.769   5.626  0.2767  0.0222  0.2680
 1942EOH      H 7773   4.691   1.614   5.798  0.3493  0.1456  1.2562
 1943EOH      O 7774   0.450   7.874   5.286 -0.3581 -0.3806 -0.4140
 1943EOH      C 7775   0.561   7.796   5.240  0.0274 -0.2257  0.2366
 1943EOH      C 7776   0.588   7.673   5.328 -0.0721 -0.2213  0.2721
 1943EOH      H 7777   0.422   7.938   5.223 -1.9610  1.5939  2.1843
 1944EOH      O 7778   2.438   3.809   1.799 -0.3454 -0.0672 -0.3491
 1944EOH      C 7779   2.371   3.930   1.763 -0.2526 -0.0056 -0.3163
 1944EOH      C 7780   2.279   3.967   1.881  0.7854  0.7045  0.2695
 1944EOH      H 7781   2.451   3.760   1.719  1.5028  0.2954 -0.2968
 1945EOH      O 7782   1.080   3.445   5.266 -0.2378 -0.2801  0.2346
 1945EOH      C 7783   0.991   3.335   5.245 -0.1911 -0.1734 -0.5444
 1945EOH      C 7784   0.867   3.365   5.332  0.3421  0.1021  0.1180
 1945EOH      H 7785   1.140   3.455   5.193 -0.1943  1.8676  0.5262
 1946EOH      O 7786   3.411   4.621   4.884  0.0213 -0.2334  0.3963
 1946EOH      C 7787   3.505   4.712   4.825 -0.0176 -0.9648 -0.8127
 1946EOH      C 7788   3.452   4.734   4.683  0.3564 -0.3297 -0.8554
 1946EOH      H 7789   3.396   4.637   4.976 -0.0967  1.7061  0.0713
 1947EOH      O 7790   1.303   4.182   2.314  0.3413 -0.3594  0.0195
 1947EOH      C 7791   1.355   4.249   2.199 -0.7060  0.1423 -0.1665
 1947EOH      C 7792   1.441   4.367   2.248  0.0912 -0.2616 -0.5856
 1947EOH      H 7793   1.375   4.137   2.356 -0.8075 -1.6855  0.6304
 1948EOH      O 7794   2.574   7.542   2.717 -0.7603 -0.0059 -0.4147
 1948EOH      C 7795   2.514   7.415   2.745  0.2468 -0.3148  0.3616
 1948EOH      C 7796   2.564   7.309   2.644 -0.4924 -0.1936 -0.1353
 1948EOH      H 7797   2.615   7.583   2.792 -2.4626  0.9711  0.0114
 1949EOH      O 7798   2.554   5.515   4.576  0.1920 -0.0084 -0.2340
 1949EOH      C 7799   2.683   5.563   4.537  0.1512  0.2225 -0.0834
 1949EOH      C 7800   2.730   5.489   4.410 -0.1924  0.1723 -0.1811
 1949EOH      H 7801   2.536   5.553   4.661  1.1862  0.0735 -0.0492
 1950EOH      O 7802   3.733   6.361   1.868  0.0746  0.0679 -0.2837
 1950EOH      C 7803   3.738   6.503   1.855 -0.1190  0.0975 -0.0413
 1950EOH      C 7804   3.881   6.546   1.893  0.0417 -0.2065 -0.3041
 1950EOH      H 7805   3.655   6.333   1.822 -1.6691  1.3045  1.8020
 1951EOH      O 7806   1.908   3.588   1.560  0.3970 -0.0298 -0.2486
 1951EOH      C 7807   2.019   3.578   1.650 -0.1331 -0.4140  0.3661
 1951EOH      C 7808   2.087   3.443   1.621  0.3139 -0.1027 -0.0529
 1951EOH      H 7809   1.890   3.680   1.548  2.1141  0.3525 -0.1502
 1952EOH      O 7810   6.093   1.058   3.477 -0.0284  0.4202 -0.5120
 1952EOH      C 7811   6.153   1.145   3.573  0.2088 -0.5161  0.1853
 1952EOH      C 7812   6.307   1.138   3.568  0.2325  0.0005  0.2391
 1952EOH      H 7813   6.112   1.096   3.392 -0.3409 -0.8937 -1.1929
 1953EOH      O 7814   3.932   3.135   5.559 -0.1292 -0.1100 -0.1215
 1953EOH      C 7815   4.067   3.151   5.604 -0.0332 -0.8472 -0.1349
 1953EOH      C 7816   4.084   3.112   5.752  0.0345 -0.2044  0.0324
 1953EOH      H 7817   3.907   3.044   5.550  0.4885  0.0098 -3.8019
 1954EOH      O 7818   2.538   6.891   2.263  0.1433 -0.3069  0.0697
 1954EOH      C 7819   2.528   7.031   2.234  0.3298 -0.4509 -0.7048
 1954EOH      C 7820   2.615   7.102   2.339 -0.1958 -0.7986 -0.0292
 1954EOH      H 7821   2.494   6.847   2.191 -0.2704 -1.0973  0.8018
 1955EOH      O 7822   1.475   1.941   7.463  0.9578 -0.6875  0.7735
 1955EOH      C 7823   1.527   1.887   7.342  0.1502 -0.1597  0.1901
 1955EOH      C 7824   1.597   1.990   7.250 -0.7814  0.2678 -0.0476
 1955EOH      H 7825   1.551   1.952   7.519  0.6574  2.3758  0.6520
 1956EOH      O 7826   0.754   4.186   0.616 -0.2746  0.4975 -0.8268
 1956EOH      C 7827   0.611   4.187   0.609 -0.3314  0.0202  0.1884
 1956EOH      C 7828   0.547   4.049   0.630 -0.0748 -0.1241  0.0221
 1956EOH      H 7829   0.775   4.208   0.705 -2.7942 -0.1897 -0.0201
 1957EOH      O 7830   2.917   0.090   6.573 -0.3899  0.1029  0.1923
 1957EOH      C 7831   2.902   0.097   6.431  0.0586 -0.6055  0.1089
 1957EOH      C 7832   2.750   0.112   6.406  0.1803 -0.0640 -0.3034
 1957EOH      H 7833   2.989   0.144   6.602 -0.5130  0.0474  0.6117
 1958EOH      O 7834   2.381   3.829   4.092 -0.2139 -0.1079 -0.3173
 1958EOH      C 7835   2.449   3.720   4.029  0.2809 -0.0883  0.1863
 1958EOH      C 7836   2.366   3.668   3.911 -0.0755  0.3504  0.2416
 1958EOH      H 7837   2.444   3.882   4.138  0.1743  0.5162 -1.5524
 1959EOH      O 7838   1.394   4.177   1.570  0.1528 -0.0862 -0.1017
 1959EOH      C 7839   1.359   4.054   1.506  0.1669 -0.3118  0.3247
 1959EOH      C 7840   1.232   4.014   1.585 -0.3536  0.4895 -0.0974
 1959EOH      H 7841   1.436   4.161   1.653 -0.6424  1.1684  0.5676
 1960EOH      O 7842   2.661   6.853   6.365 -0.0781 -0.0067 -0.8177
 1960EOH      C 7843   2.625   6.715   6.362  0.0455 -0.0549 -0.2399
 1960EOH      C 7844   2.493   6.695   6.439  0.4190 -0.3257  0.3315
 1960EOH      H 7845   2.732   6.866   6.426 -0.3400 -1.2919 -0.2379
 1961EOH      O 7846   4.157   0.373   5.326 -0.2900  0.4527 -0.2804
 1961EOH      C 7847   4.290   0.403   5.284 -0.0636 -0.3227 -0.1151
 1961EOH      C 7848   4.389   0.365   5.395  0.4211  0.1603 -0.3785
 1961EOH      H 7849   4.107   0.451   5.344  1.0588  1.7431 -1.9612
 1962EOH      O 7850   1.476   4.044   0.859  0.0445 -0.1980 -0.7485
 1962EOH      C 7851   1.406   4.010   0.979  0.8782  0.0855 -0.1828
 1962EOH      C 7852   1.333   3.878   0.949  0.7283  0.1404 -0.0556
 1962EOH      H 7853   1.535   4.110   0.891 -0.4842 -0.0279 -0.1363
 1963EOH      O 7854   1.962   2.655   4.757 -0.2770 -0.0826  0.0911
 1963EOH      C 7855   2.071   2.614   4.841 -0.3890 -0.0920  0.2320
 1963EOH      C 7856   2.046   2.672   4.981  0.4039  0.4086  0.1691
 1963EOH      H 7857   1.885   2.649   4.811  0.0724  0.0654  0.6135
 1964EOH      O 7858   1.401   3.064   5.581 -0.3627  0.0774 -0.1621
 1964EOH      C 7859   1.281   3.114   5.642 -0.3944 -0.5526  0.2990
 1964EOH      C 7860   1.311   3.222   5.747  0.2594 -0.5823  0.1461
 1964EOH      H 7861   1.440   3.004   5.643 -1.4455  0.3674  0.8241
 1965EOH      O 7862   3.090   0.070   5.582  0.1333  0.1135 -0.1309
 1965EOH      C 7863   3.126   0.172   5.488 -0.4355  0.2787 -0.1721
 1965EOH      C 7864   3.112   0.312   5.550  0.0063  0.1576  0.2037
 1965EOH      H 7865   3.019   0.022   5.542 -2.6397 -0.0559  4.6440
 1966EOH      O 7866   2.995   5.112   1.271 -0.2793 -0.1402 -0.3433
 1966EOH      C 7867   2.951   5.133   1.405 -0.1316 -0.1863 -0.2879
 1966EOH      C 7868   3.027   5.034   1.496 -0.6272 -0.6574 -0.3836
 1966EOH      H 7869   3.089   5.111   1.265 -0.3844 -0.9201 -2.2914
 1967EOH      O 7870   0.486   0.464   7.584 -0.1963 -0.4067 -0.0151
 1967EOH      C 7871   0.428   0.339   7.545 -0.9999 -0.0893  0.1619
 1967EOH      C 7872   0.297   0.314   7.622 -0.6298 -0.6254  0.6172
 1967EOH      H 7873   0.561   0.441   7.637  1.1867 -0.7539 -2.0614
 1968EOH      O 7874   2.001   5.407   5.775  0.1750  0.3069 -0.1857
 1968EOH      C 7875   2.129   5.346   5.753  0.0584 -0.1310  0.3364
 1968EOH      C 7876   2.137   5.212   5.827 -0.4387 -0.1659  0.3267
 1968EOH      H 7877   2.013   5.501   5.778  0.2189  0.3027 -0.2414
 1969EOH      O 7878   3.883   7.096   5.214  0.2795 -0.0446 -0.1763
 1969EOH      C 7879   3.793   7.119   5.106  0.2380  0.1033 -0.1113
 1969EOH      C 7880   3.668   7.031   5.127  0.1374  0.1861 -0.3551
 1969EOH      H 7881   3.957   7.155   5.203 -1.6625  2.4136 -0.4869
 1970EOH      O 7882   0.168   3.672   0.119  0.1505 -0.2847 -0.3236
 1970EOH      C 7883   0.044   3.680   0.190  0.4851 -0.2522  0.2631
 1970EOH      C 7884   0.014   3.829   0.219 -0.0561 -0.2224 -0.4367
 1970EOH      H 7885   0.174   3.613   0.046  3.9291 -0.2865 -0.1220
 1971EOH      O 7886   0.911   7.754   4.536 -0.1553 -0.0290  0.1662
 1971EOH      C 7887   0.960   7.867   4.607 -0.3602  0.2886 -0.1965
 1971EOH      C 7888   1.025   7.825   4.740 -0.0487 -0.4350 -0.5761
 1971EOH      H 7889   0.982   7.691   4.537 -0.8861 -0.8819 -0.2907
 1972EOH      O 7890   3.722   4.222   4.138 -0.1047 -0.1154  0.4381
 1972EOH      C 7891   3.784   4.112   4.205 -0.0154 -0.1468  0.3043
 1972EOH      C 7892   3.920   4.144   4.270 -0.1150 -0.0702  0.4735
 1972EOH      H 7893   3.671   4.271   4.201 -2.1692 -1.5888 -0.0636
 1973EOH      O 7894   4.076   3.041   5.228  0.2155  0.3421 -0.3999
 1973EOH      C 7895   4.088   2.995   5.093  0.2583 -0.4444 -0.1297
 1973EOH      C 7896   3.986   2.889   5.047  0.0163 -0.1088 -0.3637
 1973EOH      H 7897   3.993   3.084   5.245  0.2545 -0.1622  1.0891
 1974EOH      O 7898   3.281   5.304   7.157  0.2720 -0.1634 -0.3764
 1974EOH      C 7899   3.415   5.320   7.203  0.1648  0.2929 -0.2115
 1974EOH      C 7900   3.440   5.467   7.243 -0.4300  0.1683  0.6305
 1974EOH      H 7901   3.266   5.213   7.138 -0.7475 -0.6825  2.6584
 1975EOH      O 7902   4.155   2.059   6.989  0.2741  0.2374 -0.1818
 1975EOH      C 7903   4.257   2.074   6.889  0.2442 -0.4091 -0.3045
 1975EOH      C 7904   4.402   2.107   6.929 -0.0137  0.2914  0.0574
 1975EOH      H 7905   4.097   1.992   6.957  0.9538 -1.4100  1.9011
 1976EOH      O 7906   2.341   0.370   6.573 -0.1332 -0.3561  0.3966
 1976EOH      C 7907   2.207   0.345   6.615 -0.1548 -0.2330  0.4003
 1976EOH      C 7908   2.205   0.290   6.759 -0.0359 -0.0085  0.4883
 1976EOH      H 7909   2.385   0.287   6.576 -2.8104 -1.7908  1.4063
 1977EOH      O 7910   5.105   2.380   5.268 -0.2082  0.0726  0.5161
 1977EOH      C 7911   5.052   2.494   5.200  0.0475 -0.2550 -0.2379
 1977EOH      C 7912   4.933   2.446   5.116  0.2642 -0.4328 -0.4449
 1977EOH      H 7913   5.098   2.389   5.361  1.3276  1.2536  0.5283
 1978EOH      O 7914   5.554   2.591   4.246 -1.0281 -0.3622  0.4065
 1978EOH      C 7915   5.632   2.571   4.364 -0.3945 -0.3289 -0.0011
 1978EOH      C 7916   5.679   2.714   4.397  0.4978 -0.4365 -0.7981
 1978EOH      H 7917   5.525   2.505   4.219 -1.0824 -0.6947  1.5163
 1979EOH      O 7918   0.851   3.491   7.630 -0.7222  0.1206  0.0794
 1979EOH      C 7919   0.885   3.526   7.764  0.1937  0.5027 -0.2509
 1979EOH      C 7920   1.036   3.556   7.772  0.2499  0.0511  0.3594
 1979EOH      H 7921   0.816   3.567   7.586  0.1244 -0.1406 -1.0779
 1980EOH      O 7922   2.444   2.427   7.014 -0.2854 -0.0550 -0.5856
 1980EOH      C 7923   2.318   2.486   7.048  0.0356  0.4329 -0.2303
 1980EOH      C 7924   2.235   2.560   6.941 -0.0411  0.2810 -0.2767
 1980EOH      H 7925   2.467   2.368   7.084  1.1312  0.7228 -0.3881
 1981EOH      O 7926   0.775   1.961   1.670 -0.0057  0.1108 -0.1335
 1981EOH      C 7927   0.811   1.997   1.537  0.4499 -0.0596 -0.0554
 1981EOH      C 7928   0.840   1.870   1.454 -0.2085 -0.5048  0.3909
 1981EOH      H 7929   0.739   2.038   1.711  0.5109  0.4207 -0.2591
 1982EOH      O 7930   3.820   6.933   5.957  0.0011 -0.2713  0.4470
 1982EOH      C 7931   3.750   6.980   6.072  0.1409  0.5441  0.2062
 1982EOH      C 7932   3.748   6.874   6.184 -0.2990  0.2829 -0.0466
 1982EOH      H 7933   3.778   6.855   5.924  0.4262  0.4136 -1.8610
 1983EOH      O 7934   3.493   5.050   4.345 -0.3268  0.0951 -0.7631
 1983EOH      C 7935   3.579   4.940   4.373 -0.3826  0.1366 -0.4246
 1983EOH      C 7936   3.703   4.928   4.282 -0.0598 -0.6701  0.1154
 1983EOH      H 7937   3.437   5.061   4.420 -0.8805  2.6285 -1.4772
 1984EOH      O 7938   1.273   0.005   5.619  0.1136 -0.8714 -0.0218
 1984EOH      C 7939   1.365   0.066   5.529 -0.2240 -0.2554  0.0462
 1984EOH      C 7940   1.386   0.214   5.567  0.2746 -0.2079 -0.4030
 1984EOH      H 7941   1.187   0.021   5.583  0.2139  1.5060  0.6589
 1985EOH      O 7942   2.964   6.606   5.220  0.0627 -0.1184 -0.2417
 1985EOH      C 7943   2.822   6.620   5.225  0.0876  0.0511 -0.0037
 1985EOH      C 7944   2.759   6.507   5.140  0.4527 -0.3285  0.2263
 1985EOH      H 7945   2.992   6.540   5.282 -2.3673 -0.6703  0.3006
 1986EOH      O 7946   2.776   1.657   3.815  0.3651 -0.1445 -0.5275
 1986EOH      C 7947   2.692   1.606   3.711  0.3326 -0.4931 -0.3339
 1986EOH      C 7948   2.547   1.643   3.748  0.6064  0.4768 -0.2023
 1986EOH      H 7949   2.768   1.751   3.819 -0.0252 -0.1794 -0.5483
 1987EOH      O 7950   2.386   0.825   3.599 -0.1415  0.1023 -0.2043
 1987EOH      C 7951   2.264   0.819   3.525 -0.2569  0.0455 -0.0112
 1987EOH      C 7952   2.147   0.897   3.587 -0.2709  0.2560 -0.2997
 1987EOH      H 7953   2.378   0.907   3.645 -1.3886 -0.6186  0.9178
 1988EOH      O 7954   3.778   2.593   4.817  0.2358  0.8132  0.0811
 1988EOH      C 7955   3.773   2.546   4.952  0.6211  0.7022  0.0592
 1988EOH      C 7956   3.915   2.540   5.012  0.7797 -0.0433 -0.3917
 1988EOH      H 7957   3.692   2.623   4.792 -0.8727  1.2215  3.9471
 1989EOH      O 7958   6.572   0.121   2.235 -0.0451 -0.1057 -0.0169
 1989EOH      C 7959   6.492   0.227   2.183  0.1799  0.1848  0.2329
 1989EOH      C 7960   6.573   0.330   2.102  0.1602 -0.1403 -0.2002
 1989EOH      H 7961   6.620   0.157   2.307  0.5734 -0.2484 -0.3494
 1990EOH      O 7962   5.112   6.880   3.424 -0.1381  0.1020  0.2358
 1990EOH      C 7963   5.240   6.933   3.387 -0.1884  0.1643  0.1518
 1990EOH      C 7964   5.342   6.823   3.355 -0.0560  0.1724  0.5455
 1990EOH      H 7965   5.054   6.947   3.391 -0.8007 -1.5069 -1.9640
 1991EOH      O 7966   1.811   4.873   3.747 -0.1176  0.4250  0.0347
 1991EOH      C 7967   1.716   4.902   3.850 -0.7199 -0.2714 -0.3228
 1991EOH      C 7968   1.575   4.919   3.790 -0.6199  0.1542 -0.4352
 1991EOH      H 7969   1.831   4.781   3.751 -2.1048  0.0315  1.6453
 1992EOH      O 7970   1.011   2.306   2.943 -0.3283 -0.0927  0.1242
 1992EOH      C 7971   1.096   2.205   2.888 -0.7805 -0.8643  0.8177
 1992EOH      C 7972   1.022   2.112   2.791 -0.2350 -0.3719 -0.0827
 1992EOH      H 7973   1.061   2.356   3.006  0.1548 -0.3268 -0.0754
 1993EOH      O 7974   5.774   7.837   3.902  0.4598  0.9894 -0.6694
 1993EOH      C 7975   5.891   7.834   3.820  0.4861 -0.0933 -0.6051
 1993EOH      C 7976   5.881   7.699   3.747 -0.6925 -0.3057 -0.0617
 1993EOH      H 7977   5.707   7.888   3.859 -1.3756 -1.1219 -0.4564
 1994EOH      O 7978   4.491   2.936   6.036  0.1939  0.1004 -0.1514
 1994EOH      C 7979   4.390   2.916   5.937 -0.3690  0.1114  0.4162
 1994EOH      C 7980   4.299   2.793   5.957 -0.5592  0.1189 -0.3900
 1994EOH      H 7981   4.467   2.884   6.112  0.7397 -1.9574 -1.3382
 1995EOH      O 7982   7.209   6.299   2.614  0.4199  0.6190 -0.0904
 1995EOH      C 7983   7.254   6.277   2.480 -0.0883 -0.3208 -0.1071
 1995EOH      C 7984   7.334   6.145   2.484 -0.2344 -0.4001  0.1598
 1995EOH      H 7985   7.162   6.226   2.649  1.7631  0.3012  1.0948
 1996EOH      O 7986   1.429   4.564   5.083 -0.2079  0.1895  0.3864
 1996EOH      C 7987   1.307   4.638   5.076 -0.3054  0.0099  0.1875
 1996EOH      C 7988   1.218   4.615   5.198 -0.3139  0.0253  0.1838
 1996EOH      H 7989   1.496   4.603   5.030 -0.4449  0.9092  0.6111
 1997EOH      O 7990   7.099   1.343   5.098 -0.3898  0.5551 -0.4326
 1997EOH      C 7991   7.224   1.409   5.082  0.1957 -0.3883  0.1722
 1997EOH      C 7992   7.289   1.424   5.221  0.1493  0.4730  0.1088
 1997EOH      H 7993   7.048   1.361   5.021 -0.5073  3.8914  0.3761
 1998EOH      O 7994   1.877   7.500   1.228 -0.2699 -0.3739 -0.1060
 1998EOH      C 7995   1.849   7.494   1.088  0.5020 -0.1768 -0.2748
 1998EOH      C 7996   1.980   7.506   1.009  0.4325 -0.4175 -0.4272
 1998EOH      H 7997   1.802   7.461   1.269  0.6861 -0.9073  1.1593
 1999EOH      O 7998   2.692   4.048   4.570 -0.3681 -0.3644  0.4548
 1999EOH      C 7999   2.592   3.973   4.639 -0.1349 -0.2396  0.9277
 1999EOH      C 8000   2.505   3.896   4.537  0.2285  0.5553  0.0128
 1999EOH      H 8001   2.697   4.129   4.619 -0.4129 -0.6367  0.9077
 2000EOH      O 8002   1.863   3.883   4.962 -0.1750  0.3591 -0.1259
 2000EOH      C 8003   1.737   3.883   5.030 -0.2467  0.2413 -0.2568
 2000EOH      C 8004   1.649   3.767   4.981 -0.2303  0.2675 -0.3487
 2000EOH      H 8005   1.882   3.975   4.968  1.1861 -0.0683  3.1828
 2001EOH      O 8006   3.379   4.715   5.148 -0.2151  0.1247  0.3540
 2001EOH      C 8007   3.237   4.699   5.151 -0.2199  0.1055  0.0712
 2001EOH      C 8008   3.222   4.546   5.163  0.3205  0.0137 -0.4137
 2001EOH      H 8009   3.409   4.710   5.237 -1.3931  1.0423  0.8314
 2002EOH      O 8010   1.781   3.446   5.929 -0.4584 -0.4403  0.4068
 2002EOH      C 8011   1.775   3.316   5.869 -0.7058 -0.4405  0.4325
 2002EOH      C 8012   1.730   3.327   5.722 -0.3757 -0.3116  0.3389
 2002EOH      H 8013   1.707   3.455   5.985 -0.5535 -0.6415  0.3166
 2003EOH      O 8014   3.054   6.751   2.838 -0.4687 -0.1727  0.3298
 2003EOH      C 8015   3.029   6.796   2.972 -0.5904  0.2249  0.1758
 2003EOH      C 8016   2.899   6.734   3.026 -0.5049 -0.0019  0.1220
 2003EOH      H 8017   2.982   6.774   2.781 -1.5602 -2.8434  0.5737
 2004EOH      O 8018   4.638   2.864   7.363  0.2419  0.2984 -0.0740
 2004EOH      C 8019   4.711   2.932   7.466  0.2626  0.4325 -0.1746
 2004EOH      C 8020   4.656   2.900   7.606  0.4635  0.6331 -0.0507
 2004EOH      H 8021   4.702   2.853   7.294 -1.3907  2.8754 -2.1223
 2005EOH      O 8022   2.073   0.139   6.217 -0.0757 -0.2352  0.2830
 2005EOH      C 8023   2.028   0.037   6.307 -0.3394 -0.4305 -0.0719
 2005EOH      C 8024   1.881   0.059   6.348 -0.2015  0.6245 -0.1467
 2005EOH      H 8025   2.037   0.125   6.131  2.5570 -0.9790 -0.7440
 2006EOH      O 8026   4.785   6.013   4.296  0.4610 -0.4063  0.3759
 2006EOH      C 8027   4.735   5.943   4.409 -0.6016  0.1838  0.2779
 2006EOH      C 8028   4.813   5.811   4.394  0.3094  0.7031  0.4072
 2006EOH      H 8029   4.744   5.969   4.223 -0.1922  0.9179 -0.0839
 2007EOH      O 8030   3.206   0.817   1.778  0.0942 -0.4723 -0.1004
 2007EOH      C 8031   3.286   0.815   1.897  0.0346  0.3304 -0.0453
 2007EOH      C 8032   3.435   0.837   1.863  0.2432 -0.2582  0.4902
 2007EOH      H 8033   3.114   0.802   1.793 -0.0993  1.0947  0.4075
 2008EOH      O 8034   4.386   5.986   5.331  0.3068  0.1970 -0.1240
 2008EOH      C 8035   4.288   5.999   5.227 -0.2429 -0.5686  0.2997
 2008EOH      C 8036   4.321   5.968   5.080 -0.4757  0.7918 -0.0390
 2008EOH      H 8037   4.345   6.014   5.412 -1.7712 -0.7285 -0.8079
 2009EOH      O 8038   1.692   0.683   5.511  0.1350  0.0803 -0.0333
 2009EOH      C 8039   1.822   0.744   5.513  0.4050 -0.4945 -0.0345
 2009EOH      C 8040   1.856   0.835   5.394 -0.6071  0.0011  0.0539
 2009EOH      H 8041   1.696   0.618   5.579  3.3185  1.2881  1.0589
 2010EOH      O 8042   4.745   3.374   5.200  0.4006 -0.0485 -0.0012
 2010EOH      C 8043   4.883   3.381   5.162  0.3892  0.2328  0.0041
 2010EOH      C 8044   4.941   3.499   5.242  0.2671  0.4657 -0.2517
 2010EOH      H 8045   4.719   3.286   5.179  0.8522 -0.7512  2.2109
 2011EOH      O 8046   0.997   4.664   6.164  0.1339  0.1439  0.0154
 2011EOH      C 8047   1.002   4.804   6.192 -0.0630  0.0813  0.3596
 2011EOH      C 8048   0.880   4.870   6.126 -0.0271 -0.1375  0.0785
 2011EOH      H 8049   0.999   4.654   6.070  1.0138  0.6466 -0.0238
 2012EOH      O 8050   0.422   1.704   5.842 -0.5643  0.2293 -0.4014
 2012EOH      C 8051   0.314   1.612   5.856 -0.0060 -0.4425 -0.4428
 2012EOH      C 8052   0.394   1.482   5.870  0.5036 -0.0901 -0.0665
 2012EOH      H 8053   0.424   1.765   5.914 -0.3494  1.7225 -1.6603
 2013EOH      O 8054   1.665   7.502   4.735  0.1182  0.2229  0.2042
 2013EOH      C 8055   1.705   7.596   4.634  0.1248 -0.0392 -0.0388
 2013EOH      C 8056   1.597   7.586   4.525 -0.0598 -0.3342  0.1689
 2013EOH      H 8057   1.689   7.413   4.712  1.4922  0.7377 -0.4162
 2014EOH      O 8058   2.046   0.942   6.247 -0.3326 -0.1221  0.4213
 2014EOH      C 8059   1.953   1.008   6.333 -0.0963  0.3142  0.3413
 2014EOH      C 8060   1.823   1.038   6.256 -0.2579  0.2875  0.6025
 2014EOH      H 8061   2.093   1.009   6.199 -0.0384 -0.6416 -0.0296
 2015EOH      O 8062   3.991   6.119   0.654  0.3412  0.1122 -0.0949
 2015EOH      C 8063   3.931   6.067   0.773  0.3576 -0.0235 -0.1456
 2015EOH      C 8064   3.850   6.183   0.837 -0.0681 -0.2992 -0.1802
 2015EOH      H 8065   4.074   6.075   0.650  0.1401 -0.3043  0.2529
 2016EOH      O 8066   5.391   2.367   4.209  0.4267  0.7411  0.1290
 2016EOH      C 8067   5.264   2.370   4.274  0.3321  0.1488 -0.0228
 2016EOH      C 8068   5.230   2.511   4.326  0.5351  0.3134 -0.3377
 2016EOH      H 8069   5.388   2.402   4.121  2.6941  1.0238  0.1356
 2017EOH      O 8070   0.517   1.676   5.183 -0.1272  0.3398 -0.1618
 2017EOH      C 8071   0.539   1.810   5.138  0.3455  0.5969  0.8087
 2017EOH      C 8072   0.608   1.806   5.000 -1.2034 -0.2862  0.0310
 2017EOH      H 8073   0.450   1.670   5.249 -0.9968  0.8872 -0.9761
 2018EOH      O 8074   2.888   3.228   2.193 -0.4201 -0.6279  0.3117
 2018EOH      C 8075   2.764   3.195   2.256 -0.4403 -0.3254  0.4270
 2018EOH      C 8076   2.651   3.210   2.153 -0.1877 -0.2079  0.1663
 2018EOH      H 8077   2.951   3.166   2.229 -0.3954 -0.0941  1.1932
 2019EOH      O 8078   3.010   0.034   5.825  0.2335 -0.1981 -0.1921
 2019EOH      C 8079   3.098   0.029   5.937  0.1213  0.0114 -0.0925
 2019EOH      C 8080   3.015   0.026   6.067  0.0663 -0.0698 -0.1289
 2019EOH      H 8081   3.062   0.072   5.756  0.9268  1.3605  1.1470
 2020EOH      O 8082   4.184   2.902   5.403  0.1162  0.4672 -0.6997
 2020EOH      C 8083   4.326   2.902   5.423  0.0816 -0.3722 -0.4301
 2020EOH      C 8084   4.348   2.857   5.568 -0.6461  0.5414 -0.0302
 2020EOH      H 8085   4.162   2.954   5.327 -0.9753  1.3162  0.1756
 2021EOH      O 8086   3.681   5.468   6.212 -0.3093 -0.1785  0.0408
 2021EOH      C 8087   3.599   5.567   6.149  0.2297  0.2468 -0.0033
 2021EOH      C 8088   3.615   5.717   6.177 -0.7859  0.3885 -0.1617
 2021EOH      H 8089   3.622   5.403   6.245 -1.6573  1.4211  0.8507
 2022EOH      O 8090   3.552   4.939   3.640 -0.5692 -0.3948  0.4820
 2022EOH      C 8091   3.578   5.030   3.747 -0.4130 -0.2082  0.2850
 2022EOH      C 8092   3.695   4.998   3.842 -0.0576 -0.0367 -0.0895
 2022EOH      H 8093   3.464   4.962   3.616 -0.3444  0.5395  0.5114
 2023EOH      O 8094   3.279   5.647   2.368 -0.0032 -0.7265  0.8135
 2023EOH      C 8095   3.226   5.561   2.268 -0.7960  0.5356  0.1338
 2023EOH      C 8096   3.254   5.597   2.121  0.9163  0.1138  0.3490
 2023EOH      H 8097   3.221   5.622   2.438  0.9578 -0.1806  1.8289
 2024EOH      O 8098   1.423   1.666   6.696  0.2409  0.2858 -0.1226
 2024EOH      C 8099   1.428   1.645   6.555 -0.7904  0.4009 -0.1778
 2024EOH      C 8100   1.292   1.606   6.495 -0.5927 -0.0366 -0.3420
 2024EOH      H 8101   1.475   1.742   6.717 -0.3864 -0.0035  2.6710
 2025EOH      O 8102   1.332   3.120   2.893  0.1621  0.2575  0.0138
 2025EOH      C 8103   1.374   3.138   3.028  0.1142  0.2057  0.0358
 2025EOH      C 8104   1.446   3.010   3.075  0.0923  0.0339 -0.4004
 2025EOH      H 8105   1.280   3.193   2.862  0.6193  0.7444  0.3743
 2026EOH      O 8106   1.469   5.965   5.798 -0.0668 -0.3169 -0.4632
 2026EOH      C 8107   1.423   6.005   5.928 -0.2964 -0.2925 -0.5516
 2026EOH      C 8108   1.365   5.883   6.001  0.2778 -0.3431 -0.1721
 2026EOH      H 8109   1.470   6.047   5.750 -0.6180 -0.2091 -0.2889
 2027EOH      O 8110   0.360   1.636   5.389  0.2292 -0.2309 -0.2795
 2027EOH      C 8111   0.250   1.596   5.471  0.3287  0.1018  0.0144
 2027EOH      C 8112   0.118   1.658   5.423  0.3600  0.0774 -0.1018
 2027EOH      H 8113   0.435   1.655   5.445 -1.7850  1.7791  1.8400
 2028EOH      O 8114   0.083   7.836   3.350 -0.2112  0.2669 -0.2006
 2028EOH      C 8115   0.084   7.920   3.465  0.2922  0.8186 -0.6024
 2028EOH      C 8116   0.207   7.880   3.548 -0.3556  0.1279  0.0381
 2028EOH      H 8117   0.011   7.865   3.296 -0.0958  0.0840 -0.4536
 2029EOH      O 8118   2.540   6.096   5.495 -0.0881  0.2604  0.0181
 2029EOH      C 8119   2.570   6.174   5.379 -0.0654  0.1297 -0.0643
 2029EOH      C 8120   2.553   6.325   5.405 -0.0013  0.0735  0.2999
 2029EOH      H 8121   2.590   6.122   5.570 -0.2600 -0.2838  0.3252
 2030EOH      O 8122   0.136   0.202   6.272  0.4856 -0.1267 -0.2644
 2030EOH      C 8123   0.012   0.137   6.242  0.2518  0.2629 -0.1402
 2030EOH      C 8124   0.048   0.008   6.166 -0.5185 -0.0870  0.0968
 2030EOH      H 8125   0.155   0.193   6.364  1.8191 -1.2404 -0.6195
 2031EOH      O 8126   1.387   7.226   0.477  0.0046  0.2584 -0.1270
 2031EOH      C 8127   1.256   7.207   0.422 -0.1412  0.0550  0.2931
 2031EOH      C 8128   1.250   7.200   0.269  0.2968  1.1783  0.2169
 2031EOH      H 8129   1.390   7.174   0.556 -1.3638 -2.5304 -1.8348
 2032EOH      O 8130   7.676   2.822   3.227  0.0007 -0.0509  0.0890
 2032EOH      C 8131   7.548   2.886   3.226  0.0352  0.0167 -0.2316
 2032EOH      C 8132   7.474   2.884   3.091 -0.3582 -0.2311 -0.0129
 2032EOH      H 8133   7.735   2.876   3.176 -0.8562 -0.6620 -1.6037
 2033EOH      O 8134   2.983   3.754   0.167  0.2466  0.4927  0.2856
 2033EOH      C 8135   2.982   3.721   0.306  0.5811  0.6839  0.3334
 2033EOH      C 8136   3.124   3.671   0.340  0.4138 -0.1333 -0.1416
 2033EOH      H 8137   3.054   3.815   0.157  0.9756 -0.4187 -0.1724
 2034EOH      O 8138   2.142   3.927   7.240  0.1892 -0.0701  0.5505
 2034EOH      C 8139   2.077   4.053   7.222  0.4132 -0.0482 -0.1224
 2034EOH      C 8140   1.945   4.040   7.143  0.6339 -0.7299 -0.3888
 2034EOH      H 8141   2.204   3.925   7.311 -1.1236  1.3538  1.7718
 2035EOH      O 8142   6.200   6.627   3.522  0.0800  0.2500 -0.3812
 2035EOH      C 8143   6.212   6.605   3.662 -0.0834 -0.0544 -0.4159
 2035EOH      C 8144   6.101   6.679   3.739 -0.3604 -0.4750 -0.4114
 2035EOH      H 8145   6.283   6.597   3.486  0.9682  0.3691  1.5371
 2036EOH      O 8146   3.313   2.301   1.822  0.2432  0.1068  0.1418
 2036EOH      C 8147   3.299   2.276   1.962  0.1982 -0.2019  0.0828
 2036EOH      C 8148   3.235   2.137   1.978 -0.1646 -0.1216 -0.6585
 2036EOH      H 8149   3.306   2.395   1.816  1.2459  0.2860  1.4791
 2037EOH      O 8150   4.170   1.898   7.400  0.1145  0.5930 -0.5219
 2037EOH      C 8151   4.213   1.908   7.264  0.2135 -0.0451 -0.5396
 2037EOH      C 8152   4.356   1.962   7.279  0.1859 -0.1137 -0.0392
 2037EOH      H 8153   4.140   1.808   7.399  1.2544  0.1963 -2.9847
 2038EOH      O 8154   1.961   3.467   3.030  0.5091 -0.3190  0.5161
 2038EOH      C 8155   2.004   3.552   3.137  0.1925  0.3545  0.1076
 2038EOH      C 8156   2.075   3.468   3.245  0.1951  0.2764  0.0450
 2038EOH      H 8157   2.030   3.466   2.965  0.0674  0.1101  0.0371
 2039EOH      O 8158   2.442   1.237   0.204  0.0178  0.2385 -0.3005
 2039EOH      C 8159   2.410   1.132   0.113 -0.0484 -0.3873  0.4417
 2039EOH      C 8160   2.407   1.001   0.194 -0.2797 -0.2535  0.6508
 2039EOH      H 8161   2.533   1.254   0.184 -0.0004  0.4859 -0.1867
 2040EOH      O 8162   3.581   5.728   1.092  0.6602 -0.1147  0.1559
 2040EOH      C 8163   3.657   5.724   0.971  0.0057 -0.7572 -0.2387
 2040EOH      C 8164   3.715   5.583   0.954 -0.3651 -0.9600  0.1928
 2040EOH      H 8165   3.633   5.776   1.155  1.5677 -0.1459 -0.5505
 2041EOH      O 8166   0.840   2.940   6.625 -0.9511 -0.2961  0.0320
 2041EOH      C 8167   0.756   3.025   6.547 -0.7581 -0.1055  0.0329
 2041EOH      C 8168   0.847   3.096   6.445 -0.2628 -0.4973  0.2003
 2041EOH      H 8169   0.895   2.989   6.685 -0.0193  0.5364 -1.4861
 2042EOH      O 8170   1.881   2.229   6.246  0.1807  0.3933 -0.2104
 2042EOH      C 8171   1.838   2.155   6.131 -0.4545 -0.3113  0.4694
 2042EOH      C 8172   1.876   2.009   6.159 -0.4023 -0.3011  0.4540
 2042EOH      H 8173   1.975   2.234   6.250  0.3074  1.1827 -3.1260
 2043EOH      O 8174   2.373   1.855   4.455  0.2748 -0.1529  0.0239
 2043EOH      C 8175   2.417   1.916   4.334 -0.4846  0.6874  0.1714
 2043EOH      C 8176   2.550   1.992   4.345  0.2474 -0.4605 -0.6250
 2043EOH      H 8177   2.289   1.816   4.435  0.0852  0.5736 -0.5927
 2044EOH      O 8178   4.333   4.461   5.937 -0.6718 -0.2890  0.2592
 2044EOH      C 8179   4.298   4.324   5.962 -0.5147 -0.3781 -0.0117
 2044EOH      C 8180   4.166   4.315   6.040 -0.6050 -0.1215 -0.1313
 2044EOH      H 8181   4.272   4.491   5.872 -2.0299 -2.8793  0.2586
 2045EOH      O 8182   0.554   0.313   0.093 -0.1602  0.5191  0.0875
 2045EOH      C 8183   0.492   0.204   0.163  0.4971  0.3078  0.3404
 2045EOH      C 8184   0.522   0.077   0.081  0.9338  0.0342  0.9194
 2045EOH      H 8185   0.551   0.388   0.149 -1.6742  0.5141  0.0503
 2046EOH      O 8186   3.032   1.757   5.634 -0.1964  0.5544  0.2478
 2046EOH      C 8187   3.161   1.747   5.694  0.2507 -0.6765 -0.8918
 2046EOH      C 8188   3.222   1.889   5.684 -0.7050 -0.1909  0.0484
 2046EOH      H 8189   2.986   1.675   5.643  1.5061 -0.6729 -1.9967
 2047EOH      O 8190   0.634   5.236   2.558  0.1152  0.0745  0.5074
 2047EOH      C 8191   0.610   5.306   2.436 -0.1502 -0.5782  0.1842
 2047EOH      C 8192   0.685   5.232   2.323 -0.6124  0.3123 -0.7137
 2047EOH      H 8193   0.557   5.262   2.607  0.4932  1.3993  0.4064
 2048EOH      O 8194   0.747   7.248   6.633  0.3787 -0.1135 -0.1250
 2048EOH      C 8195   0.840   7.341   6.577  0.6025 -0.1158  0.2411
 2048EOH      C 8196   0.951   7.271   6.497  0.2619  0.0248 -0.3568
 2048EOH      H 8197   0.673   7.295   6.668 -1.0372 -2.1868 -0.2206
 2049EOH      O 8198   3.125   0.704   0.071  0.3556 -0.2737  0.1459
 2049EOH      C 8199   3.075   0.575   0.037  0.4051 -0.2911  0.1392
 2049EOH      C 8200   3.057   0.491   0.165 -0.0360 -0.4895 -0.0509
 2049EOH      H 8201   3.218   0.699   0.082  0.1491 -0.4069  2.0819
 2050EOH      O 8202   1.092   6.922   2.995  0.7220 -0.2814 -0.1605
 2050EOH      C 8203   1.002   6.999   2.915 -0.3989 -0.6504  0.7369
 2050EOH      C 8204   0.919   6.901   2.829  0.1614 -0.6266  0.1557
 2050EOH      H 8205   1.157   6.984   3.025 -0.0111  0.4636 -0.1010
 2051EOH      O 8206   4.257   4.874   6.158  0.8081 -0.0873  0.1664
 2051EOH      C 8207   4.174   4.777   6.094  0.8775 -0.2115  0.2653
 2051EOH      C 8208   4.136   4.663   6.191  0.0856 -0.4216 -0.2871
 2051EOH      H 8209   4.254   4.957   6.112  1.8695 -1.2051 -1.9697
 2052EOH      O 8210   6.427   1.771   3.166 -0.3606 -0.3887 -0.1210
 2052EOH      C 8211   6.463   1.694   3.281 -0.0696  0.0273  0.0688
 2052EOH      C 8212   6.381   1.763   3.391 -0.2716  0.2213 -0.2033
 2052EOH      H 8213   6.509   1.796   3.126  0.2986 -0.6332  1.0413
 2053EOH      O 8214   2.643   2.169   6.962  0.2512  0.1190 -0.1329
 2053EOH      C 8215   2.678   2.063   6.872 -0.0679  0.1327 -0.2733
 2053EOH      C 8216   2.549   1.986   6.841  0.1135 -0.1207 -0.4013
 2053EOH      H 8217   2.638   2.247   6.909  1.6741  2.2590  2.7280
 2054EOH      O 8218   0.993   0.568   0.592 -0.0646 -0.5487 -0.1421
 2054EOH      C 8219   0.910   0.647   0.679  0.2197 -0.0186 -0.3508
 2054EOH      C 8220   0.762   0.609   0.660  0.2118 -0.4644  0.5953
 2054EOH      H 8221   1.085   0.575   0.613  0.2346 -1.3646 -1.1663
 2055EOH      O 8222   3.236   4.581   4.332  0.0237  0.4530 -0.0728
 2055EOH      C 8223   3.153   4.672   4.259 -0.3044 -0.3660 -0.7298
 2055EOH      C 8224   3.008   4.620   4.261 -0.3997 -0.0775  0.1463
 2055EOH      H 8225   3.204   4.574   4.421 -1.2035 -2.9422 -0.6984
 2056EOH      O 8226   0.854   3.230   3.712 -0.1319  0.6813  0.4995
 2056EOH      C 8227   0.970   3.311   3.729  0.4281 -0.0113  0.0547
 2056EOH      C 8228   0.942   3.398   3.853  0.6169  0.1355 -0.0052
 2056EOH      H 8229   0.829   3.208   3.623 -0.0798  0.4318  0.5440
 2057EOH      O 8230   1.170   6.455   1.154  0.0875  0.2158 -0.2481
 2057EOH      C 8231   1.112   6.337   1.098  0.1750  0.1179 -0.1296
 2057EOH      C 8232   1.228   6.240   1.065  0.3768  0.2068  0.3144
 2057EOH      H 8233   1.104   6.505   1.200  1.9989  1.0915  1.5839
 2058EOH      O 8234   4.435   4.115   4.076 -0.3816  0.2535  0.1742
 2058EOH      C 8235   4.378   3.984   4.075 -0.1999  0.1720  0.4534
 2058EOH      C 8236   4.390   3.919   4.214  0.0052 -0.8938 -0.0607
 2058EOH      H 8237   4.515   4.107   4.026 -3.0276  2.6161 -4.8391
 2059EOH      O 8238   2.595   6.690   5.964 -0.5012 -0.0936 -0.1499
 2059EOH      C 8239   2.690   6.783   6.017 -0.1542 -0.1188 -0.7252
 2059EOH      C 8240   2.673   6.904   5.924  0.4609  0.0833 -0.5770
 2059EOH      H 8241   2.509   6.697   6.001  0.1528  0.6491  1.2906
 2060EOH      O 8242   3.144   2.670   3.052  0.4189  0.3308 -0.0734
 2060EOH      C 8243   3.003   2.649   3.059  0.4674  0.0132 -0.0574
 2060EOH      C 8244   2.931   2.785   3.074  0.0872 -0.1460 -0.4171
 2060EOH      H 8245   3.190   2.588   3.055  0.0851  0.2042  2.1396
 2061EOH      O 8246   4.942   3.215   3.981 -0.3357  0.8345  0.4868
 2061EOH      C 8247   4.893   3.142   4.094  0.2974  0.4438  0.5123
 2061EOH      C 8248   5.008   3.137   4.196  0.0529  0.0765  0.7675
 2061EOH      H 8249   4.966   3.154   3.913 -1.3338  0.3332  0.5763
 2062EOH      O 8250   4.900   1.917   5.399 -0.1276  0.0593  0.1527
 2062EOH      C 8251   4.833   2.032   5.347 -0.0606 -0.2158 -0.5396
 2062EOH      C 8252   4.797   2.122   5.467  0.7990 -0.2172 -0.2819
 2062EOH      H 8253   4.842   1.844   5.386  0.6482 -0.8417  1.5484
 2063EOH      O 8254   6.179   6.812   4.104  0.0465  0.7606  0.1609
 2063EOH      C 8255   6.197   6.679   4.154  0.4970  0.7667  0.0128
 2063EOH      C 8256   6.347   6.660   4.185  0.4002 -0.0291  0.0187
 2063EOH      H 8257   6.087   6.829   4.114  0.6934  2.7460  3.8795
 2064EOH      O 8258   1.464   5.533   0.717  0.3307 -0.0503  0.1318
 2064EOH      C 8259   1.403   5.653   0.668 -0.1254 -0.5110 -0.4365
 2064EOH      C 8260   1.340   5.734   0.783  0.0089 -0.3275 -0.4924
 2064EOH      H 8261   1.557   5.549   0.715 -0.0799  2.8905  1.7701
 2065EOH      O 8262   4.838   1.599   6.408  0.1045  0.2131  0.2502
 2065EOH      C 8263   4.715   1.540   6.451  0.0237 -0.2075 -0.5361
 2065EOH      C 8264   4.716   1.387   6.472 -0.5012 -0.1132  0.2015
 2065EOH      H 8265   4.824   1.596   6.314 -2.7568 -0.0936  0.6437
 2066EOH      O 8266   1.498   2.199   7.721  0.2606  0.2363  0.1750
 2066EOH      C 8267   1.563   2.326   7.724 -0.1858  0.4627  0.3826
 2066EOH      C 8268   1.668   2.340   7.835 -0.1531  0.3830  0.3619
 2066EOH      H 8269   1.451   2.200   7.639 -2.2698  0.5071  1.5663
 2067EOH      O 8270   6.337   7.455   2.281  0.0598 -0.1666 -0.3068
 2067EOH      C 8271   6.309   7.348   2.190 -0.3137 -0.4038  0.0820
 2067EOH      C 8272   6.156   7.340   2.179 -0.3485  0.4025 -0.0948
 2067EOH      H 8273   6.430   7.468   2.276  0.2662 -2.0017 -2.4822
 2068EOH      O 8274   1.388   6.409   1.866 -0.1198 -0.1633 -0.6724
 2068EOH      C 8275   1.487   6.447   1.770 -0.0157 -0.2267 -0.5902
 2068EOH      C 8276   1.629   6.391   1.791 -0.1454 -0.5266 -0.5101
 2068EOH      H 8277   1.358   6.319   1.859  0.5478 -0.4626  0.1074
 2069EOH      O 8278   4.041   5.135   3.106 -0.0730  0.4847 -0.4046
 2069EOH      C 8279   4.168   5.097   3.055 -0.1439 -0.3847  0.0626
 2069EOH      C 8280   4.279   5.073   3.159  0.3363 -0.3656 -0.4416
 2069EOH      H 8281   3.993   5.184   3.041  1.0963  0.2496 -1.4428
 2070EOH      O 8282   2.544   7.126   5.457  0.3269  0.2154 -0.0897
 2070EOH      C 8283   2.679   7.079   5.450  0.2343 -0.0418 -0.1673
 2070EOH      C 8284   2.760   7.200   5.499 -0.0274 -0.0415  0.2606
 2070EOH      H 8285   2.517   7.136   5.367  2.0082  0.2738 -0.6056
 2071EOH      O 8286   3.290   5.067   3.622  0.1972 -0.6979 -0.0681
 2071EOH      C 8287   3.194   5.039   3.519 -0.0479  0.7846 -0.2587
 2071EOH      C 8288   3.223   4.899   3.461 -0.7050  0.3224  0.5005
 2071EOH      H 8289   3.254   5.043   3.706  1.4380  1.1958  1.0501
 2072EOH      O 8290   1.708   7.006   7.552  0.1376 -0.2433 -0.3943
 2072EOH      C 8291   1.850   7.007   7.536  0.2267 -0.0949  0.3975
 2072EOH      C 8292   1.902   6.912   7.427  0.3207  0.0886  0.2835
 2072EOH      H 8293   1.701   7.013   7.646  0.0754 -1.7092 -0.2703
 2073EOH      O 8294   1.115   4.478   6.349 -0.2338 -0.2410 -0.1146
 2073EOH      C 8295   1.047   4.429   6.465 -0.1656  0.4489  0.2262
 2073EOH      C 8296   0.917   4.355   6.427  0.6416 -0.5898 -0.5675
 2073EOH      H 8297   1.056   4.541   6.309  0.5498 -0.8476 -2.2710
 2074EOH      O 8298   3.474   1.513   5.025  0.7072 -0.6161 -0.0167
 2074EOH      C 8299   3.558   1.628   5.014 -0.3302  0.1637  0.1567
 2074EOH      C 8300   3.707   1.614   5.047 -0.1829  0.2583 -0.4651
 2074EOH      H 8301   3.401   1.535   5.081  0.8051  1.4835 -0.6644
 2075EOH      O 8302   7.848   1.008   4.745  0.1734 -0.0588 -0.5979
 2075EOH      C 8303   7.795   0.921   4.645 -0.1290 -0.4103 -0.1354
 2075EOH      C 8304   7.668   0.989   4.590 -0.3164  0.0673  0.8688
 2075EOH      H 8305   7.911   0.957   4.794 -1.3492 -0.9041  0.5443
 2076EOH      O 8306   0.955   4.566   2.344 -0.2972 -0.1356 -0.1513
 2076EOH      C 8307   0.970   4.681   2.428  0.3108  0.1984 -0.7174
 2076EOH      C 8308   1.036   4.799   2.354 -0.0587  0.4567 -0.6374
 2076EOH      H 8309   0.982   4.488   2.390  2.7086  2.5438  2.8683
 2077EOH      O 8310   6.403   1.939   2.510 -0.1749  0.4026 -0.9390
 2077EOH      C 8311   6.503   1.870   2.436  0.1913  0.1432 -0.2123
 2077EOH      C 8312   6.642   1.895   2.497  0.1786  0.2367 -0.2202
 2077EOH      H 8313   6.403   1.911   2.601  0.5894  1.6943 -0.5203
 2078EOH      O 8314   3.184   3.569   4.234 -0.0262 -0.4331  0.2446
 2078EOH      C 8315   3.063   3.499   4.205 -0.0602 -0.3100  0.0923
 2078EOH      C 8316   2.948   3.600   4.185  0.1932 -0.0500 -0.0619
 2078EOH      H 8317   3.249   3.515   4.192  0.8049 -0.5949  1.6950
 2079EOH      O 8318   1.436   5.170   7.117 -0.0946 -0.6557 -0.1287
 2079EOH      C 8319   1.362   5.200   6.999  0.3919 -0.0317 -0.2740
 2079EOH      C 8320   1.442   5.284   6.897  0.2994  0.0061 -0.3156
 2079EOH      H 8321   1.363   5.177   7.177 -1.2842  1.3276 -1.7425
 2080EOH      O 8322   0.468   4.588   2.153 -0.5918 -0.5889 -0.4983
 2080EOH      C 8323   0.579   4.499   2.137 -0.0396 -0.0206  0.1240
 2080EOH      C 8324   0.580   4.441   1.994 -0.2183 -0.8945  0.4756
 2080EOH      H 8325   0.464   4.611   2.245 -0.7296 -2.3186 -0.0554
 2081EOH      O 8326   2.754   0.707   5.997  0.2551  0.4385 -0.2156
 2081EOH      C 8327   2.634   0.635   5.969  0.3741  0.1720 -0.0352
 2081EOH      C 8328   2.628   0.567   5.831 -0.4321 -0.3557  0.2550
 2081EOH      H 8329   2.743   0.734   6.086  0.0491  0.2172 -0.1739
 2082EOH      O 8330   1.652   4.412   7.435  0.2711 -0.3615  0.0989
 2082EOH      C 8331   1.706   4.414   7.303 -0.3146  0.1771 -0.1364
 2082EOH      C 8332   1.845   4.354   7.330 -0.4360  0.0110  0.1245
 2082EOH      H 8333   1.716   4.447   7.495 -1.2090  0.8965  0.9908
 2083EOH      O 8334   2.569   5.361   1.364  0.1080  0.1469  0.2137
 2083EOH      C 8335   2.651   5.289   1.272 -0.4157  0.5755 -0.5890
 2083EOH      C 8336   2.748   5.381   1.197  0.3384  0.2643  0.0081
 2083EOH      H 8337   2.505   5.409   1.314 -1.7439 -1.6876  0.7650
 2084EOH      O 8338   3.188   0.285   1.123  0.2393  0.1702 -0.5811
 2084EOH      C 8339   3.271   0.354   1.217  0.1483  0.1102 -0.4556
 2084EOH      C 8340   3.399   0.278   1.255 -0.0501 -0.0506 -0.1064
 2084EOH      H 8341   3.107   0.330   1.105 -0.1658  0.3809  1.6258
 2085EOH      O 8342   2.523   1.611   7.820 -0.3599 -0.6496 -0.2660
 2085EOH      C 8343   2.609   1.593   7.932 -0.2011  0.3486 -0.2247
 2085EOH      C 8344   2.676   1.725   7.975 -0.3472  0.3635 -0.0394
 2085EOH      H 8345   2.551   1.548   7.755 -0.3022  0.8182 -1.6730
 2086EOH      O 8346   0.538   4.507   2.602  0.2507 -0.0606 -0.0412
 2086EOH      C 8347   0.416   4.446   2.643  0.1169  0.3761  0.2156
 2086EOH      C 8348   0.327   4.562   2.691 -0.1339  0.2850 -0.0244
 2086EOH      H 8349   0.603   4.441   2.583  0.6507 -0.2675  1.9388
 2087EOH      O 8350   2.291   6.847   6.220 -0.1995  0.1075  0.6709
 2087EOH      C 8351   2.165   6.886   6.274 -0.6897 -0.2050 -0.2356
 2087EOH      C 8352   2.084   6.758   6.302 -0.9227  0.1028  0.5174
 2087EOH      H 8353   2.349   6.921   6.232 -2.4728  1.7580  1.8756
 2088EOH      O 8354   3.435   4.536   3.303 -0.0180 -0.2607  0.3538
 2088EOH      C 8355   3.563   4.576   3.352  0.0782 -0.4111  0.2278
 2088EOH      C 8356   3.655   4.455   3.329  0.5671  0.0563 -0.3205
 2088EOH      H 8357   3.394   4.614   3.267  1.8959  0.4753 -0.2746
 2089EOH      O 8358   1.069   6.859   6.011  0.2983  0.0136  0.1037
 2089EOH      C 8359   1.097   6.781   6.127  0.2041 -0.4283 -0.1676
 2089EOH      C 8360   1.220   6.850   6.189  0.3403 -0.6242 -0.2212
 2089EOH      H 8361   0.975   6.870   6.006 -0.3076 -1.9118  4.5739
 2090EOH      O 8362   4.827   3.168   5.734 -0.1636 -0.0146  0.3959
 2090EOH      C 8363   4.757   3.185   5.610  0.4756 -0.0511  0.0300
 2090EOH      C 8364   4.827   3.293   5.525  0.2355 -0.2697 -0.4494
 2090EOH      H 8365   4.808   3.242   5.789 -1.4945  0.3278 -0.4930
 2091EOH      O 8366   4.900   1.947   4.127 -0.0018  0.1795 -0.9188
 2091EOH      C 8367   4.977   1.832   4.092  0.1615  0.0752 -0.2279
 2091EOH      C 8368   4.976   1.742   4.217 -0.0210  0.2994 -0.0674
 2091EOH      H 8369   4.945   2.021   4.090 -1.0427  0.1019 -2.3784
 2092EOH      O 8370   0.919   4.029   0.387  0.6162 -0.3854 -0.5964
 2092EOH      C 8371   0.927   3.886   0.397  0.1002 -0.3639  0.1593
 2092EOH      C 8372   0.911   3.840   0.543 -0.2829 -0.3804  0.1139
 2092EOH      H 8373   0.884   4.065   0.467  2.6272 -0.7368  0.4755
 2093EOH      O 8374   1.038   3.446   7.422  0.2054  0.2390 -0.2661
 2093EOH      C 8375   1.028   3.312   7.372 -0.2169  0.1388  0.0922
 2093EOH      C 8376   1.005   3.294   7.221  0.3848  0.0018  0.0163
 2093EOH      H 8377   0.981   3.455   7.496  0.2376 -1.7159  0.0186
 2094EOH      O 8378   3.443   3.022   1.402 -0.3687  0.3722  0.1223
 2094EOH      C 8379   3.438   3.120   1.507 -0.1455  0.3904  0.1147
 2094EOH      C 8380   3.395   3.058   1.641 -0.1280  0.1677  0.0177
 2094EOH      H 8381   3.487   3.076   1.338 -3.9570  0.8748 -2.0614
 2095EOH      O 8382   0.977   4.599   5.910  0.2266 -0.2809  0.0133
 2095EOH      C 8383   0.995   4.683   5.796 -0.4715 -0.0853  0.0465
 2095EOH      C 8384   1.119   4.770   5.820 -0.5781  0.0561  0.0880
 2095EOH      H 8385   0.920   4.527   5.887 -0.0741 -0.1075  0.2163
 2096EOH      O 8386   2.599   5.467   6.386 -0.2916 -0.6147  0.3954
 2096EOH      C 8387   2.457   5.453   6.374 -0.4235  0.1524  1.0039
 2096EOH      C 8388   2.396   5.594   6.377  0.0572  0.3787  0.1885
 2096EOH      H 8389   2.638   5.382   6.371 -0.1704 -0.1559 -2.1001
 2097EOH      O 8390   2.940   5.198   5.708  0.5051 -0.0878  0.4575
 2097EOH      C 8391   2.998   5.328   5.699  0.2143  0.0687  0.8754
 2097EOH      C 8392   3.146   5.295   5.677  0.0486  0.0193 -0.1894
 2097EOH      H 8393   2.945   5.157   5.622  0.1512  1.1033 -0.1310
 2098EOH      O 8394   4.237   1.439   6.529  0.1198 -0.9069 -0.1548
 2098EOH      C 8395   4.119   1.361   6.542 -0.6351  0.2634  0.1114
 2098EOH      C 8396   4.022   1.405   6.430 -0.4929 -0.1339 -0.1724
 2098EOH      H 8397   4.286   1.425   6.609  0.0436 -1.4409 -0.2048
 2099EOH      O 8398   6.144   1.739   2.664  0.9463  0.4247  0.0600
 2099EOH      C 8399   6.095   1.807   2.548 -0.1826  0.3823  0.5117
 2099EOH      C 8400   5.943   1.828   2.557 -0.2745  0.1561 -0.3978
 2099EOH      H 8401   6.225   1.778   2.695  0.7975  0.1142  0.8371
 2100EOH      O 8402   0.499   1.613   6.421  0.3509  0.7974 -0.0697
 2100EOH      C 8403   0.441   1.712   6.506 -0.2573  0.4662 -0.0903
 2100EOH      C 8404   0.551   1.820   6.520 -0.1709  0.3817 -0.1157
 2100EOH      H 8405   0.434   1.546   6.404 -0.1757  0.7941  1.8513
 2101EOH      O 8406   0.747   0.182   0.562 -0.2267  0.5430  0.3260
 2101EOH      C 8407   0.777   0.095   0.671  0.6414  0.1473 -0.2276
 2101EOH      C 8408   0.839  -0.030   0.606 -0.2027 -0.3510 -0.0824
 2101EOH      H 8409   0.828   0.218   0.529 -0.9773  2.3844  0.4471
 2102EOH      O 8410   5.273   3.023   5.018  0.1348 -0.3834  0.0982
 2102EOH      C 8411   5.207   3.004   4.892  0.3322  0.1218 -0.0824
 2102EOH      C 8412   5.071   3.075   4.888  0.2814  0.0483  0.3383
 2102EOH      H 8413   5.352   2.972   5.012 -0.2336 -0.7183 -2.6016
 2103EOH      O 8414   0.435   1.347   1.063  0.2835 -0.3860 -0.0978
 2103EOH      C 8415   0.385   1.227   1.003 -0.2088 -0.2608  0.0559
 2103EOH      C 8416   0.277   1.162   1.091 -0.1536 -0.1154  0.2308
 2103EOH      H 8417   0.523   1.330   1.093 -0.2851  0.1289  1.9629
 2104EOH      O 8418   0.320   1.716   3.489  0.3588 -0.0275 -0.5236
 2104EOH      C 8419   0.217   1.766   3.575  0.8051 -0.3181  0.1810
 2104EOH      C 8420   0.120   1.650   3.605  0.4383  0.0836  0.5642
 2104EOH      H 8421   0.276   1.679   3.414  1.1208 -0.2754 -0.8519
 2105EOH      O 8422   1.149   4.216   7.127 -0.3629 -0.4843  0.6056
 2105EOH      C 8423   1.149   4.359   7.128  0.3578 -0.4814  0.2424
 2105EOH      C 8424   1.254   4.386   7.237  0.4559 -0.8468  0.2377
 2105EOH      H 8425   1.140   4.183   7.039 -0.9687 -0.3267  0.6049
 2106EOH      O 8426   1.540   4.110   2.423  0.1812  0.4011  0.0220
 2106EOH      C 8427   1.589   4.140   2.554 -0.3334 -0.2813  0.3750
 2106EOH      C 8428   1.486   4.241   2.608 -0.2163 -0.0654  0.1983
 2106EOH      H 8429   1.591   4.034   2.398  1.3915  0.6881  1.5196
 2107EOH      O 8430   7.819   6.200   2.814 -0.4757  0.4321  0.3326
 2107EOH      C 8431   7.885   6.192   2.941  0.0030  0.8382  0.1147
 2107EOH      C 8432   7.778   6.152   3.044  0.3951 -0.1634  0.1416
 2107EOH      H 8433   7.853   6.128   2.763  2.4881  1.2285  1.0633
 2108EOH      O 8434   0.266   7.836   2.566  0.4253  0.7325  0.0358
 2108EOH      C 8435   0.135   7.890   2.550  0.1676  0.2529  0.5123
 2108EOH      C 8436   0.130   8.023   2.627  0.0179  0.6460 -0.1648
 2108EOH      H 8437   0.284   7.786   2.488 -1.4631  0.6325 -0.3618
 2109EOH      O 8438   3.549   1.786   0.515 -0.0749 -0.0879 -0.0290
 2109EOH      C 8439   3.523   1.830   0.381  0.3734  0.2945  0.0071
 2109EOH      C 8440   3.548   1.720   0.276 -0.3315  0.0425  0.0969
 2109EOH      H 8441   3.626   1.820   0.558  0.1207 -0.8942  0.2607
 2110EOH      O 8442   4.893   4.815   5.112  0.4460  0.5217 -0.6304
 2110EOH      C 8443   5.008   4.799   5.197 -0.0074 -0.3000 -0.1601
 2110EOH      C 8444   4.980   4.881   5.324  0.0109 -0.2893 -0.1634
 2110EOH      H 8445   4.910   4.884   5.050 -0.7931 -0.1406 -1.7196
 2111EOH      O 8446   4.297   1.851   4.197  0.8275  0.2702  0.0946
 2111EOH      C 8447   4.248   1.816   4.067 -0.0001 -0.0915  0.5037
 2111EOH      C 8448   4.167   1.935   4.012  0.8019  0.1299 -0.2010
 2111EOH      H 8449   4.366   1.790   4.216 -0.6869 -1.8862 -1.1000
 2112EOH      O 8450   5.753   2.009   4.188  0.4141  0.1943 -0.2316
 2112EOH      C 8451   5.756   1.918   4.297  0.0821 -0.4106 -0.7222
 2112EOH      C 8452   5.902   1.874   4.320  0.0361 -0.5027 -0.6025
 2112EOH      H 8453   5.667   2.050   4.189  0.0085 -0.6623  1.3724
 2113EOH      O 8454   2.775   3.144   0.349 -0.8072 -0.5522 -0.4947
 2113EOH      C 8455   2.782   3.281   0.310  0.5331 -0.5681 -0.3190
 2113EOH      C 8456   2.644   3.334   0.269  0.4688 -0.3652  0.1500
 2113EOH      H 8457   2.693   3.139   0.398 -0.7028  1.5017 -0.0730
 2114EOH      O 8458   1.633   5.026   2.936  0.0249 -0.5386 -0.6107
 2114EOH      C 8459   1.493   5.019   2.967  0.2937  0.0246  0.7428
 2114EOH      C 8460   1.439   4.876   2.947  0.5213  0.0170  0.1849
 2114EOH      H 8461   1.668   5.106   2.973  0.3472 -0.9298 -0.0786
 2115EOH      O 8462   0.970   4.548   1.105 -0.3728 -0.5265 -0.2071
 2115EOH      C 8463   1.064   4.654   1.089 -0.2004 -0.6280  0.1340
 2115EOH      C 8464   1.028   4.769   1.185  0.1279 -0.2656 -0.1749
 2115EOH      H 8465   0.883   4.583   1.099  0.4467  1.5922 -0.0041
 2116EOH      O 8466   0.973   2.891   5.773  0.1518 -0.1047  0.1139
 2116EOH      C 8467   0.922   2.869   5.641  0.0964 -0.6626  0.2288
 2116EOH      C 8468   0.961   2.972   5.533  0.6586 -0.7447  0.3500
 2116EOH      H 8469   0.927   2.842   5.839 -0.4765  0.4003  0.0646
 2117EOH      O 8470   0.952   7.578   6.285  0.0572  0.6248  0.1142
 2117EOH      C 8471   1.045   7.654   6.362  0.5520 -0.0438  0.1842
 2117EOH      C 8472   0.975   7.789   6.388  0.2777  0.0064 -0.7890
 2117EOH      H 8473   1.002   7.523   6.226 -1.9831 -0.4631 -0.6520
 2118EOH      O 8474   4.191   0.503   4.702  0.3260 -0.1150 -0.1908
 2118EOH      C 8475   4.093   0.487   4.805  0.2764  0.4116 -0.1585
 2118EOH      C 8476   4.128   0.351   4.868 -0.5238  0.4830  0.4540
 2118EOH      H 8477   4.167   0.580   4.653 -2.2055  0.1832  1.3979
 2119EOH      O 8478   1.670   0.369   3.512 -0.2417  0.0640  0.4062
 2119EOH      C 8479   1.737   0.335   3.390 -0.1759 -0.7974  0.6785
 2119EOH      C 8480   1.875   0.392   3.428 -0.5041  0.8425 -0.5322
 2119EOH      H 8481   1.668   0.296   3.572 -4.5994  0.2956  0.7398
 2120EOH      O 8482   4.354   3.884   3.047 -0.2285  0.6125 -0.0209
 2120EOH      C 8483   4.405   3.760   2.997  0.0323  0.7411 -0.0741
 2120EOH      C 8484   4.556   3.790   2.987  0.3055 -0.3772  0.6693
 2120EOH      H 8485   4.266   3.856   3.065  0.0895 -0.1464  0.3963
 2121EOH      O 8486   2.700   0.952   5.201  0.3561  0.1195 -0.3241
 2121EOH      C 8487   2.662   1.089   5.218 -0.0683 -0.0885  0.3771
 2121EOH      C 8488   2.758   1.176   5.137  0.6640 -1.2926 -0.0609
 2121EOH      H 8489   2.766   0.935   5.267 -0.3846  0.2850  0.4610
 2122EOH      O 8490   4.647   3.949   6.600  0.3341  0.0963  0.4642
 2122EOH      C 8491   4.513   3.920   6.559  0.5195  0.2718 -0.2583
 2122EOH      C 8492   4.464   3.818   6.663  0.2277  0.1015 -0.5608
 2122EOH      H 8493   4.651   4.033   6.643 -2.2820  0.4337  0.1201
 2123EOH      O 8494   6.734   1.509   4.101 -0.0709 -0.3377 -0.2045
 2123EOH      C 8495   6.749   1.637   4.163  0.2062 -0.2513 -0.4499
 2123EOH      C 8496   6.735   1.614   4.315 -0.1455  0.5157 -0.3673
 2123EOH      H 8497   6.739   1.523   4.008 -0.7781  1.6271  0.0312
 2124EOH      O 8498   1.434   4.390   1.459  0.1845 -0.2851  0.2658
 2124EOH      C 8499   1.308   4.456   1.443  0.2722 -0.1326  0.1948
 2124EOH      C 8500   1.291   4.579   1.534  1.1748  0.2090 -0.1060
 2124EOH      H 8501   1.421   4.309   1.506 -0.6154  0.9512  2.2583
 2125EOH      O 8502   2.140   2.491   6.343 -0.0114  0.3013 -0.1705
 2125EOH      C 8503   2.043   2.538   6.437  0.1167  0.2010  0.0105
 2125EOH      C 8504   2.105   2.547   6.578  0.6642  0.1717 -0.2260
 2125EOH      H 8505   2.170   2.572   6.304  2.5012 -0.2984  0.4292
 2126EOH      O 8506   4.352   3.113   4.317 -0.0233 -0.0233 -0.4014
 2126EOH      C 8507   4.251   3.050   4.238  0.0363  0.1317 -0.5993
 2126EOH      C 8508   4.266   2.897   4.253 -0.3721  0.0747 -0.7616
 2126EOH      H 8509   4.331   3.205   4.322 -0.4870 -0.1549  0.2453
 2127EOH      O 8510   3.098   2.133   6.482 -0.2209  0.3816 -0.2523
 2127EOH      C 8511   3.113   2.201   6.358 -0.0716  0.3474 -0.2536
 2127EOH      C 8512   3.189   2.331   6.390 -0.4131  0.5856 -0.4070
 2127EOH      H 8513   3.018   2.082   6.484  0.1549 -0.2221 -0.4093
 2128EOH      O 8514   0.629   2.393   1.390  0.0575 -0.0177 -0.0763
 2128EOH      C 8515   0.559   2.293   1.316 -0.2869  0.0517  0.1537
 2128EOH      C 8516   0.481   2.359   1.201  0.2169  0.8667  0.2831
 2128EOH      H 8517   0.716   2.391   1.353  0.0168  2.7374 -0.4232
 2129EOH      O 8518   1.299   0.029   2.896 -0.2980  0.3226 -0.4073
 2129EOH      C 8519   1.436   0.071   2.899  0.1118 -1.0152  0.0533
 2129EOH      C 8520   1.459   0.115   3.045  0.1528 -0.0013 -0.2527
 2129EOH      H 8521   1.266   0.020   2.808 -0.5113 -1.8329 -0.1190
 2130EOH      O 8522   4.820   5.355   3.776 -0.2697 -0.0863 -0.3242
 2130EOH      C 8523   4.908   5.348   3.888 -0.0784 -0.3880 -0.4895
 2130EOH      C 8524   4.864   5.244   3.993  0.1666  0.3570  0.3562
 2130EOH      H 8525   4.868   5.403   3.711 -0.3672  1.8169  0.9826
 2131EOH      O 8526   2.713   1.100   0.659 -0.0975 -0.2835  0.1118
 2131EOH      C 8527   2.623   1.088   0.549 -0.0589  0.0076  0.0500
 2131EOH      C 8528   2.506   0.995   0.586 -0.5996  0.5119 -0.3798
 2131EOH      H 8529   2.784   1.040   0.641 -0.8301 -1.0942 -0.1075
 2132EOH      O 8530   7.548   1.864   1.235  0.0641 -0.4119 -0.3178
 2132EOH      C 8531   7.415   1.852   1.287 -0.0022  0.7448 -0.2047
 2132EOH      C 8532   7.320   1.890   1.172 -0.0200  0.4298 -0.2948
 2132EOH      H 8533   7.604   1.802   1.278 -0.7175  0.2848  1.7635
 2133EOH      O 8534   2.876   2.996   5.414 -0.0769 -0.0925 -0.0309
 2133EOH      C 8535   2.748   2.987   5.349  0.0123 -0.2856 -0.1823
 2133EOH      C 8536   2.637   2.969   5.454  0.1934  0.0804  0.0748
 2133EOH      H 8537   2.944   2.970   5.354 -0.5060 -3.3778  0.8196
 2134EOH      O 8538   4.159   6.786   5.761  0.2336 -0.2321 -0.1188
 2134EOH      C 8539   4.163   6.695   5.870  1.2174  0.1713  0.1877
 2134EOH      C 8540   4.218   6.767   5.995 -0.0116  0.2894  0.6621
 2134EOH      H 8541   4.096   6.853   5.782 -0.0798 -0.5186 -0.1431
 2135EOH      O 8542   0.548   0.715   5.862 -0.6775  0.0003  0.3197
 2135EOH      C 8543   0.566   0.828   5.948 -0.2168 -0.1648  0.4389
 2135EOH      C 8544   0.632   0.946   5.872  0.0697 -0.3993  0.3216
 2135EOH      H 8545   0.459   0.712   5.831 -0.9244  0.9423  0.9148
 2136EOH      O 8546   2.959   4.154   2.363  0.5646 -0.1482  0.3832
 2136EOH      C 8547   2.917   4.291   2.362 -0.3016 -0.4146 -0.0561
 2136EOH      C 8548   2.774   4.292   2.418 -0.4115  0.2587 -0.3458
 2136EOH      H 8549   2.967   4.125   2.274 -1.1714 -1.4181  0.6197
 2137EOH      O 8550   6.707   7.176   3.152 -0.7311 -0.0418 -0.1540
 2137EOH      C 8551   6.777   7.083   3.069  0.1216  0.2921  0.1959
 2137EOH      C 8552   6.803   6.954   3.148  0.1794 -0.2316 -0.6760
 2137EOH      H 8553   6.615   7.164   3.131 -0.6237 -0.4867 -0.3585
 2138EOH      O 8554   3.400   6.548   3.570 -0.5925 -0.4745  0.4700
 2138EOH      C 8555   3.353   6.585   3.440  0.3458 -0.1816  0.2118
 2138EOH      C 8556   3.249   6.478   3.401 -0.7236  0.9340  0.0008
 2138EOH      H 8557   3.478   6.594   3.597 -1.0328 -0.0871  1.1162
 2139EOH      O 8558   0.138   0.617   4.775  0.3094 -0.2211 -0.3436
 2139EOH      C 8559   0.140   0.582   4.637  0.0274  0.2564 -0.4684
 2139EOH      C 8560   0.217   0.456   4.594 -0.1218  0.2947 -0.8491
 2139EOH      H 8561   0.115   0.533   4.813 -0.7263  0.5820  0.8338
 2140EOH      O 8562   0.915   0.665   5.958  0.5122 -0.5423 -0.3352
 2140EOH      C 8563   0.902   0.683   5.817  0.5358  0.1722 -0.2464
 2140EOH      C 8564   1.000   0.787   5.758  0.8502 -0.2289 -0.4282
 2140EOH      H 8565   0.858   0.596   5.989  1.2849 -0.6104  1.0132
 2141EOH      O 8566   0.190   7.063   3.513 -0.1203  0.1190 -0.1006
 2141EOH      C 8567   0.061   7.087   3.568 -0.2526 -0.1007 -0.3144
 2141EOH      C 8568   0.020   6.953   3.631 -0.2422  0.0040 -0.0870
 2141EOH      H 8569   0.175   7.031   3.425  0.2760 -1.2453  0.3168
 2142EOH      O 8570   1.533   1.683   1.981  0.4055  0.3634 -0.1151
 2142EOH      C 8571   1.664   1.627   1.986  0.1868 -0.1881 -0.4479
 2142EOH      C 8572   1.763   1.741   1.953  0.2460 -0.0258  0.2713
 2142EOH      H 8573   1.508   1.693   1.890  1.5467  1.4114 -0.3396
 2143EOH      O 8574   1.202   3.322   2.767 -0.2699  0.2673 -0.4094
 2143EOH      C 8575   1.157   3.318   2.631  0.1004 -0.0859 -0.5255
 2143EOH      C 8576   1.281   3.347   2.545  0.3087  0.3568 -0.0835
 2143EOH      H 8577   1.131   3.346   2.824  0.5375 -1.9019  1.5954
 2144EOH      O 8578   6.869   0.552   3.409  0.5569  0.6611  0.1712
 2144EOH      C 8579   6.895   0.418   3.454 -0.1488  0.3126 -0.4430
 2144EOH      C 8580   6.827   0.319   3.358 -0.2598 -0.0634  0.0225
 2144EOH      H 8581   6.919   0.610   3.465 -0.9811  2.7916 -0.6122
 2145EOH      O 8582   2.443   6.394   3.154 -0.3503  0.4428  0.8203
 2145EOH      C 8583   2.313   6.431   3.108 -0.1049 -0.2773 -0.4759
 2145EOH      C 8584   2.202   6.390   3.207  0.1694  0.6655  0.2366
 2145EOH      H 8585   2.444   6.302   3.177 -0.9923 -0.0210 -0.9048
 2146EOH      O 8586   1.934   7.453   4.994  0.3757 -0.5351  0.3606
 2146EOH      C 8587   2.047   7.541   4.999 -0.2436  0.2846  0.1513
 2146EOH      C 8588   2.037   7.617   4.866 -0.5841 -0.2886 -0.1511
 2146EOH      H 8589   1.861   7.501   5.029  0.0795  0.3169 -1.3669
 2147EOH      O 8590   1.072   2.710   3.742 -0.3401 -0.0834  0.2928
 2147EOH      C 8591   1.018   2.738   3.872 -0.5641 -0.2003  0.2242
 2147EOH      C 8592   0.958   2.878   3.893  0.4345  0.3032 -0.2301
 2147EOH      H 8593   1.026   2.647   3.690  0.3858 -0.2371 -0.1747
 2148EOH      O 8594   4.395   1.546   5.037  0.2836  0.0972  0.4841
 2148EOH      C 8595   4.313   1.462   4.956  0.3679  0.1033  0.3912
 2148EOH      C 8596   4.208   1.558   4.899  0.3615  0.1514  0.4846
 2148EOH      H 8597   4.447   1.604   4.982  0.9816  0.2596  1.3123
 2149EOH      O 8598   0.665   6.293   2.254 -0.4009 -0.9438 -0.0011
 2149EOH      C 8599   0.573   6.394   2.215  0.2103 -0.1956  0.4937
 2149EOH      C 8600   0.545   6.478   2.342  0.5299  0.3420  0.2113
 2149EOH      H 8601   0.696   6.242   2.180  0.4301  0.6985 -0.8115
 2150EOH      O 8602   2.377   4.648   4.704 -0.6186  0.6095  0.2097
 2150EOH      C 8603   2.410   4.723   4.587  0.8125 -0.9800 -0.4148
 2150EOH      C 8604   2.501   4.835   4.640 -0.3053 -0.1488 -0.2438
 2150EOH      H 8605   2.308   4.587   4.682 -2.3170  1.7325  2.2253
 2151EOH      O 8606   1.585   1.709   1.334  0.2629 -0.0688  0.4773
 2151EOH      C 8607   1.676   1.807   1.282  0.2810 -0.0417  0.5606
 2151EOH      C 8608   1.803   1.813   1.368  0.6137  0.2906  0.0480
 2151EOH      H 8609   1.501   1.727   1.296 -0.0834 -2.2255  0.1535
 2152EOH      O 8610   6.756   7.602   3.044  0.1712 -0.2475 -0.2111
 2152EOH      C 8611   6.677   7.517   2.960  0.2823 -0.4378 -0.1239
 2152EOH      C 8612   6.769   7.470   2.845  0.2994  0.0060 -0.2923
 2152EOH      H 8613   6.833   7.552   3.068  0.1070 -1.2978 -2.0537
 2153EOH      O 8614   7.552   0.413   3.883 -0.2721  0.9088  0.4430
 2153EOH      C 8615   7.428   0.445   3.820 -0.0145  0.5176 -0.2615
 2153EOH      C 8616   7.396   0.344   3.708  0.2321  0.3154 -0.1489
 2153EOH      H 8617   7.535   0.335   3.933  0.8087  0.4332  0.0856
 2154EOH      O 8618   5.810   0.081   4.356 -0.2875 -0.0275 -0.0492
 2154EOH      C 8619   5.884   0.112   4.237  0.0225  0.2655  0.2200
 2154EOH      C 8620   5.818   0.209   4.137  0.3227  0.0603 -0.1766
 2154EOH      H 8621   5.847   0.140   4.420  0.7762 -0.6042 -0.1310
 2155EOH      O 8622   1.536   2.905   6.778 -0.2064  0.2104  0.1888
 2155EOH      C 8623   1.432   2.901   6.679  0.1365 -0.4537 -0.1468
 2155EOH      C 8624   1.377   3.043   6.695  0.4339 -0.3469 -0.0548
 2155EOH      H 8625   1.598   2.969   6.747 -0.3313  0.0328 -0.4401
 2156EOH      O 8626   3.312   1.445   7.493 -0.2006 -0.2421 -0.2169
 2156EOH      C 8627   3.229   1.555   7.454  0.1341  0.0758 -0.0318
 2156EOH      C 8628   3.098   1.557   7.534 -0.0439 -0.3131 -0.3078
 2156EOH      H 8629   3.374   1.427   7.424 -0.4960  2.1317 -1.1464
 2157EOH      O 8630   1.220   1.603   6.854  0.4542 -0.3776 -0.0070
 2157EOH      C 8631   1.218   1.461   6.845  0.0771 -0.3742  0.0185
 2157EOH      C 8632   1.094   1.419   6.925 -0.2997  0.3006 -0.2158
 2157EOH      H 8633   1.289   1.634   6.796 -0.4225  0.4157 -0.6470
 2158EOH      O 8634   3.849   1.155   6.722 -0.5046 -0.0897  0.4666
 2158EOH      C 8635   3.735   1.146   6.635 -0.0859 -0.1282 -0.0841
 2158EOH      C 8636   3.644   1.036   6.692 -0.4119  0.4184  0.4491
 2158EOH      H 8637   3.894   1.072   6.726  0.1434  0.1227 -1.6748
 2159EOH      O 8638   5.080   3.152   5.734  0.0835  0.7133  0.4494
 2159EOH      C 8639   5.125   3.147   5.870 -0.0638 -0.3871  0.4676
 2159EOH      C 8640   5.218   3.025   5.862  0.2365 -0.0761 -1.0315
 2159EOH      H 8641   4.986   3.156   5.744 -0.2198  0.3058 -1.8507
 2160EOH      O 8642   0.175   3.487   7.354 -0.7762 -0.0800 -0.0529
 2160EOH      C 8643   0.210   3.622   7.322  0.5745 -0.3982  0.0865
 2160EOH      C 8644   0.230   3.624   7.169 -0.0848 -0.2341  0.0025
 2160EOH      H 8645   0.166   3.489   7.448 -0.2339  2.4677 -0.0039
 2161EOH      O 8646   1.285   7.445   2.936  0.2872 -1.1389 -0.1711
 2161EOH      C 8647   1.386   7.546   2.953 -0.5548 -0.3450  0.1259
 2161EOH      C 8648   1.489   7.481   3.046 -0.7695 -0.4199  0.3119
 2161EOH      H 8649   1.208   7.484   2.897 -0.2536  0.3994  2.3561
 2162EOH      O 8650   3.095   6.792   5.073 -0.1345 -0.0541 -0.6365
 2162EOH      C 8651   3.114   6.719   4.951  0.3178 -0.2255 -0.4687
 2162EOH      C 8652   2.985   6.690   4.872  0.0450  0.0202 -0.1190
 2162EOH      H 8653   3.042   6.730   5.120 -2.6335  2.6737  0.2259
 2163EOH      O 8654   0.188   0.813   4.335 -0.4088  0.1651  0.1599
 2163EOH      C 8655   0.059   0.870   4.314 -0.6105 -0.0192  0.8690
 2163EOH      C 8656  -0.035   0.750   4.297 -0.6865  0.2013 -0.3086
 2163EOH      H 8657   0.235   0.873   4.391 -0.4571 -0.2539  0.6575
 2164EOH      O 8658   3.566   1.342   0.577  0.1547  0.0654 -0.0602
 2164EOH      C 8659   3.684   1.312   0.652 -0.1747 -0.6631  0.1703
 2164EOH      C 8660   3.795   1.407   0.606 -0.0594 -0.3770  1.0283
 2164EOH      H 8661   3.531   1.425   0.606  1.5158  1.6238 -2.6932
 2165EOH      O 8662   6.731   7.245   3.890  0.0828 -0.2620  0.1237
 2165EOH      C 8663   6.852   7.170   3.898  0.5721  0.5249  0.1395
 2165EOH      C 8664   6.832   7.037   3.823  0.0520  0.3960  0.5018
 2165EOH      H 8665   6.659   7.190   3.919 -0.9532  0.8583 -0.2518
 2166EOH      O 8666   5.177   3.233   4.463 -0.5409 -0.1400  0.1704
 2166EOH      C 8667   5.281   3.331   4.454 -0.6370 -0.0293  0.2537
 2166EOH      C 8668   5.227   3.471   4.485  0.1437  0.3992 -0.3190
 2166EOH      H 8669   5.215   3.147   4.455 -1.2250 -0.6949  2.5527
 2167EOH      O 8670   3.164   1.204   6.828  0.5506 -0.2715  0.4178
 2167EOH      C 8671   3.270   1.179   6.735  0.2245 -0.0825 -0.0060
 2167EOH      C 8672   3.262   1.029   6.700  0.1284 -0.2398  0.6761
 2167EOH      H 8673   3.183   1.154   6.907 -0.4658 -1.4104 -0.0340
 2168EOH      O 8674   2.537   0.946   7.205  0.2409  0.0451  0.6203
 2168EOH      C 8675   2.461   1.067   7.216 -0.4255 -0.2559 -0.5820
 2168EOH      C 8676   2.536   1.201   7.206 -0.6454 -0.0706  0.2307
 2168EOH      H 8677   2.490   0.869   7.231 -0.0728 -2.0267 -5.2020
 2169EOH      O 8678   0.956   6.270   0.094  0.5869 -0.2573  0.1595
 2169EOH      C 8679   0.996   6.317  -0.035  0.1836 -0.0459  0.1091
 2169EOH      C 8680   0.919   6.441  -0.084 -0.0072 -0.2468 -0.1020
 2169EOH      H 8681   1.023   6.304   0.150  1.6562 -1.5423 -0.3142
 2170EOH      O 8682   4.726   6.768   4.288 -0.3023  0.4989 -0.0419
 2170EOH      C 8683   4.633   6.774   4.179  0.0956  0.7006 -0.3683
 2170EOH      C 8684   4.523   6.878   4.204 -0.3318  0.0817  0.3498
 2170EOH      H 8685   4.681   6.709   4.348 -2.8241  0.6092 -1.7452
 2171EOH      O 8686   1.278   2.612   1.790  0.3160  0.6659 -0.5546
 2171EOH      C 8687   1.308   2.486   1.731  0.0263  0.3378 -0.0066
 2171EOH      C 8688   1.377   2.391   1.831  0.2847 -0.1992 -0.6919
 2171EOH      H 8689   1.217   2.595   1.860  0.1892  1.8475 -0.3694
 2172EOH      O 8690   2.614   4.450   7.132  0.2977 -0.3967  0.2562
 2172EOH      C 8691   2.619   4.310   7.106  0.1960 -0.3508 -0.0058
 2172EOH      C 8692   2.734   4.250   7.189  0.4748 -0.1223 -0.2278
 2172EOH      H 8693   2.534   4.489   7.101 -0.0998 -0.2261  1.4521
 2173EOH      O 8694   1.205   2.307   0.615 -0.6628 -0.8321 -0.3161
 2173EOH      C 8695   1.175   2.422   0.536  0.7041 -0.0823  0.2299
 2173EOH      C 8696   1.252   2.425   0.402  0.1849 -0.9258 -0.0944
 2173EOH      H 8697   1.298   2.296   0.629 -0.7335 -1.1632 -0.1027
 2174EOH      O 8698   3.554   4.093   3.216 -0.2544 -0.3444  0.1846
 2174EOH      C 8699   3.605   4.090   3.083  0.1056  0.5210  0.3007
 2174EOH      C 8700   3.759   4.093   3.068  0.1191  0.3572  0.4034
 2174EOH      H 8701   3.495   4.166   3.225 -1.5683 -1.4256  0.3908
 2175EOH      O 8702   1.479   3.468   4.423 -0.2307 -0.3859 -0.2528
 2175EOH      C 8703   1.540   3.592   4.385 -0.0043 -0.3490  0.2173
 2175EOH      C 8704   1.524   3.696   4.497  0.0299 -0.1865  0.0709
 2175EOH      H 8705   1.519   3.400   4.371 -1.2718 -1.2793  0.1044
 2176EOH      O 8706   5.108   2.317   5.530 -0.5213  0.2875  0.8658
 2176EOH      C 8707   5.200   2.380   5.620 -0.0170  0.5417  0.1723
 2176EOH      C 8708   5.173   2.311   5.755  0.3058 -0.1171 -0.0964
 2176EOH      H 8709   5.120   2.224   5.540 -0.8559  0.1786  0.2282
 2177EOH      O 8710   1.872   6.084   4.798 -0.4071 -0.2860  0.0301
 2177EOH      C 8711   1.931   6.083   4.928 -0.2209  0.4490 -0.0480
 2177EOH      C 8712   2.064   6.006   4.927 -0.6052 -0.2246  0.2042
 2177EOH      H 8713   1.861   5.994   4.770  0.1738 -0.3983  0.1466
 2178EOH      O 8714   3.706   4.722   3.622 -0.7230  0.0288  0.8611
 2178EOH      C 8715   3.804   4.682   3.718  0.2386  0.1884 -0.0494
 2178EOH      C 8716   3.840   4.533   3.710  0.4872  0.2765 -0.6189
 2178EOH      H 8717   3.666   4.805   3.644  0.6595  1.1062 -0.5605
 2179EOH      O 8718   2.459   2.003   0.712  0.3535  0.3910 -0.5153
 2179EOH      C 8719   2.484   1.983   0.851 -0.4497  0.2257 -0.3876
 2179EOH      C 8720   2.558   1.849   0.858 -0.1832  0.3735 -0.3546
 2179EOH      H 8721   2.410   1.932   0.675 -0.1257  0.9528 -0.9724
 2180EOH      O 8722   2.044   1.314   5.945 -0.2968 -1.1353 -0.1313
 2180EOH      C 8723   1.914   1.330   5.890 -0.1217  0.3094 -0.1271
 2180EOH      C 8724   1.837   1.197   5.880 -0.0898  0.2490  0.4114
 2180EOH      H 8725   2.081   1.394   5.980 -0.4647 -0.1031 -2.2623
 2181EOH      O 8726   4.189   3.864   5.053 -0.2107  0.6450 -0.0979
 2181EOH      C 8727   4.260   3.975   5.109  0.6583 -0.2428  0.5897
 2181EOH      C 8728   4.345   4.037   4.997 -0.0076 -0.2550  0.0778
 2181EOH      H 8729   4.113   3.850   5.106  0.6083  1.3883  1.3091
 2182EOH      O 8730   2.082   7.411   3.131  0.4925 -0.0822 -0.0656
 2182EOH      C 8731   1.940   7.415   3.148  0.5390  0.2177  0.2642
 2182EOH      C 8732   1.923   7.334   3.279  0.5837 -0.2500 -0.0169
 2182EOH      H 8733   2.093   7.476   3.063  1.1566  0.4930  0.5888
 2183EOH      O 8734   2.138   0.309   5.977 -0.2987  0.4460 -0.0254
 2183EOH      C 8735   2.231   0.396   5.913 -0.1489  0.3549  0.0672
 2183EOH      C 8736   2.169   0.463   5.789 -0.3150  0.3258  0.1354
 2183EOH      H 8737   2.164   0.320   6.067  1.5137 -0.0410 -0.4642
 2184EOH      O 8738   0.064   1.420   3.211 -0.5139 -0.0025 -0.3921
 2184EOH      C 8739   0.046   1.351   3.336 -0.2017  0.0434 -0.3230
 2184EOH      C 8740   0.179   1.292   3.388 -0.1819  0.0880 -0.3226
 2184EOH      H 8741  -0.017   1.428   3.163 -0.3405 -0.5116 -0.7762
 2185EOH      O 8742   0.435   4.202   7.124 -0.9715  0.1000 -0.2251
 2185EOH      C 8743   0.306   4.143   7.107 -0.9644 -0.0029  0.0834
 2185EOH      C 8744   0.318   3.997   7.156 -0.2031 -0.1712 -0.5792
 2185EOH      H 8745   0.476   4.223   7.041  1.3499 -0.1298  0.8353
 2186EOH      O 8746   1.836   5.819   4.732 -0.4641 -0.2668  0.3890
 2186EOH      C 8747   1.870   5.746   4.614 -0.5847  0.2444  0.0334
 2186EOH      C 8748   1.799   5.809   4.493 -0.2465  0.2669 -0.1519
 2186EOH      H 8749   1.796   5.761   4.795  2.7022 -0.1143  2.6907
 2187EOH      O 8750   4.286   4.128   7.189 -0.0025 -0.0621  0.1862
 2187EOH      C 8751   4.156   4.185   7.202  0.1555  0.1850  0.7245
 2187EOH      C 8752   4.170   4.333   7.160  0.3573 -0.0482 -0.0366
 2187EOH      H 8753   4.341   4.185   7.240 -1.2782  0.1494  1.3451
 2188EOH      O 8754   7.310   6.335   3.314  0.0416 -0.2441 -0.2199
 2188EOH      C 8755   7.394   6.436   3.370  0.2359 -0.1240 -0.7232
 2188EOH      C 8756   7.536   6.423   3.311  0.3695  0.3754 -0.5135
 2188EOH      H 8757   7.253   6.386   3.258 -0.6946 -1.4984 -0.6211
 2189EOH      O 8758   7.867   5.731   2.815 -0.7514  0.4463  0.0320
 2189EOH      C 8759   7.855   5.614   2.896 -0.9694  0.2021 -0.3502
 2189EOH      C 8760   7.837   5.657   3.043 -0.4654  0.0963 -0.2547
 2189EOH      H 8761   7.890   5.701   2.729 -2.3050 -0.7697  0.0179
 2190EOH      O 8762   3.727   4.482   6.887 -0.8293 -0.2911  0.2676
 2190EOH      C 8763   3.762   4.484   7.025 -0.3076  0.1278  0.1306
 2190EOH      C 8764   3.642   4.512   7.118  0.0580  0.2973  0.5560
 2190EOH      H 8765   3.755   4.565   6.853  0.0290 -0.3850  0.7450
 2191EOH      O 8766   1.768   6.039   2.394 -0.0726 -0.5832 -0.3511
 2191EOH      C 8767   1.663   5.978   2.470  0.0713 -0.1418  0.2041
 2191EOH      C 8768   1.682   5.999   2.621 -0.2857  0.4009  0.1754
 2191EOH      H 8769   1.835   5.972   2.390 -0.7702 -1.4573  1.5496
 2192EOH      O 8770   3.114   6.344   3.860  0.2261  0.3006  0.0076
 2192EOH      C 8771   3.065   6.251   3.764 -0.0378  0.7825 -0.3257
 2192EOH      C 8772   2.963   6.338   3.687 -0.5991  0.5873  0.1893
 2192EOH      H 8773   3.188   6.388   3.822 -1.0391  2.1018 -0.4643
 2193EOH      O 8774   3.549   2.708   4.797 -0.4087  0.4478 -0.2096
 2193EOH      C 8775   3.476   2.777   4.898  0.3376  0.6733  0.1761
 2193EOH      C 8776   3.581   2.840   4.991  0.3858  0.4861  0.2481
 2193EOH      H 8777   3.480   2.651   4.764  0.9713 -2.4263  1.6811
 2194EOH      O 8778   1.433   2.914   3.901  0.6706  0.3377  0.1005
 2194EOH      C 8779   1.413   3.053   3.928 -0.0163  0.1872  0.3806
 2194EOH      C 8780   1.473   3.124   3.805 -0.3022 -0.0766  0.0888
 2194EOH      H 8781   1.380   2.882   3.830  0.9377 -4.3582  1.8660
 2195EOH      O 8782   5.105   3.361   6.517  0.4548 -0.3988  0.0205
 2195EOH      C 8783   5.205   3.463   6.527 -0.3196  0.3456  0.2279
 2195EOH      C 8784   5.180   3.585   6.436 -0.2912 -0.2907 -0.6369
 2195EOH      H 8785   5.149   3.280   6.539 -1.8898 -1.9024 -0.5729
 2196EOH      O 8786   0.333   6.451   1.554 -0.3548  0.1396  0.1032
 2196EOH      C 8787   0.354   6.415   1.690  0.1153 -0.1108 -0.0342
 2196EOH      C 8788   0.342   6.264   1.721 -0.8590  0.0276  0.2900
 2196EOH      H 8789   0.363   6.541   1.554 -1.9144  0.6743 -0.5130
 2197EOH      O 8790   1.799   0.220   7.374  0.3966 -0.0834 -0.0892
 2197EOH      C 8791   1.786   0.109   7.285  0.2081 -0.1474  0.0182
 2197EOH      C 8792   1.677   0.016   7.342 -0.1006  0.2093  0.0167
 2197EOH      H 8793   1.884   0.213   7.416  0.7665  0.9709 -0.6402
 2198EOH      O 8794   3.192   3.535   7.053  0.3065 -0.0888  0.0836
 2198EOH      C 8795   3.296   3.519   6.956  0.0491  0.2921 -0.2582
 2198EOH      C 8796   3.430   3.585   6.994 -0.0373 -0.1055  0.7525
 2198EOH      H 8797   3.119   3.483   7.024  1.0917 -0.9816 -0.3375
 2199EOH      O 8798   0.415   2.504   0.531 -0.6327  0.0104  0.3883
 2199EOH      C 8799   0.346   2.473   0.410  0.7065  0.0815 -0.4118
 2199EOH      C 8800   0.298   2.597   0.331  0.6246  0.7244  0.6462
 2199EOH      H 8801   0.358   2.474   0.600 -2.0959 -1.6963 -1.4976
 2200EOH      O 8802   2.833   2.185   1.243  0.2482 -0.1470  0.8563
 2200EOH      C 8803   2.939   2.179   1.339  0.6714  0.2501  0.4156
 2200EOH      C 8804   2.987   2.041   1.387 -0.0057 -0.1671 -0.0948
 2200EOH      H 8805   2.757   2.149   1.286 -0.6351  1.4885  0.7164
 2201EOH      O 8806   4.344   4.335   7.616  0.5635  0.1331  0.1968
 2201EOH      C 8807   4.304   4.457   7.678 -0.3008 -0.0343 -0.0313
 2201EOH      C 8808   4.398   4.570   7.632  0.0674 -0.1250  0.4894
 2201EOH      H 8809   4.338   4.262   7.677 -1.1042 -0.1295 -0.2562
 2202EOH      O 8810   2.011   3.537   2.400 -0.0943  0.1299 -0.2882
 2202EOH      C 8811   1.891   3.508   2.329 -0.3315 -0.7548  0.4689
 2202EOH      C 8812   1.762   3.555   2.399 -0.5534  0.5038 -0.7540
 2202EOH      H 8813   2.077   3.500   2.343 -1.6047 -2.1441 -0.5842
 2203EOH      O 8814   2.628   0.813   3.463 -0.1616 -0.5502 -0.2753
 2203EOH      C 8815   2.646   0.719   3.357  0.1606 -0.5216 -0.2451
 2203EOH      C 8816   2.665   0.792   3.223 -0.3073  0.9454  0.4829
 2203EOH      H 8817   2.548   0.791   3.509  1.6815 -0.5026  3.1245
 2204EOH      O 8818   1.453   0.558   3.331  0.2683  0.1296 -0.6846
 2204EOH      C 8819   1.357   0.452   3.331  0.4421 -0.0286 -0.7276
 2204EOH      C 8820   1.269   0.484   3.209 -0.2209  0.0979 -0.2159
 2204EOH      H 8821   1.495   0.544   3.414 -3.0343 -0.6465  0.9066
 2205EOH      O 8822   1.667   1.721   5.664  0.1975 -0.3893 -0.0873
 2205EOH      C 8823   1.580   1.782   5.760  0.2745  0.2441 -0.4232
 2205EOH      C 8824   1.549   1.917   5.692  0.5804  0.2761 -0.4987
 2205EOH      H 8825   1.612   1.692   5.593  1.0129 -0.9082 -0.5179
 2206EOH      O 8826   2.230   4.306   1.377 -0.4734 -0.4494  0.8240
 2206EOH      C 8827   2.121   4.231   1.324 -0.4954  0.0010  0.2226
 2206EOH      C 8828   2.163   4.083   1.325 -0.0780  0.1066 -0.8881
 2206EOH      H 8829   2.229   4.291   1.470 -1.0250 -0.6432  0.7849
 2207EOH      O 8830   0.658   3.948   4.887 -0.1985  0.3790 -0.0921
 2207EOH      C 8831   0.547   3.909   4.970  0.0020  0.5910  0.2776
 2207EOH      C 8832   0.462   4.036   4.991 -0.3179  0.4138  0.0540
 2207EOH      H 8833   0.708   3.869   4.881 -1.2671 -0.4215  1.1618
 2208EOH      O 8834   0.112   0.350   1.909 -0.2635 -0.2500 -0.1518
 2208EOH      C 8835   0.175   0.419   1.801 -0.5574 -0.1797 -0.2797
 2208EOH      C 8836   0.232   0.550   1.858  0.7002 -0.3694 -1.0740
 2208EOH      H 8837   0.031   0.398   1.920  0.7219  1.8822 -1.7986
 2209EOH      O 8838   3.048   0.071   7.363  0.4505  0.0675 -0.1385
 2209EOH      C 8839   3.111  -0.053   7.398 -0.3228 -0.4037 -0.4063
 2209EOH      C 8840   3.146  -0.051   7.548  0.5111  0.5647 -0.6077
 2209EOH      H 8841   3.117   0.135   7.351 -1.3112  1.7066 -1.7154
 2210EOH      O 8842   1.241   7.898   5.863  0.1189  0.2052 -0.1522
 2210EOH      C 8843   1.161   7.783   5.891  0.5936 -0.1125 -0.0955
 2210EOH      C 8844   1.209   7.710   6.018  0.5271  0.2328  0.1279
 2210EOH      H 8845   1.244   7.905   5.769  1.6303 -0.6890 -0.1783
 2211EOH      O 8846   3.274   6.506   6.221 -0.2816  0.1946 -0.1875
 2211EOH      C 8847   3.329   6.610   6.303 -0.0698 -0.0980  0.0418
 2211EOH      C 8848   3.405   6.716   6.223 -0.2193  0.0873  0.1442
 2211EOH      H 8849   3.246   6.441   6.283  1.1336 -1.9634 -1.7085
 2212EOH      O 8850   3.799   1.522   4.282  0.3190  0.4321  0.1107
 2212EOH      C 8851   3.785   1.447   4.161  0.4607  0.3701  0.1328
 2212EOH      C 8852   3.882   1.500   4.054  0.0733  0.0705 -0.3707
 2212EOH      H 8853   3.761   1.468   4.350 -0.3237  0.2466 -0.3932
 2213EOH      O 8854   3.226   3.352   7.471 -0.2680  0.1992 -0.2338
 2213EOH      C 8855   3.268   3.254   7.375  0.3860  0.1680  0.0877
 2213EOH      C 8856   3.278   3.128   7.463 -0.2060  0.2300  0.2446
 2213EOH      H 8857   3.229   3.434   7.425  0.6750  0.7409  0.7642
 2214EOH      O 8858   2.530   4.006   2.158  0.3471 -0.3878  0.1105
 2214EOH      C 8859   2.448   4.079   2.250  0.1500  0.3406 -0.6334
 2214EOH      C 8860   2.320   4.142   2.193  0.0965  0.2937 -0.5664
 2214EOH      H 8861   2.506   3.918   2.185 -2.3862  0.4734  0.6808
 2215EOH      O 8862   2.810   1.840   3.048  0.0185  0.2911  0.4871
 2215EOH      C 8863   2.734   1.934   2.972  0.2215 -0.0818 -0.1796
 2215EOH      C 8864   2.582   1.918   2.996  0.1977 -0.4395 -0.5542
 2215EOH      H 8865   2.896   1.874   3.066  0.3871 -1.2348  1.6649
 2216EOH      O 8866   2.757   1.948   3.541  0.4244  0.3392 -0.2159
 2216EOH      C 8867   2.865   1.987   3.456  0.1134  0.5934 -0.5006
 2216EOH      C 8868   2.972   2.065   3.535 -0.1668  0.9141 -0.4370
 2216EOH      H 8869   2.683   1.925   3.486 -0.8703  0.7067  1.3370
 2217EOH      O 8870   4.670   5.979   5.037  0.4661 -0.3955  0.3304
 2217EOH      C 8871   4.700   5.973   4.898 -0.5688  0.8448  0.0436
 2217EOH      C 8872   4.804   6.077   4.850  0.2631 -0.1206 -0.2752
 2217EOH      H 8873   4.646   5.891   5.062  1.5259 -0.3003  1.7879
 2218EOH      O 8874   7.487   0.529   2.791 -0.2961  0.1280  0.2833
 2218EOH      C 8875   7.440   0.659   2.756 -0.2423  0.0869  0.0553
 2218EOH      C 8876   7.394   0.640   2.610  0.4741 -0.9945 -0.0290
 2218EOH      H 8877   7.433   0.506   2.864  0.4801 -2.5814  0.0465
 2219EOH      O 8878   6.382   0.675   4.148  0.0073 -0.0192 -0.7387
 2219EOH      C 8879   6.516   0.638   4.180 -0.0304  0.6945  0.2381
 2219EOH      C 8880   6.619   0.745   4.137  0.7990 -0.1184  0.1836
 2219EOH      H 8881   6.359   0.745   4.206  0.4660 -0.2055 -0.3361
 2220EOH      O 8882   0.951   2.687   4.365  0.0314 -0.4779  0.6900
 2220EOH      C 8883   0.819   2.712   4.414 -0.0612 -0.1925  0.2951
 2220EOH      C 8884   0.775   2.859   4.399  0.0429 -0.2014 -0.1145
 2220EOH      H 8885   0.970   2.595   4.378  2.0178 -0.4171 -1.5196
 2221EOH      O 8886   3.035   1.733   2.493  0.0297 -0.0212 -0.2650
 2221EOH      C 8887   2.974   1.850   2.437 -0.0662 -0.0895 -0.3030
 2221EOH      C 8888   3.032   1.865   2.296  0.1178  0.0181 -0.2159
 2221EOH      H 8889   2.985   1.683   2.555 -0.5113 -0.9713 -1.4494
 2222EOH      O 8890   3.206   3.806   0.773  0.2198 -0.3020  0.1106
 2222EOH      C 8891   3.086   3.744   0.726 -0.1200  0.1809  0.3342
 2222EOH      C 8892   2.972   3.847   0.713 -0.3724 -0.0941  0.3607
 2222EOH      H 8893   3.222   3.874   0.709 -1.5122  1.5747  1.6259
 2223EOH      O 8894   3.985   0.083   5.829 -0.3156 -0.1526 -0.4843
 2223EOH      C 8895   3.945  -0.053   5.841 -0.2359 -0.1092  0.2982
 2223EOH      C 8896   3.862  -0.105   5.722  0.2520 -0.0273 -0.0781
 2223EOH      H 8897   4.058   0.065   5.771 -0.0647 -0.5577 -0.0438
 2224EOH      O 8898   1.777   1.515   3.509 -0.1529  0.2875  0.1805
 2224EOH      C 8899   1.802   1.557   3.374 -0.1302  0.0398  0.1065
 2224EOH      C 8900   1.838   1.704   3.349  0.3440 -0.1192 -0.1521
 2224EOH      H 8901   1.734   1.433   3.489 -0.4741  0.6702 -0.7314
 2225EOH      O 8902   2.734   1.496   4.767  0.0997 -0.3082 -0.1101
 2225EOH      C 8903   2.667   1.378   4.813 -0.0153 -0.3061 -0.2745
 2225EOH      C 8904   2.634   1.283   4.696 -0.3918 -0.7901  0.2269
 2225EOH      H 8905   2.683   1.530   4.695 -2.7597  0.6251  2.2392
 2226EOH      O 8906   1.053   0.086   5.545  0.0889  0.1502 -0.2198
 2226EOH      C 8907   0.938   0.091   5.630  0.0794 -0.6088 -0.1828
 2226EOH      C 8908   0.814   0.046   5.551 -0.0121 -0.1627 -0.2988
 2226EOH      H 8909   1.028   0.119   5.461  1.4109  0.2590 -0.5877
 2227EOH      O 8910   5.275   4.336   5.413  0.2974  0.2238 -0.2943
 2227EOH      C 8911   5.211   4.458   5.452 -0.1177 -0.1654  0.2504
 2227EOH      C 8912   5.087   4.479   5.363 -0.1146 -0.3559  0.1997
 2227EOH      H 8913   5.315   4.289   5.485  0.4678 -0.5990 -0.9174
 2228EOH      O 8914   0.981   4.348   2.489  0.3127  1.1001 -0.2310
 2228EOH      C 8915   1.070   4.311   2.594 -0.0166  0.5296 -0.1519
 2228EOH      C 8916   1.066   4.391   2.725 -0.1184 -0.1725  0.2727
 2228EOH      H 8917   0.990   4.269   2.439  1.2236  0.5869  0.7251
 2229EOH      O 8918   1.329   6.121   1.588  0.4555 -0.0340  0.0608
 2229EOH      C 8919   1.245   6.103   1.473  0.4090  0.6744 -0.0197
 2229EOH      C 8920   1.119   6.190   1.488  0.0283  0.0762  0.2731
 2229EOH      H 8921   1.417   6.127   1.554  1.3445  1.2681  2.4786
 2230EOH      O 8922   2.165   5.083   1.918  0.0744  0.6651 -0.0995
 2230EOH      C 8923   2.296   5.096   1.974  0.0050  0.0912  0.1965
 2230EOH      C 8924   2.371   5.192   1.882 -0.5104  0.4701  0.1667
 2230EOH      H 8925   2.165   4.997   1.878 -1.0794  0.0083  1.2319
 2231EOH      O 8926   2.151   3.929   7.677 -0.2354 -0.4277  0.3873
 2231EOH      C 8927   2.014   3.939   7.716 -0.4715 -0.0818 -0.4985
 2231EOH      C 8928   1.935   3.892   7.592 -0.2844  0.1396 -0.6998
 2231EOH      H 8929   2.201   3.982   7.737 -1.9580  0.2219  1.3013
 2232EOH      O 8930   2.239   3.476   4.296 -0.4758  0.3750 -0.0708
 2232EOH      C 8931   2.266   3.479   4.436 -0.2837  0.0722 -0.1020
 2232EOH      C 8932   2.420   3.480   4.440 -0.2877 -0.4350  0.3209
 2232EOH      H 8933   2.227   3.566   4.269 -0.6587  0.0907 -0.9521
 2233EOH      O 8934   0.741   5.134   0.904  0.3716  0.0023 -0.1822
 2233EOH      C 8935   0.711   5.212   1.020 -0.1076 -0.4496  0.0030
 2233EOH      C 8936   0.809   5.331   1.027 -0.0622 -0.4479 -0.6030
 2233EOH      H 8937   0.675   5.142   0.837  0.7140  1.1440 -0.3927
 2234EOH      O 8938   5.048   2.921   4.569 -0.0410  0.0571 -0.6801
 2234EOH      C 8939   4.947   2.823   4.542 -0.2622 -0.0709  0.6131
 2234EOH      C 8940   4.976   2.711   4.644 -0.4529 -0.4189  0.2831
 2234EOH      H 8941   5.010   3.004   4.546 -2.5931 -1.2408 -1.3097
 2235EOH      O 8942   2.088   4.720   2.033  0.0391 -0.1405 -0.0761
 2235EOH      C 8943   2.071   4.578   2.039 -0.2498 -0.1281 -0.6016
 2235EOH      C 8944   2.175   4.517   2.135 -0.6970 -0.4547 -0.3235
 2235EOH      H 8945   2.038   4.768   2.097  0.1977 -0.7514  0.5197
 2236EOH      O 8946   4.216   2.216   5.546  0.2637 -0.2286  0.1686
 2236EOH      C 8947   4.297   2.327   5.585  0.3059 -0.2258  0.0735
 2236EOH      C 8948   4.228   2.412   5.693 -0.2994 -0.6006 -0.0151
 2236EOH      H 8949   4.197   2.159   5.619  2.4020  0.1749  1.0750
 2237EOH      O 8950   2.183   3.492   7.404  0.1489  0.0441 -0.1629
 2237EOH      C 8951   2.324   3.477   7.390  0.1001 -1.2760  0.6408
 2237EOH      C 8952   2.388   3.418   7.517  0.4380 -0.0628  1.0385
 2237EOH      H 8953   2.150   3.559   7.346 -1.1918 -0.1609  0.3425
 2238EOH      O 8954   2.183   2.253   3.225  0.4026  0.6748 -0.4092
 2238EOH      C 8955   2.296   2.310   3.292  0.4961  0.0685 -0.0400
 2238EOH      C 8956   2.291   2.463   3.278  0.4480  0.0243 -0.5150
 2238EOH      H 8957   2.109   2.270   3.281  0.1941 -2.1275  0.2557
 2239EOH      O 8958   1.294   7.733   2.252 -0.2859 -0.4077  0.1530
 2239EOH      C 8959   1.362   7.615   2.208 -0.1577 -0.2571 -0.0561
 2239EOH      C 8960   1.327   7.496   2.300  0.2282 -0.0950  0.3044
 2239EOH      H 8961   1.318   7.804   2.194 -3.2851 -0.5834 -1.4250
 2240EOH      O 8962   2.955   7.737   6.638 -0.5712  0.3147 -0.1471
 2240EOH      C 8963   2.823   7.683   6.653 -0.2002 -0.4933  0.2413
 2240EOH      C 8964   2.782   7.629   6.514  0.3748  0.0277 -0.1346
 2240EOH      H 8965   2.936   7.828   6.621 -1.3975  0.2670  0.4674
 2241EOH      O 8966   3.928   4.636   4.820  0.2001  0.3241 -0.1957
 2241EOH      C 8967   3.915   4.510   4.885  0.4864  0.2883 -0.2080
 2241EOH      C 8968   3.938   4.511   5.037 -0.4753  0.4946 -0.0630
 2241EOH      H 8969   4.021   4.647   4.808  0.1109  0.6099 -0.6748
 2242EOH      O 8970   3.674   7.541   6.230 -0.3969  0.0351 -0.3531
 2242EOH      C 8971   3.797   7.570   6.164 -0.1864 -0.3267 -0.1225
 2242EOH      C 8972   3.779   7.531   6.016 -0.0708  0.0021 -0.2236
 2242EOH      H 8973   3.619   7.616   6.211 -0.5647 -0.3134 -1.2353
 2243EOH      O 8974   6.873   0.152   3.812 -0.4048 -0.4137  0.2983
 2243EOH      C 8975   6.974   0.111   3.720 -0.7581 -0.3227 -0.1347
 2243EOH      C 8976   7.091   0.054   3.802 -0.4378  0.6682  0.1064
 2243EOH      H 8977   6.786   0.166   3.778 -0.9341  0.3158  1.8985
 2244EOH      O 8978   0.757   5.770   2.090  0.0308 -0.0509  0.3319
 2244EOH      C 8979   0.780   5.856   2.202  0.1696  0.1221  0.1712
 2244EOH      C 8980   0.651   5.862   2.285  0.2403  0.5834  0.2491
 2244EOH      H 8981   0.824   5.786   2.025 -1.5044  1.4108 -0.8923
 2245EOH      O 8982   0.740   7.140   2.547 -0.3943  0.3089  0.4638
 2245EOH      C 8983   0.874   7.185   2.569 -0.1193 -0.1655 -0.2475
 2245EOH      C 8984   0.989   7.105   2.504 -0.3439 -0.7178  0.0290
 2245EOH      H 8985   0.672   7.202   2.569 -1.7712 -1.1518  0.3386
 2246EOH      O 8986   1.181   7.892   0.863  0.0122  0.0487  0.5746
 2246EOH      C 8987   1.138   8.024   0.898  0.4523  0.2374  0.4103
 2246EOH      C 8988   1.137   8.124   0.781  0.0201 -0.3210 -0.0616
 2246EOH      H 8989   1.265   7.901   0.821 -1.3937 -0.6149 -2.5159
 2247EOH      O 8990   3.953   4.982   5.726  0.1302 -0.2137  0.1414
 2247EOH      C 8991   3.830   4.962   5.797 -0.1227 -0.4332 -0.3619
 2247EOH      C 8992   3.825   5.072   5.905  0.0131  0.1024 -0.8959
 2247EOH      H 8993   4.011   5.013   5.794 -1.1742  2.3201  0.1593
 2248EOH      O 8994   1.144   1.045   6.824 -0.5981  0.9616  0.7041
 2248EOH      C 8995   1.139   0.995   6.690  0.0308  0.0817  1.0037
 2248EOH      C 8996   1.248   0.889   6.668 -0.5711 -0.2101 -0.6527
 2248EOH      H 8997   1.073   1.011   6.875 -0.6321 -1.0860 -0.6535
 2249EOH      O 8998   4.632   0.241   4.450 -0.1226  0.7859 -0.5333
 2249EOH      C 8999   4.593   0.314   4.333 -0.6382  0.8034 -0.3532
 2249EOH      C 9000   4.712   0.351   4.241 -0.0492  0.1497  0.1384
 2249EOH      H 9001   4.557   0.188   4.473 -0.5325  1.4685 -0.2874
 2250EOH      O 9002   2.183   1.492   2.021 -0.1826  0.0963  0.3161
 2250EOH      C 9003   2.121   1.369   1.983 -0.0243  0.0330  0.2615
 2250EOH      C 9004   2.095   1.356   1.832  0.0683  0.3183  0.2219
 2250EOH      H 9005   2.263   1.504   1.974 -0.8570 -1.1090 -1.1807
 2251EOH      O 9006   2.606   2.484   3.856 -0.1296  0.0221  0.4635
 2251EOH      C 9007   2.744   2.517   3.832 -0.2279  0.1620  0.0788
 2251EOH      C 9008   2.837   2.448   3.933 -0.0683  0.0852 -0.1218
 2251EOH      H 9009   2.557   2.509   3.779 -0.9272  2.8949  1.8351
 2252EOH      O 9010   2.719   5.527   6.851 -0.1848  0.6854 -0.2056
 2252EOH      C 9011   2.811   5.433   6.795 -0.0496  0.7562 -0.1024
 2252EOH      C 9012   2.952   5.496   6.781  0.0926  0.3507 -0.4852
 2252EOH      H 9013   2.642   5.477   6.871  0.0096 -0.6310 -2.4883
 2253EOH      O 9014   1.356   7.435   6.177  0.1704 -0.3249 -0.1495
 2253EOH      C 9015   1.440   7.500   6.273  0.1315 -0.2153 -0.1898
 2253EOH      C 9016   1.456   7.416   6.401  0.9129 -0.6719 -0.5792
 2253EOH      H 9017   1.419   7.383   6.130  0.4021 -0.4757  0.3275
 2254EOH      O 9018   4.042   3.532   3.830 -0.2738  0.2938  0.3729
 2254EOH      C 9019   4.028   3.628   3.935 -0.3843  0.2596  0.3900
 2254EOH      C 9020   4.161   3.628   4.013 -0.4533 -0.6476  0.5164
 2254EOH      H 9021   4.064   3.451   3.874 -0.9257 -0.1545 -0.1105
 2255EOH      O 9022   1.009   2.437   4.442 -0.2788 -0.1189 -0.1087
 2255EOH      C 9023   0.980   2.309   4.500  0.1566 -0.2653 -0.2112
 2255EOH      C 9024   1.001   2.313   4.653 -0.1356  0.0711 -0.1783
 2255EOH      H 9025   1.095   2.435   4.404 -1.1117  1.3019 -2.2088
 2256EOH      O 9026   0.551   1.781   3.457  0.2500 -0.2330 -0.1806
 2256EOH      C 9027   0.584   1.888   3.546  0.0458  0.0034 -0.3910
 2256EOH      C 9028   0.733   1.921   3.527 -0.0313  0.1417 -0.7749
 2256EOH      H 9029   0.461   1.766   3.481  0.1604 -0.7288 -0.8067
 2257EOH      O 9030   0.684   2.869   0.626  0.2633 -0.0222 -0.1703
 2257EOH      C 9031   0.749   2.903   0.749 -0.3245 -0.3544  0.2360
 2257EOH      C 9032   0.675   2.839   0.869  0.4754 -0.5399  0.6321
 2257EOH      H 9033   0.717   2.784   0.599  0.9517  0.1570  0.0937
 2258EOH      O 9034   2.867   1.786   1.590 -0.0328 -0.4272  0.0047
 2258EOH      C 9035   2.892   1.876   1.698  0.0619  0.0116 -0.3766
 2258EOH      C 9036   2.786   1.988   1.693  0.3676  0.3415  0.3683
 2258EOH      H 9037   2.939   1.725   1.588 -0.1223 -0.5393  0.2053
 2259EOH      O 9038   1.718   1.878   3.750 -0.2350 -0.0483  0.3040
 2259EOH      C 9039   1.614   1.974   3.769  0.0314  0.2594  0.1959
 2259EOH      C 9040   1.536   1.928   3.893 -0.5789  0.6983 -0.0219
 2259EOH      H 9041   1.673   1.801   3.717  0.0034 -0.2423  0.4246
 2260EOH      O 9042   2.856   5.236   7.189 -0.4245 -0.3762  0.0204
 2260EOH      C 9043   2.876   5.109   7.127  0.3422 -0.1257 -0.2531
 2260EOH      C 9044   2.813   5.115   6.986 -0.2822  0.6056  0.0505
 2260EOH      H 9045   2.925   5.296   7.166 -0.1050 -1.6449 -2.4379
 2261EOH      O 9046   6.052   7.640   2.705 -0.4391  0.2264  0.3559
 2261EOH      C 9047   5.946   7.629   2.610 -0.1281 -0.0540  0.0391
 2261EOH      C 9048   5.833   7.533   2.652 -0.1462 -0.1590 -0.2485
 2261EOH      H 9049   6.115   7.698   2.664  0.8501 -0.5872  1.1639
 2262EOH      O 9050   3.568   2.659   1.658 -0.2214 -0.1836  0.5549
 2262EOH      C 9051   3.698   2.650   1.719 -0.1184 -0.4475  0.2982
 2262EOH      C 9052   3.684   2.632   1.871 -0.1880 -0.0167  0.3450
 2262EOH      H 9053   3.570   2.703   1.575 -0.2629 -0.7169  0.2697
 2263EOH      O 9054   2.343   1.280   6.421  0.0735 -0.4774  0.2969
 2263EOH      C 9055   2.247   1.214   6.337  0.2629 -0.1724 -0.1634
 2263EOH      C 9056   2.293   1.183   6.194 -0.5568 -0.0227 -0.4626
 2263EOH      H 9057   2.290   1.336   6.475 -1.5770 -0.7761 -0.9666
 2264EOH      O 9058   2.227   7.165   7.752  0.1971 -0.1635 -0.7607
 2264EOH      C 9059   2.140   7.261   7.692  0.5771  0.5003 -0.2467
 2264EOH      C 9060   2.218   7.345   7.589  0.8210  0.6463  0.0561
 2264EOH      H 9061   2.215   7.161   7.846  0.3821  2.9235 -0.5762
 2265EOH      O 9062   1.381   6.294   3.349 -0.7734  0.2513  0.3009
 2265EOH      C 9063   1.330   6.311   3.216  0.1974 -0.1343 -0.1259
 2265EOH      C 9064   1.176   6.310   3.213  0.1927 -0.6461  0.1005
 2265EOH      H 9065   1.365   6.375   3.395  3.9541  1.3373  0.3347
 2266EOH      O 9066   3.498   5.416   5.457  0.4598 -0.1764  0.4037
 2266EOH      C 9067   3.489   5.376   5.594 -0.0494 -0.5541  0.2647
 2266EOH      C 9068   3.477   5.510   5.669  0.2109 -0.5045  0.2197
 2266EOH      H 9069   3.448   5.494   5.438 -1.8750 -1.1428  2.2529
 2267EOH      O 9070   1.433   2.988   5.348  0.1590  0.0773  0.3526
 2267EOH      C 9071   1.364   2.863   5.352  0.3995 -0.0666  0.0228
 2267EOH      C 9072   1.443   2.786   5.244  0.1816 -0.1024 -0.1128
 2267EOH      H 9073   1.409   3.039   5.424  2.9315  1.1768  0.5310
 2268EOH      O 9074   2.341   5.359   4.311 -0.5212  0.0280 -0.1039
 2268EOH      C 9075   2.414   5.448   4.227  0.4850 -0.5089  0.1892
 2268EOH      C 9076   2.467   5.385   4.098 -0.1047 -0.5177 -0.0517
 2268EOH      H 9077   2.399   5.335   4.382 -1.4628  0.9550  0.9905
 2269EOH      O 9078   4.533   1.685   4.865  0.2298 -0.1030  0.1136
 2269EOH      C 9079   4.590   1.651   4.738  0.4344  0.4106  0.0646
 2269EOH      C 9080   4.690   1.535   4.744 -0.4565 -0.3917 -0.4135
 2269EOH      H 9081   4.506   1.776   4.859 -0.0287 -0.1933 -0.0676
 2270EOH      O 9082   0.083   1.793   2.572  0.3471  0.4467  0.0816
 2270EOH      C 9083  -0.052   1.751   2.549  0.3005  0.5875  0.1005
 2270EOH      C 9084  -0.135   1.864   2.486  0.4368  0.5911 -0.0742
 2270EOH      H 9085   0.130   1.714   2.595  0.2205  0.6318  1.0340
 2271EOH      O 9086   1.231   6.839   5.754  0.2786 -0.5816 -0.4212
 2271EOH      C 9087   1.176   6.916   5.647  0.3762 -0.1943 -0.1947
 2271EOH      C 9088   1.109   7.040   5.708 -0.0875 -0.5869  0.1010
 2271EOH      H 9089   1.178   6.845   5.832 -0.4477 -0.4483 -0.9261
 2272EOH      O 9090   4.047   1.402   5.490  0.1259  0.4219 -0.0731
 2272EOH      C 9091   3.965   1.458   5.388 -0.5735 -0.0055  0.2483
 2272EOH      C 9092   3.868   1.573   5.421 -0.3222  0.1613  0.4082
 2272EOH      H 9093   4.104   1.338   5.449  1.3981  1.1667  0.5093
 2273EOH      O 9094   0.056   1.233   6.725 -0.1106 -0.0109  0.0563
 2273EOH      C 9095   0.187   1.276   6.763 -0.1106  0.4412 -0.4517
 2273EOH      C 9096   0.266   1.178   6.851 -0.5853  0.4507 -0.0064
 2273EOH      H 9097   0.003   1.225   6.803 -2.4552  0.4734 -1.4489
 2274EOH      O 9098   0.770   4.866   0.301  0.4451 -0.0300  0.9118
 2274EOH      C 9099   0.896   4.933   0.311  0.2962  0.4206 -0.1945
 2274EOH      C 9100   0.881   5.068   0.384 -0.3313  0.2299  0.0352
 2274EOH      H 9101   0.777   4.787   0.353  0.8340  0.0501  0.9815
 2275EOH      O 9102   2.646   4.938   1.549  0.0700 -0.1609  0.2738
 2275EOH      C 9103   2.539   4.965   1.458  0.4106  0.2775 -0.0021
 2275EOH      C 9104   2.448   5.058   1.540  0.2423 -0.0411  0.1742
 2275EOH      H 9105   2.689   4.860   1.519  0.2278  0.1395 -0.3101
 2276EOH      O 9106   2.273   7.352   6.699  0.3122 -0.6158  0.0123
 2276EOH      C 9107   2.213   7.254   6.613 -0.9636 -0.0927  0.2936
 2276EOH      C 9108   2.221   7.288   6.463 -0.2952 -0.3206  0.2764
 2276EOH      H 9109   2.301   7.306   6.777 -2.3105 -0.3967  1.1128
 2277EOH      O 9110   1.335   4.938   0.616  0.0494 -0.0842 -0.0351
 2277EOH      C 9111   1.255   4.820   0.613 -0.0936  0.0040  0.3853
 2277EOH      C 9112   1.333   4.709   0.541 -0.2566 -0.0018  0.2151
 2277EOH      H 9113   1.375   4.942   0.701  2.4690 -2.6474 -0.9896
 2278EOH      O 9114   2.210   7.557   4.489 -0.0096 -0.4824  0.6017
 2278EOH      C 9115   2.348   7.554   4.451 -0.1949 -0.8819 -0.0493
 2278EOH      C 9116   2.389   7.542   4.303  0.1970 -0.0264 -0.0124
 2278EOH      H 9117   2.179   7.469   4.503 -0.4780 -0.4681 -0.2992
 2279EOH      O 9118   0.702   2.261   5.358  0.0618 -0.3258  0.2710
 2279EOH      C 9119   0.607   2.156   5.340 -0.3301  0.0295  0.2746
 2279EOH      C 9120   0.483   2.162   5.432 -0.5310 -0.4359  0.0377
 2279EOH      H 9121   0.762   2.249   5.286 -0.2018  0.7071 -0.1262
 2280EOH      O 9122   4.234   2.259   5.285  0.2728  0.2750 -0.2449
 2280EOH      C 9123   4.160   2.360   5.215  0.1495  0.1145 -0.3476
 2280EOH      C 9124   4.197   2.496   5.277 -0.1155  0.4801 -0.9955
 2280EOH      H 9125   4.199   2.262   5.373 -0.5293 -1.2076 -0.4877
 2281EOH      O 9126   2.837   7.647   2.294 -0.2925 -0.0860 -0.0180
 2281EOH      C 9127   2.860   7.546   2.393 -0.2167 -0.2478 -0.1998
 2281EOH      C 9128   2.829   7.409   2.331  0.4012 -0.3826 -0.2145
 2281EOH      H 9129   2.854   7.722   2.350  0.7952 -1.3543  1.3914
 2282EOH      O 9130   4.197   5.321   3.657 -0.1248 -0.0966  0.6698
 2282EOH      C 9131   4.194   5.194   3.591  0.5350  0.1280  0.1966
 2282EOH      C 9132   4.054   5.163   3.535  0.3225 -0.0302  0.8124
 2282EOH      H 9133   4.187   5.320   3.750  2.5588  3.7138  1.1159
 2283EOH      O 9134   1.143   5.643   0.170 -0.0730  0.0843 -0.0240
 2283EOH      C 9135   1.062   5.640   0.287  0.0597 -0.0379  0.0653
 2283EOH      C 9136   1.127   5.544   0.389  0.1080 -0.2377 -0.1545
 2283EOH      H 9137   1.117   5.572   0.113 -0.9041 -0.8160  1.4440
 2284EOH      O 9138   4.538   1.574   5.263  0.7033 -0.1764  0.1017
 2284EOH      C 9139   4.528   1.461   5.350  0.0802  0.2332  0.5750
 2284EOH      C 9140   4.618   1.351   5.290  0.4931  0.3941  0.8958
 2284EOH      H 9141   4.479   1.566   5.190 -0.3823  2.0010  0.6785
 2285EOH      O 9142   1.990   2.814   4.559 -0.2531 -0.0421  0.2011
 2285EOH      C 9143   1.908   2.768   4.452  0.0105 -0.4736  0.1807
 2285EOH      C 9144   1.814   2.648   4.477 -0.5174  0.0592  0.7940
 2285EOH      H 9145   1.981   2.755   4.632  0.3195 -1.6930 -1.0221
 2286EOH      O 9146   4.248   1.981   5.975 -0.2245  0.4999  0.1766
 2286EOH      C 9147   4.384   1.952   6.008 -0.3366 -0.1041  0.1083
 2286EOH      C 9148   4.469   2.053   5.929 -0.1064 -0.4239 -0.0506
 2286EOH      H 9149   4.207   1.950   6.055 -0.0100  0.1468  0.1493
 2287EOH      O 9150   0.760   5.888   1.707  0.0784 -0.5692 -0.1219
 2287EOH      C 9151   0.745   5.910   1.567 -0.2157 -0.2393 -0.0419
 2287EOH      C 9152   0.862   5.845   1.491  0.4591  0.9552 -0.0384
 2287EOH      H 9153   0.679   5.855   1.741 -0.5022 -0.4078 -1.3318
 2288EOH      O 9154   0.950   4.986   0.906 -0.3777 -0.4551 -0.2112
 2288EOH      C 9155   0.958   4.930   0.775  0.4139 -0.6397 -0.0908
 2288EOH      C 9156   0.843   4.829   0.757 -0.2173  0.0516  0.0459
 2288EOH      H 9157   0.868   5.032   0.907 -0.9096 -1.4208  1.3735
 2289EOH      O 9158   2.614   3.227   6.426  0.3663 -0.2547 -0.2395
 2289EOH      C 9159   2.618   3.320   6.535  0.2449 -0.2887 -0.2051
 2289EOH      C 9160   2.600   3.462   6.478 -0.3653 -0.1019  0.4424
 2289EOH      H 9161   2.666   3.151   6.447  1.1509  0.3934  0.1705
 2290EOH      O 9162   2.203   1.777   2.179 -0.1074 -0.0378 -0.1345
 2290EOH      C 9163   2.191   1.876   2.077 -0.4305  0.0569 -0.0036
 2290EOH      C 9164   2.333   1.898   2.021 -0.4480 -0.4900 -0.2644
 2290EOH      H 9165   2.126   1.725   2.163 -0.4693  1.3212 -3.2643
 2291EOH      O 9166   2.316   2.334   7.568 -0.4999 -0.2390  0.2654
 2291EOH      C 9167   2.226   2.357   7.459 -0.1023  0.1100  0.0095
 2291EOH      C 9168   2.079   2.378   7.497 -0.1798  0.5173 -0.5077
 2291EOH      H 9169   2.404   2.354   7.538  0.1305 -1.1740  1.4385
 2292EOH      O 9170   1.067   5.537   2.412 -0.0968 -0.3747 -0.2236
 2292EOH      C 9171   1.055   5.548   2.270  0.1340 -0.6500 -0.2646
 2292EOH      C 9172   1.074   5.409   2.206  0.1967 -0.4480 -0.6889
 2292EOH      H 9173   1.140   5.485   2.443 -1.2717 -1.8206  0.1848
 2293EOH      O 9174   1.664   1.304   2.709  0.3972  0.3227 -0.2771
 2293EOH      C 9175   1.800   1.302   2.755  0.3483  0.5671 -0.1258
 2293EOH      C 9176   1.901   1.297   2.639  0.4939 -0.3663  0.0354
 2293EOH      H 9177   1.608   1.275   2.779 -0.5119  0.7503 -0.8173
 2294EOH      O 9178   2.651   6.437   0.908  0.1805 -0.5453 -0.3208
 2294EOH      C 9179   2.766   6.480   0.835 -0.4354 -0.3754 -1.2097
 2294EOH      C 9180   2.872   6.368   0.832 -0.3691 -0.3635  0.2473
 2294EOH      H 9181   2.669   6.457   0.999  0.7567 -0.6589 -0.4076
 2295EOH      O 9182   0.566   2.028   7.714 -0.7647 -0.0942  0.2370
 2295EOH      C 9183   0.597   1.926   7.619 -0.2022  0.2404  0.0606
 2295EOH      C 9184   0.504   1.808   7.650  0.0834  0.0419  0.1618
 2295EOH      H 9185   0.551   1.993   7.801 -0.8421  1.0277  0.6822
 2296EOH      O 9186   3.278   4.057   0.623 -0.1133 -0.4043 -0.3298
 2296EOH      C 9187   3.418   4.049   0.651 -0.0921  0.0156 -0.3174
 2296EOH      C 9188   3.515   4.062   0.532  1.0395  0.2584  0.6255
 2296EOH      H 9189   3.255   4.148   0.617  0.5087 -0.2007  0.2951
 2297EOH      O 9190   1.289   2.809   3.713 -0.3505 -0.2917 -0.1658
 2297EOH      C 9191   1.332   2.785   3.579  0.1744 -0.0624 -0.0372
 2297EOH      C 9192   1.272   2.890   3.484 -0.2431 -0.1609  0.1176
 2297EOH      H 9193   1.201   2.775   3.722 -0.3368 -0.2677  0.0562
 2298EOH      O 9194   0.041   1.846   1.738 -0.2437  0.2477  0.1122
 2298EOH      C 9195   0.137   1.915   1.657 -0.0090  0.2803  0.4168
 2298EOH      C 9196   0.058   2.009   1.564  0.1292  0.1492  0.1665
 2298EOH      H 9197  -0.002   1.906   1.798 -0.9024 -0.6768  0.5649
 2299EOH      O 9198   1.418   6.720   5.892  0.6434  0.2487 -0.2166
 2299EOH      C 9199   1.480   6.628   5.802  0.0649 -0.4319  0.0797
 2299EOH      C 9200   1.612   6.576   5.861  0.1245 -0.0688  0.2661
 2299EOH      H 9201   1.355   6.761   5.834 -0.3022 -0.2511  0.4414
 2300EOH      O 9202   7.803   1.634   1.734  0.1070  0.3900 -0.1370
 2300EOH      C 9203   7.670   1.676   1.767 -0.0411 -0.1142 -0.0798
 2300EOH      C 9204   7.657   1.674   1.921  0.1164 -0.2887 -0.0677
 2300EOH      H 9205   7.860   1.709   1.738 -0.4770  0.9671 -2.2065
 2301EOH      O 9206   3.992   2.753   0.132 -0.4999 -0.1016  0.1177
 2301EOH      C 9207   4.009   2.877   0.201 -0.1394 -0.1336  0.0873
 2301EOH      C 9208   4.160   2.894   0.226 -0.1208 -0.5066  0.2182
 2301EOH      H 9209   3.999   2.777   0.041  1.0313 -2.6977 -0.4889
 2302EOH      O 9210   1.382   0.163   5.976  0.5050 -0.4196 -0.1965
 2302EOH      C 9211   1.517   0.167   5.928  0.3829  0.2933 -0.4780
 2302EOH      C 9212   1.612   0.134   6.045 -0.2314  0.5234  0.0888
 2302EOH      H 9213   1.335   0.091   5.936 -1.0259  0.7642 -0.5494
 2303EOH      O 9214   1.070   4.008   5.838 -0.0272 -0.4459  0.2397
 2303EOH      C 9215   1.109   3.918   5.942 -0.1562 -0.5873  0.1661
 2303EOH      C 9216   1.181   4.005   6.046 -0.2701 -0.1010 -0.1620
 2303EOH      H 9217   1.147   4.034   5.789 -1.4697  1.6516 -1.0136
 2304EOH      O 9218   0.662   2.620   0.588  0.3394 -0.3754  0.2937
 2304EOH      C 9219   0.755   2.517   0.555  0.2742 -0.3936  0.1698
 2304EOH      C 9220   0.854   2.489   0.670  0.3073 -0.4363  0.1312
 2304EOH      H 9221   0.579   2.578   0.572  0.6357 -1.1163  0.6754
 2305EOH      O 9222   6.740   1.261   4.214 -0.1803 -0.1107  0.1484
 2305EOH      C 9223   6.823   1.158   4.160 -0.2874 -0.3837  0.4973
 2305EOH      C 9224   6.833   1.036   4.253  0.4815 -0.4773  0.2945
 2305EOH      H 9225   6.725   1.327   4.148 -1.7525  0.0083  0.6046
 2306EOH      O 9226   2.411   1.080   1.299 -0.2397  0.2933  0.0005
 2306EOH      C 9227   2.287   1.049   1.235 -0.3737  0.4268  0.1931
 2306EOH      C 9228   2.211   1.167   1.172 -0.2959  0.2575 -0.2215
 2306EOH      H 9229   2.473   1.073   1.229  0.0163 -0.0232  0.2559
 2307EOH      O 9230   3.033   1.083   1.366 -0.6699  0.2442  0.3885
 2307EOH      C 9231   2.977   1.180   1.277  0.1023  0.0698 -0.2958
 2307EOH      C 9232   2.964   1.129   1.132  0.3077 -0.0973 -0.2565
 2307EOH      H 9233   3.128   1.084   1.363 -0.6867 -0.4750 -0.5600
 2308EOH      O 9234   7.289   2.406   2.092 -0.3337  0.5899 -0.2611
 2308EOH      C 9235   7.230   2.527   2.141 -0.2713  0.5175 -0.0081
 2308EOH      C 9236   7.166   2.529   2.281 -0.5213  0.1203 -0.1142
 2308EOH      H 9237   7.224   2.364   2.038  0.7415 -0.4489 -0.7699
 2309EOH      O 9238   2.161   0.459   0.424 -0.2435  0.0168 -0.0910
 2309EOH      C 9239   2.036   0.474   0.357 -0.1608  0.0929 -0.2269
 2309EOH      C 9240   2.022   0.621   0.314  0.2011  0.2241  0.1020
 2309EOH      H 9241   2.143   0.408   0.502 -2.4067  2.2230  0.8835
 2310EOH      O 9242   1.579   3.723   6.160  0.3187 -0.1848 -0.0075
 2310EOH      C 9243   1.534   3.780   6.283  0.6819  0.3448 -0.1184
 2310EOH      C 9244   1.618   3.901   6.331  1.0396 -0.1071  0.4060
 2310EOH      H 9245   1.572   3.797   6.101 -0.6685 -1.7297 -1.8929
 2311EOH      O 9246   2.603   0.296   4.821 -0.3986 -0.1113 -0.0822
 2311EOH      C 9247   2.700   0.238   4.735 -0.2804 -0.1437  0.0727
 2311EOH      C 9248   2.691   0.306   4.597 -0.2235  0.2361  0.2582
 2311EOH      H 9249   2.644   0.368   4.867  2.1433 -0.7962 -1.2505
 2312EOH      O 9250   2.570   6.896   3.919  0.5985  0.0823  0.5422
 2312EOH      C 9251   2.614   6.777   3.853 -0.0077 -0.0754  0.4262
 2312EOH      C 9252   2.766   6.788   3.834 -0.0619  0.4505  0.2851
 2312EOH      H 9253   2.476   6.899   3.911  0.7032 -0.1180 -0.8389
 2313EOH      O 9254   4.046   6.074   2.725  0.1025  0.2238 -0.5154
 2313EOH      C 9255   4.123   6.183   2.776 -0.2409  0.3742 -0.3221
 2313EOH      C 9256   4.264   6.192   2.715 -0.0336 -0.2008  0.0731
 2313EOH      H 9257   3.960   6.093   2.758  0.6675  1.8280  0.0592
 2314EOH      O 9258   1.483   2.663   7.838 -0.7297 -0.0612  0.8503
 2314EOH      C 9259   1.516   2.723   7.963 -0.0520  0.9525  0.1989
 2314EOH      C 9260   1.421   2.675   8.075  0.2041 -0.0815 -0.0222
 2314EOH      H 9261   1.539   2.700   7.770 -1.6644 -0.7407 -0.3040
 2315EOH      O 9262   0.045   1.216   3.808  0.0636  0.4724  0.0066
 2315EOH      C 9263  -0.085   1.160   3.788  0.1261  0.1371  0.5309
 2315EOH      C 9264  -0.145   1.245   3.675  0.2517  0.3191  0.6003
 2315EOH      H 9265   0.070   1.161   3.881  1.6701 -0.0844 -0.9271
 2316EOH      O 9266   3.373   4.296   3.250 -0.4724  0.4290  0.1415
 2316EOH      C 9267   3.243   4.302   3.190 -0.3119  0.2582 -0.2306
 2316EOH      C 9268   3.154   4.363   3.300 -0.0026  0.8151 -0.2829
 2316EOH      H 9269   3.402   4.383   3.273  1.3760 -0.2988  0.6551
 2317EOH      O 9270   1.910   5.886   0.602  0.6997 -0.1027  0.2054
 2317EOH      C 9271   1.807   5.972   0.653  0.5120 -0.1904 -0.0226
 2317EOH      C 9272   1.787   5.945   0.803 -0.3433 -0.3155 -0.1606
 2317EOH      H 9273   1.932   5.904   0.511 -0.3930 -0.4117 -0.1304
 2318EOH      O 9274   2.196   1.395   6.596  0.6933  0.1065 -0.2337
 2318EOH      C 9275   2.219   1.484   6.705  0.5076 -0.2621  0.1110
 2318EOH      C 9276   2.300   1.609   6.663  0.0624  0.0546  0.1868
 2318EOH      H 9277   2.123   1.339   6.620  0.7321 -0.1780 -0.7815
 2319EOH      O 9278   3.511   3.159   6.374 -0.1176 -0.1642  0.5233
 2319EOH      C 9279   3.464   3.025   6.391  0.0339 -0.2851 -0.0009
 2319EOH      C 9280   3.427   2.967   6.253 -0.3134 -0.1807  0.0477
 2319EOH      H 9281   3.496   3.211   6.451  0.9945  1.1484 -0.1165
 2320EOH      O 9282   3.883   5.393   0.407  0.4668  0.7859  0.0640
 2320EOH      C 9283   3.909   5.296   0.509 -0.3087 -0.0098 -0.4872
 2320EOH      C 9284   3.894   5.350   0.653  0.5107 -0.6069 -0.1751
 2320EOH      H 9285   3.894   5.345   0.327  0.0925  0.5548  0.1472
 2321EOH      O 9286   4.737   3.991   4.649  0.3588  0.7851  0.4135
 2321EOH      C 9287   4.612   4.050   4.685 -0.1777 -0.1792  0.1497
 2321EOH      C 9288   4.650   4.169   4.775 -0.3575 -0.1961  0.2492
 2321EOH      H 9289   4.749   3.923   4.713 -1.8647 -1.0947 -1.0679
 2322EOH      O 9290   3.253   3.112   5.172 -0.2821 -0.3340  0.5525
 2322EOH      C 9291   3.380   3.169   5.205 -0.1595 -0.0959 -0.3260
 2322EOH      C 9292   3.461   3.085   5.306 -0.0895 -0.0242 -0.3211
 2322EOH      H 9293   3.218   3.158   5.098  3.1095 -1.2671 -1.7287
 2323EOH      O 9294   0.548   2.741   3.817 -0.1823 -0.7172  0.1755
 2323EOH      C 9295   0.622   2.761   3.938  0.1753 -0.0031 -0.1584
 2323EOH      C 9296   0.644   2.636   4.024 -0.1093 -0.2480 -0.4362
 2323EOH      H 9297   0.466   2.788   3.822  0.6767  0.9889 -1.3046
 2324EOH      O 9298   7.163   1.527   2.591 -0.2313  0.0494 -0.2892
 2324EOH      C 9299   7.085   1.450   2.500  0.0114 -0.1660 -0.3173
 2324EOH      C 9300   6.957   1.525   2.460 -0.5533 -0.7498  0.3885
 2324EOH      H 9301   7.186   1.462   2.656  0.0405 -0.8458 -1.2497
 2325EOH      O 9302   1.003   1.365   5.899  0.4815 -0.2036  0.3336
 2325EOH      C 9303   0.949   1.240   5.859 -0.9519  0.5129  0.0037
 2325EOH      C 9304   0.871   1.255   5.727  0.0982  0.4597 -0.6321
 2325EOH      H 9305   1.045   1.350   5.983  0.4980  0.5422  0.4675
 2326EOH      O 9306   1.150   4.572   4.740  0.2795  0.0453 -0.3919
 2326EOH      C 9307   1.032   4.653   4.735  0.3383  0.1308 -0.4005
 2326EOH      C 9308   0.946   4.636   4.608  0.1715 -0.2869 -0.2334
 2326EOH      H 9309   1.130   4.498   4.796 -0.9026  0.9199  0.3705
 2327EOH      O 9310   1.291   1.083   7.018  0.2099 -0.0497 -0.2265
 2327EOH      C 9311   1.405   1.157   6.974  0.4753 -0.5524 -0.3832
 2327EOH      C 9312   1.521   1.111   7.065  0.2735  0.3205  0.3192
 2327EOH      H 9313   1.234   1.067   6.945 -1.2673 -0.5883  1.0086
 2328EOH      O 9314   1.135   2.833   6.912 -0.1253  0.1965 -0.2676
 2328EOH      C 9315   1.167   2.694   6.903 -0.3367  0.1212  0.1203
 2328EOH      C 9316   1.034   2.620   6.878 -0.4781  0.7043 -0.8604
 2328EOH      H 9317   1.156   2.863   6.999  0.9726  0.6810 -0.6826
 2329EOH      O 9318   2.641   7.795   3.498  0.2232 -0.3617  0.0828
 2329EOH      C 9319   2.764   7.866   3.482 -0.1989  0.2964 -0.2884
 2329EOH      C 9320   2.849   7.808   3.367  0.1600 -0.0278  0.1382
 2329EOH      H 9321   2.579   7.825   3.433  0.2734  2.2645  1.1764
 2330EOH      O 9322   0.374   7.122   1.938 -0.3431 -0.1640  0.2240
 2330EOH      C 9323   0.434   7.246   1.902 -0.4471 -0.2485 -0.2442
 2330EOH      C 9324   0.569   7.212   1.836  0.1507 -0.0877  0.8803
 2330EOH      H 9325   0.415   7.105   2.021 -1.8567  0.1222  1.0612
 2331EOH      O 9326   3.930   3.106   6.168 -0.4170  0.2798  0.5489
 2331EOH      C 9327   3.810   3.168   6.214 -0.5797  0.5150 -0.1852
 2331EOH      C 9328   3.828   3.234   6.352  0.0895 -0.6139  0.2748
 2331EOH      H 9329   4.003   3.160   6.194  0.1798 -0.2160 -0.0572
 2332EOH      O 9330   7.785   0.015   3.189 -0.5531  0.9440  0.1674
 2332EOH      C 9331   7.787   0.092   3.068 -0.1657  0.3187 -0.2252
 2332EOH      C 9332   7.912   0.181   3.070 -0.0112  0.1023 -0.2774
 2332EOH      H 9333   7.703   0.036   3.231 -0.0511  2.4837  0.3998
 2333EOH      O 9334   1.785   0.335   1.454 -0.2953  0.4206  0.3076
 2333EOH      C 9335   1.746   0.198   1.456  0.1381  0.2879 -0.2270
 2333EOH      C 9336   1.601   0.185   1.406  0.2748 -0.3997 -0.4578
 2333EOH      H 9337   1.848   0.353   1.523 -0.1248  2.0338 -0.2382
 2334EOH      O 9338   7.609   7.256   2.661 -0.0632  0.1488  0.6953
 2334EOH      C 9339   7.610   7.226   2.801  0.4494 -0.4732  0.5624
 2334EOH      C 9340   7.487   7.300   2.857  0.0457 -0.5411 -0.2284
 2334EOH      H 9341   7.555   7.192   2.616 -2.1274  1.2354  1.5531
 2335EOH      O 9342   1.977   2.835   7.433 -0.1299  0.0838 -0.0766
 2335EOH      C 9343   1.975   2.830   7.290  0.2737  0.1354 -0.0835
 2335EOH      C 9344   2.036   2.694   7.250 -0.3557 -0.0641 -0.3733
 2335EOH      H 9345   1.958   2.926   7.453 -1.0660  0.4626 -2.4968
 2336EOH      O 9346   2.875   3.082   6.039 -0.0824 -0.1588  0.2833
 2336EOH      C 9347   2.895   2.944   6.071 -0.1914 -0.3584 -0.4998
 2336EOH      C 9348   3.042   2.938   6.119 -0.3018  0.1164 -0.0869
 2336EOH      H 9349   2.790   3.099   6.001  1.0750  1.3779 -1.7258
 2337EOH      O 9350   1.666   5.036   0.193  0.3365  0.0856  0.4575
 2337EOH      C 9351   1.694   4.896   0.186  0.2986  0.1061 -0.1054
 2337EOH      C 9352   1.832   4.886   0.118  0.2005  0.7760 -0.4087
 2337EOH      H 9353   1.583   5.034   0.239 -0.4975 -1.7027 -1.0685
 2338EOH      O 9354   1.864   3.177   6.935  0.1220 -0.0879 -0.0604
 2338EOH      C 9355   1.985   3.228   6.991  0.3261  0.0933 -0.6574
 2338EOH      C 9356   2.072   3.109   7.036 -0.1287 -0.2536 -0.6984
 2338EOH      H 9357   1.805   3.250   6.925  0.8009  0.5030  0.2438
 2339EOH      O 9358   3.061   5.196   5.336 -0.0835 -0.6550  0.0611
 2339EOH      C 9359   3.183   5.226   5.268 -0.3811  0.2791 -0.0767
 2339EOH      C 9360   3.260   5.092   5.269 -0.4203  0.2562 -0.0972
 2339EOH      H 9361   3.005   5.272   5.332 -0.6581 -1.0826 -0.0839
 2340EOH      O 9362   1.443   6.490   1.209 -0.2267  0.5021  0.3052
 2340EOH      C 9363   1.462   6.451   1.345 -0.2296  0.1458  0.2036
 2340EOH      C 9364   1.588   6.514   1.407  0.0720 -0.5239  0.2682
 2340EOH      H 9365   1.350   6.495   1.192 -0.5577  2.6496  2.4679
 2341EOH      O 9366   0.981   5.910   2.526 -0.2017 -0.1813  0.1474
 2341EOH      C 9367   0.882   6.008   2.555 -0.1435  0.0628 -0.4710
 2341EOH      C 9368   0.845   5.996   2.704 -0.1093  0.5837 -0.4169
 2341EOH      H 9369   0.947   5.827   2.554 -0.2325  0.3515  1.7251
 2342EOH      O 9370   0.902   4.201   7.885 -0.3651 -0.0588  0.0598
 2342EOH      C 9371   0.932   4.157   7.752  0.1226  0.3143  0.0435
 2342EOH      C 9372   0.908   4.004   7.746  0.2878  0.2762  0.3412
 2342EOH      H 9373   0.970   4.163   7.938  0.1778  0.3677 -0.3191
 2343EOH      O 9374   1.454   6.512   2.109 -0.4263 -0.1135 -0.4107
 2343EOH      C 9375   1.436   6.409   2.207  0.4398  0.3303  0.2226
 2343EOH      C 9376   1.536   6.410   2.324  0.3610  0.1322  0.2907
 2343EOH      H 9377   1.412   6.484   2.029 -1.3059 -0.7832  0.2705
 2344EOH      O 9378   3.506   3.271   6.110 -0.1683  0.1434  0.6661
 2344EOH      C 9379   3.509   3.411   6.138  0.1596  0.2412  0.1484
 2344EOH      C 9380   3.594   3.470   6.024 -0.3929  0.1490 -0.3149
 2344EOH      H 9381   3.530   3.223   6.188 -1.7856 -0.8112  0.5823
 2345EOH      O 9382   0.439   7.606   2.861 -0.0010 -0.0761 -0.0573
 2345EOH      C 9383   0.297   7.610   2.849  0.0726  0.0917 -0.9392
 2345EOH      C 9384   0.254   7.746   2.908  0.7310 -0.2436  0.3131
 2345EOH      H 9385   0.472   7.686   2.821 -1.9025 -0.3813 -2.3495
 2346EOH      O 9386   1.586   4.410   0.742  0.4045  0.5354  0.0080
 2346EOH      C 9387   1.503   4.473   0.840 -0.1070  0.5062 -0.4052
 2346EOH      C 9388   1.562   4.455   0.982 -0.0878 -0.1867 -0.4998
 2346EOH      H 9389   1.532   4.385   0.669  2.4155  0.5235 -1.5142
 2347EOH      O 9390   7.480   2.428   3.306 -0.5880  0.0075 -0.1160
 2347EOH      C 9391   7.489   2.482   3.438  0.2617  0.0042 -0.1714
 2347EOH      C 9392   7.585   2.386   3.512  0.2336  0.1492  0.0544
 2347EOH      H 9393   7.560   2.460   3.267 -1.6758 -0.6256 -2.9913
 2348EOH      O 9394   2.906   5.219   7.431  0.2260  0.3336 -0.0242
 2348EOH      C 9395   2.890   5.341   7.504 -0.0124  0.0704  0.3643
 2348EOH      C 9396   2.932   5.333   7.652  0.2295  0.3216  0.3102
 2348EOH      H 9397   2.860   5.231   7.349 -0.5785 -2.2076  0.0335
 2349EOH      O 9398   3.171   3.651   3.730 -0.1980 -0.1866  0.1698
 2349EOH      C 9399   3.277   3.567   3.777 -0.2812 -0.1486  0.4252
 2349EOH      C 9400   3.310   3.433   3.707  0.1764  0.0851  0.1931
 2349EOH      H 9401   3.190   3.687   3.645  0.0007  1.2363  0.8119
 2350EOH      O 9402   1.232   6.614   0.231  0.1258 -0.1320  0.6909
 2350EOH      C 9403   1.374   6.608   0.248  0.1668 -0.3175  0.3023
 2350EOH      C 9404   1.416   6.709   0.357  0.6392  0.4285 -0.5686
 2350EOH      H 9405   1.183   6.550   0.280 -1.7000  0.2221 -0.6415
 2351EOH      O 9406   2.887   7.128   4.244 -0.3106 -0.2352  0.6062
 2351EOH      C 9407   2.967   7.208   4.157 -0.8111 -0.2776  0.1104
 2351EOH      C 9408   3.082   7.270   4.237 -0.5699 -0.4691 -0.0842
 2351EOH      H 9409   2.906   7.037   4.223  0.7206 -0.0362  0.6646
 2352EOH      O 9410   4.292   5.090   6.050  0.2568  0.0741  0.1257
 2352EOH      C 9411   4.306   5.159   5.926 -0.1677 -0.1992 -0.0783
 2352EOH      C 9412   4.267   5.062   5.813  0.0438 -0.1537 -0.1925
 2352EOH      H 9413   4.369   5.102   6.102  1.2977 -0.9762 -1.1191
 2353EOH      O 9414   4.122   2.586   7.714  0.1753 -0.7953  0.0018
 2353EOH      C 9415   4.135   2.495   7.824 -0.3608 -0.5836  0.2446
 2353EOH      C 9416   4.242   2.391   7.785 -0.0081 -0.1369  0.0232
 2353EOH      H 9417   4.087   2.540   7.639 -0.9732  1.0798 -0.6357
 2354EOH      O 9418   3.791   2.243   0.502 -0.1527 -0.2756 -0.2809
 2354EOH      C 9419   3.705   2.297   0.602  0.0357  0.4855 -0.5212
 2354EOH      C 9420   3.591   2.381   0.543 -0.0588  0.2153 -0.7211
 2354EOH      H 9421   3.854   2.311   0.480 -0.0329  0.1360  1.2778
 2355EOH      O 9422   1.972   3.392   6.629  0.3392 -0.0133  0.0223
 2355EOH      C 9423   2.092   3.338   6.572  0.2282  0.0244 -0.2477
 2355EOH      C 9424   2.151   3.232   6.666  0.0100 -0.0106 -0.1476
 2355EOH      H 9425   1.898   3.333   6.637  0.0235  0.6704  2.8965
 2356EOH      O 9426   0.406   3.499   1.264  0.2048  0.3718  0.1281
 2356EOH      C 9427   0.371   3.505   1.125  0.4966  0.1749  0.0464
 2356EOH      C 9428   0.371   3.368   1.056 -0.3184  0.1016  0.1969
 2356EOH      H 9429   0.498   3.480   1.264  0.1233 -0.5940 -4.6149
 2357EOH      O 9430   4.377   4.326   4.195  0.1523  0.1588 -0.2783
 2357EOH      C 9431   4.369   4.426   4.093 -0.3150  0.7268  0.3115
 2357EOH      C 9432   4.219   4.442   4.061 -0.3348  0.0676  0.0708
 2357EOH      H 9433   4.404   4.249   4.147  2.9426 -0.6697  2.4619
 2358EOH      O 9434   3.499   3.114   1.168  0.2167 -0.1944  0.2979
 2358EOH      C 9435   3.546   3.027   1.065 -0.0018  0.4468 -0.3462
 2358EOH      C 9436   3.439   2.927   1.015  0.3033  0.2172 -0.5420
 2358EOH      H 9437   3.476   3.196   1.126  1.3906 -0.3740 -0.7226
 2359EOH      O 9438   1.849   5.594   3.920  0.5405 -0.4148  0.2527
 2359EOH      C 9439   1.798   5.713   3.982  0.0871 -0.4734 -0.0105
 2359EOH      C 9440   1.807   5.732   4.134 -0.1294  0.4214 -0.1111
 2359EOH      H 9441   1.795   5.519   3.938  0.2636  0.2349  2.2800
 2360EOH      O 9442   1.327   1.149   4.150  0.5817  0.1468  0.2998
 2360EOH      C 9443   1.380   1.018   4.133  0.6999  0.1965  0.2891
 2360EOH      C 9444   1.393   0.953   4.272 -0.4763  0.2080  0.4080
 2360EOH      H 9445   1.252   1.140   4.206  0.2791  1.4832  0.1244
 2361EOH      O 9446   1.965   5.768   2.395 -0.0882  0.1660  0.7681
 2361EOH      C 9447   2.102   5.808   2.387 -0.1935  0.3609 -0.1265
 2361EOH      C 9448   2.113   5.951   2.443 -0.1332  0.4030 -0.2464
 2361EOH      H 9449   1.960   5.682   2.357 -0.4952  1.5218 -2.3789
 2362EOH      O 9450   2.712   0.485   4.961 -0.2937  1.0869  0.0451
 2362EOH      C 9451   2.711   0.446   5.099  0.0748  0.6356 -0.0781
 2362EOH      C 9452   2.563   0.469   5.135 -0.2293 -0.8772 -0.3112
 2362EOH      H 9453   2.707   0.579   4.958 -0.0007  1.1663  1.5091
 2363EOH      O 9454   2.138   1.561   6.027 -0.0609 -0.6909  0.2610
 2363EOH      C 9455   2.216   1.613   6.135 -0.3748  0.2085  0.0615
 2363EOH      C 9456   2.132   1.601   6.264 -0.2643 -0.2143  0.0927
 2363EOH      H 9457   2.131   1.633   5.965  1.6998 -0.1556  0.6407
 2364EOH      O 9458   2.205   4.489   4.634 -0.2370  0.0853  0.2316
 2364EOH      C 9459   2.092   4.420   4.688  0.1301 -0.4368  0.3431
 2364EOH      C 9460   1.970   4.513   4.670  0.3085 -0.2015  0.3461
 2364EOH      H 9461   2.177   4.500   4.544 -0.2170  2.4194  0.4976
 2365EOH      O 9462   3.949   4.173   6.214 -0.3797  0.5135 -0.2676
 2365EOH      C 9463   3.943   4.248   6.336  0.6552  0.3575 -0.1200
 2365EOH      C 9464   3.851   4.370   6.320 -0.2459 -0.3453 -0.2943
 2365EOH      H 9465   3.864   4.139   6.191 -0.4336 -0.3766  1.2365
 2366EOH      O 9466   3.178   4.345   6.911 -0.0023 -0.2364  0.2023
 2366EOH      C 9467   3.281   4.422   6.972  0.0760 -0.3893  0.2619
 2366EOH      C 9468   3.228   4.549   7.041  0.2818  0.1318 -0.5430
 2366EOH      H 9469   3.168   4.391   6.829 -0.4429  1.6750  1.2810
 2367EOH      O 9470   3.405   4.115   5.323  0.0423 -0.6549  0.1217
 2367EOH      C 9471   3.424   4.025   5.433 -0.3911 -0.4962  0.3249
 2367EOH      C 9472   3.416   4.118   5.556 -0.3663 -0.6408  0.4347
 2367EOH      H 9473   3.345   4.075   5.263 -1.4116 -0.5646  1.4939
 2368EOH      O 9474   2.852   0.227   0.621 -0.3765  0.4580 -0.6017
 2368EOH      C 9475   2.933   0.288   0.521  0.0684  0.1552 -0.4241
 2368EOH      C 9476   2.891   0.436   0.509 -0.2491  0.1417  0.5131
 2368EOH      H 9477   2.910   0.182   0.680  0.1292  3.1157  1.0062
 2369EOH      O 9478   6.271   0.865   4.279 -0.5836  0.3983 -0.0154
 2369EOH      C 9479   6.143   0.849   4.342 -0.2659  0.4005  0.6416
 2369EOH      C 9480   6.113   0.704   4.384 -0.0811  0.1636 -0.0340
 2369EOH      H 9481   6.272   0.949   4.235  2.8122 -1.1816 -3.1573
 2370EOH      O 9482   5.011   1.617   3.523  0.6888 -0.2810 -0.1670
 2370EOH      C 9483   5.042   1.686   3.644  0.2244 -0.1221 -0.1364
 2370EOH      C 9484   4.944   1.647   3.756 -0.0593  0.3569 -0.2179
 2370EOH      H 9485   5.027   1.679   3.453 -1.1755 -0.1739 -0.5486
 2371EOH      O 9486   3.167   0.463   6.571 -0.2537  0.3075  0.1191
 2371EOH      C 9487   3.211   0.598   6.587 -0.0536  0.2802 -0.1900
 2371EOH      C 9488   3.285   0.633   6.718 -0.5662  0.4964  0.0462
 2371EOH      H 9489   3.220   0.439   6.497 -0.4744 -0.0796  0.0854
 2372EOH      O 9490   7.302   6.152   3.162 -0.2161 -0.3123  0.4400
 2372EOH      C 9491   7.401   6.060   3.117 -0.3680 -0.4317  0.3469
 2372EOH      C 9492   7.414   6.061   2.964 -0.1453 -0.3836  0.3651
 2372EOH      H 9493   7.345   6.214   3.218 -1.2506 -0.7621  1.7466
 2373EOH      O 9494   1.530   7.411   0.397  0.0758 -0.0702  0.7280
 2373EOH      C 9495   1.661   7.379   0.445  0.4470 -0.0510 -0.2561
 2373EOH      C 9496   1.745   7.507   0.435 -0.1265  0.3283 -0.2709
 2373EOH      H 9497   1.479   7.333   0.414  2.2875 -2.0612 -1.4520
 2374EOH      O 9498   6.357   1.901   2.778  0.1045 -0.1858 -0.1289
 2374EOH      C 9499   6.421   2.021   2.821 -0.4040  0.3339 -0.8166
 2374EOH      C 9500   6.334   2.108   2.913 -0.2794 -0.1390 -0.2493
 2374EOH      H 9501   6.329   1.862   2.860 -1.2723  1.1758  0.0608
 2375EOH      O 9502   3.837   5.521   6.706  0.1332 -0.5737 -0.1962
 2375EOH      C 9503   3.741   5.598   6.632  0.4000  0.1593  0.2220
 2375EOH      C 9504   3.601   5.598   6.695  0.0228  0.1996 -0.6134
 2375EOH      H 9505   3.924   5.542   6.678 -0.9049  3.2340 -0.8581
 2376EOH      O 9506   0.112   0.859   4.889  0.1261 -0.3394  0.3269
 2376EOH      C 9507   0.236   0.898   4.948  0.1313 -0.1428  0.1893
 2376EOH      C 9508   0.347   0.831   4.866  0.4932  0.3741  0.2521
 2376EOH      H 9509   0.116   0.771   4.856  1.9111 -1.3746  3.2299
 2377EOH      O 9510   2.789   2.869   1.399 -0.8153  0.6644 -0.4840
 2377EOH      C 9511   2.839   2.961   1.496  0.0566  0.1728 -0.4621
 2377EOH      C 9512   2.967   3.023   1.436  0.7274  0.0788  0.8637
 2377EOH      H 9513   2.724   2.814   1.439  0.1622  0.4792  0.8811
 2378EOH      O 9514   1.714   6.485   2.859  0.0005 -0.4359 -0.1382
 2378EOH      C 9515   1.621   6.392   2.803 -0.2420 -0.0112 -0.4435
 2378EOH      C 9516   1.557   6.451   2.676 -0.1106  0.1557 -0.4310
 2378EOH      H 9517   1.792   6.485   2.806  0.2257  1.9416  0.1579
 2379EOH      O 9518   7.235   1.230   3.365  0.1500 -0.5459 -0.3829
 2379EOH      C 9519   7.366   1.225   3.422  0.1254 -0.3855 -0.3136
 2379EOH      C 9520   7.416   1.369   3.441 -0.3117 -0.3757  0.8108
 2379EOH      H 9521   7.210   1.139   3.356 -1.4324 -0.0285 -1.4655
 2380EOH      O 9522   2.970   0.028   0.777  0.3152 -0.6383  0.1407
 2380EOH      C 9523   2.856  -0.047   0.819 -0.0498  0.0362  0.3659
 2380EOH      C 9524   2.835  -0.159   0.715  0.4044  0.0049  0.3066
 2380EOH      H 9525   3.022   0.026   0.856 -0.9541  0.6749  1.0262
 2381EOH      O 9526   0.365   2.614   4.595 -0.3121 -0.5356 -0.0387
 2381EOH      C 9527   0.388   2.689   4.475 -0.5537 -0.2794  0.0762
 2381EOH      C 9528   0.418   2.601   4.353  0.2219 -0.1927  0.2032
 2381EOH      H 9529   0.293   2.554   4.586  1.1295 -2.1875 -0.7679
 2382EOH      O 9530   4.603   4.216   6.572  0.0347  0.4416 -0.1188
 2382EOH      C 9531   4.701   4.309   6.525 -0.1695  0.3727 -0.6821
 2382EOH      C 9532   4.798   4.343   6.640 -0.6096 -0.1140 -0.1630
 2382EOH      H 9533   4.553   4.243   6.647  0.2421 -1.6059  0.7849
 2383EOH      O 9534   2.509   6.260   4.212 -0.3667  0.2239 -0.2087
 2383EOH      C 9535   2.591   6.280   4.097  0.1583 -0.1601  0.0971
 2383EOH      C 9536   2.723   6.337   4.150  0.0405  0.0383  0.1778
 2383EOH      H 9537   2.561   6.206   4.270 -0.4754 -0.8900 -1.1423
 2384EOH      O 9538   4.831   1.463   3.432  0.1842  0.5750 -0.3270
 2384EOH      C 9539   4.702   1.496   3.483 -0.0112 -0.2109 -0.3072
 2384EOH      C 9540   4.587   1.434   3.402 -0.1942 -0.4002  0.0912
 2384EOH      H 9541   4.898   1.516   3.474  1.1085 -0.0042 -1.0459
 2385EOH      O 9542   2.772   0.864   7.198  0.3751 -0.5625  0.0169
 2385EOH      C 9543   2.853   0.938   7.290 -0.2288  0.3858 -0.2059
 2385EOH      C 9544   2.809   0.887   7.429 -0.0081  0.1066 -0.2376
 2385EOH      H 9545   2.690   0.908   7.215 -0.3037 -1.7051 -0.2811
 2386EOH      O 9546   5.215   0.284   4.334  0.1556 -0.0645 -0.3548
 2386EOH      C 9547   5.348   0.331   4.360 -0.1467  0.3301  0.4891
 2386EOH      C 9548   5.345   0.469   4.427  0.2819  0.4818  0.1921
 2386EOH      H 9549   5.195   0.208   4.387 -2.9345  1.1988  0.4262
 2387EOH      O 9550   4.968   3.976   3.223  0.1789  0.6976  0.0802
 2387EOH      C 9551   5.039   4.064   3.310  0.4572  0.9735 -0.4300
 2387EOH      C 9552   5.190   4.034   3.306  0.2573 -0.2314  0.6046
 2387EOH      H 9553   4.878   4.006   3.224 -0.9439 -2.4624  2.2673
 2388EOH      O 9554   3.655   3.318   3.128  0.2966 -0.0764 -0.2036
 2388EOH      C 9555   3.515   3.331   3.151  0.4214 -0.0088  0.5141
 2388EOH      C 9556   3.490   3.378   3.296  0.1515  0.3434  0.3534
 2388EOH      H 9557   3.683   3.233   3.157 -1.5325 -1.8021 -3.2779
 2389EOH      O 9558   5.540   2.141   4.194  0.7939  0.0165  0.1120
 2389EOH      C 9559   5.456   2.064   4.107 -0.1249  1.2180 -0.0718
 2389EOH      C 9560   5.349   1.985   4.186  0.5877 -0.0146 -0.3275
 2389EOH      H 9561   5.497   2.224   4.206 -1.7326 -1.1392 -0.6490
 2390EOH      O 9562   1.354   2.215   4.315  0.1843 -0.0151 -0.7382
 2390EOH      C 9563   1.281   2.098   4.279 -0.1239  0.0433 -0.3018
 2390EOH      C 9564   1.327   2.052   4.140 -0.1414  0.2524 -0.3776
 2390EOH      H 9565   1.431   2.188   4.362  1.6146  1.1418 -2.3219
 2391EOH      O 9566   0.512   7.849   2.728  0.8255 -0.1157  0.0638
 2391EOH      C 9567   0.571   7.979   2.723  0.6692 -0.0362  0.2759
 2391EOH      C 9568   0.498   8.081   2.813 -0.0143  0.0975 -0.4244
 2391EOH      H 9569   0.449   7.848   2.658 -0.6620 -0.2569  1.3772
 2392EOH      O 9570   5.737   2.205   3.812 -0.5660 -0.6110  0.1435
 2392EOH      C 9571   5.760   2.165   3.677  0.0071 -0.4676  0.1973
 2392EOH      C 9572   5.675   2.245   3.577 -0.0471 -0.4276  0.2752
 2392EOH      H 9573   5.749   2.126   3.862  0.7101 -0.9103 -0.6306
 2393EOH      O 9574   1.255   2.540   2.206  0.3390 -0.4902  0.0988
 2393EOH      C 9575   1.396   2.521   2.186  0.3811 -0.3260  0.2416
 2393EOH      C 9576   1.471   2.607   2.289 -0.1026  0.5735 -0.1479
 2393EOH      H 9577   1.232   2.498   2.288  0.5838  0.1146  0.4777
 2394EOH      O 9578   2.799   2.589   6.115 -0.6016 -0.0132 -0.0945
 2394EOH      C 9579   2.905   2.560   6.208 -0.6288 -0.2148 -0.1248
 2394EOH      C 9580   2.856   2.540   6.353  0.4188 -0.1314  0.2406
 2394EOH      H 9581   2.844   2.604   6.033  1.0338  2.3818  1.1827
 2395EOH      O 9582   2.946   3.241   7.663 -0.1089 -0.1870 -0.1851
 2395EOH      C 9583   2.937   3.115   7.729  0.0935  0.1983  0.5883
 2395EOH      C 9584   2.795   3.093   7.785  0.1416 -0.4865  0.4497
 2395EOH      H 9585   3.032   3.281   7.673  0.3309 -0.9384 -0.9091
 2396EOH      O 9586   2.380   5.527   1.251  0.0607  0.2962 -0.1330
 2396EOH      C 9587   2.437   5.642   1.187 -0.5089  0.8390  0.3295
 2396EOH      C 9588   2.562   5.686   1.265 -0.0236  0.3031 -0.1388
 2396EOH      H 9589   2.311   5.490   1.199  1.2475 -2.1122 -0.0625
 2397EOH      O 9590   3.563   4.002   3.468  0.1517 -0.1805 -0.2444
 2397EOH      C 9591   3.696   4.032   3.509  0.1184 -0.2463 -0.0864
 2397EOH      C 9592   3.711   3.994   3.658 -0.0037  0.6421  0.1542
 2397EOH      H 9593   3.568   4.004   3.374  1.3026  1.7621 -0.1614
 2398EOH      O 9594   1.792   0.886   4.722  0.4262  0.1860  0.0435
 2398EOH      C 9595   1.703   0.778   4.754  0.2296  0.3463  0.0354
 2398EOH      C 9596   1.771   0.694   4.864  0.6340  1.1315  0.3912
 2398EOH      H 9597   1.880   0.851   4.732  0.0042 -0.5679  1.3105
 2399EOH      O 9598   1.700   5.244   3.055 -0.3351 -0.0281 -0.1183
 2399EOH      C 9599   1.813   5.326   3.082 -0.2673 -0.1305 -0.0918
 2399EOH      C 9600   1.942   5.265   3.024 -0.0657 -0.1812  0.4061
 2399EOH      H 9601   1.625   5.288   3.091 -0.5884 -0.6479  0.1203
 2400EOH      O 9602   0.612   0.985   7.296 -0.3166  0.4038 -0.2307
 2400EOH      C 9603   0.565   1.120   7.302 -0.4897  0.3113  0.5878
 2400EOH      C 9604   0.464   1.157   7.191 -0.3518 -0.3345  0.2434
 2400EOH      H 9605   0.662   0.968   7.374 -1.0278  3.6397  1.0131
 2401EOH      O 9606   2.073   4.517   0.871  0.2366  0.1149 -0.1125
 2401EOH      C 9607   2.002   4.463   0.983  0.5718  0.1343  0.1075
 2401EOH      C 9608   1.969   4.582   1.076  0.1657 -0.2381  0.4395
 2401EOH      H 9609   2.009   4.522   0.802  0.8665 -0.4795 -0.7419
 2402EOH      O 9610   2.970   5.818   2.581  0.1990 -0.4885 -0.0662
 2402EOH      C 9611   2.994   5.870   2.450 -0.1964  0.6258  0.2927
 2402EOH      C 9612   2.894   5.801   2.356  0.0283 -0.1314  0.5989
 2402EOH      H 9613   2.950   5.726   2.571 -1.9574 -0.2466  1.5868
 2403EOH      O 9614   3.440   1.184   7.856 -0.2242 -0.4623  0.0387
 2403EOH      C 9615   3.566   1.184   7.923 -0.1836 -0.2750 -0.0340
 2403EOH      C 9616   3.572   1.301   8.022  0.2615 -0.0047 -0.3782
 2403EOH      H 9617   3.438   1.271   7.817 -0.1976 -0.9706 -1.1197
 2404EOH      O 9618   3.080   7.454   1.739 -0.1811  0.2925  0.0145
 2404EOH      C 9619   2.963   7.382   1.779 -0.2805  0.4387 -0.0095
 2404EOH      C 9620   2.936   7.266   1.681  0.2354  0.4628 -0.1868
 2404EOH      H 9621   3.061   7.547   1.741  3.6316  1.1917 -0.7498
 2405EOH      O 9622   3.003   3.853   5.433  0.3801 -0.0335 -0.1779
 2405EOH      C 9623   2.945   3.771   5.331 -0.2694 -0.1284  0.2653
 2405EOH      C 9624   2.821   3.705   5.395 -0.3888 -0.0907  0.0717
 2405EOH      H 9625   3.066   3.802   5.482  0.2875 -1.6514 -1.7072
 2406EOH      O 9626   0.265   3.338   1.399 -0.2681  0.1063  0.0733
 2406EOH      C 9627   0.231   3.379   1.532 -0.1724 -0.3647  0.2424
 2406EOH      C 9628   0.142   3.276   1.604 -0.2209 -0.7066 -0.3029
 2406EOH      H 9629   0.321   3.406   1.365  1.5854 -1.6786 -0.5119
 2407EOH      O 9630   0.718   4.370   2.492  0.2661 -0.2143 -0.3766
 2407EOH      C 9631   0.683   4.233   2.468  0.0853 -0.2473  0.0531
 2407EOH      C 9632   0.698   4.157   2.601  0.1608 -0.2375  0.0499
 2407EOH      H 9633   0.812   4.373   2.489  0.2821 -0.2305  0.0271
 2408EOH      O 9634   3.100   1.067   0.336 -0.2271  0.7324 -0.2327
 2408EOH      C 9635   3.223   1.095   0.268 -0.1504  0.1227 -0.3503
 2408EOH      C 9636   3.300   1.200   0.351  0.2899 -0.2974 -0.2236
 2408EOH      H 9637   3.065   0.983   0.310  0.3139 -0.4013  2.5636
 2409EOH      O 9638   1.964   6.848   4.212  0.3960  0.2700 -0.2605
 2409EOH      C 9639   1.983   6.708   4.191  0.3345  0.2584 -0.2387
 2409EOH      C 9640   2.028   6.648   4.326  0.2664 -0.0039 -0.3326
 2409EOH      H 9641   2.045   6.897   4.205  0.2417  0.4795 -0.6299
 2410EOH      O 9642   2.087   4.237   6.648 -0.1059  0.6365 -0.0770
 2410EOH      C 9643   1.968   4.182   6.591  0.0485  0.2523 -0.0341
 2410EOH      C 9644   1.967   4.187   6.437 -0.2986  0.3125 -0.0306
 2410EOH      H 9645   2.097   4.330   6.635  1.2881  0.5652  0.3358
 2411EOH      O 9646   3.013   3.412   6.921 -0.0597  0.1998  0.3523
 2411EOH      C 9647   2.900   3.453   6.843 -0.1760 -0.0930  0.3684
 2411EOH      C 9648   2.817   3.544   6.935  0.3437  0.2608  0.4926
 2411EOH      H 9649   2.986   3.339   6.975  0.0735 -0.2519 -0.1848
 2412EOH      O 9650   2.410   7.190   4.976  0.1369  0.1146  0.1026
 2412EOH      C 9651   2.478   7.276   4.884  0.1149  0.3059  0.2629
 2412EOH      C 9652   2.574   7.375   4.953  0.0079  0.4642  0.1845
 2412EOH      H 9653   2.452   7.106   4.967  1.2064  0.7758 -1.2116
 2413EOH      O 9654   2.242   0.432   5.054 -0.4541 -0.5944  0.2831
 2413EOH      C 9655   2.143   0.530   5.022 -0.1068 -0.2313  0.3079
 2413EOH      C 9656   2.112   0.602   5.154  0.0418  0.3895  0.0054
 2413EOH      H 9657   2.249   0.388   4.971 -0.0509 -0.1948  0.1006
 2414EOH      O 9658   1.246   3.603   7.374  0.1522  0.1363  0.0409
 2414EOH      C 9659   1.379   3.565   7.411  0.0410 -0.1522  0.1521
 2414EOH      C 9660   1.399   3.557   7.563  0.1059  0.1127  0.1584
 2414EOH      H 9661   1.188   3.537   7.409  0.6767 -1.4892 -2.0739
 2415EOH      O 9662   2.983   3.003   0.398  0.1245 -0.1621  0.0916
 2415EOH      C 9663   2.928   2.929   0.508 -0.1378  0.0609  0.1113
 2415EOH      C 9664   2.973   2.783   0.490 -0.2875  0.0452 -0.1292
 2415EOH      H 9665   2.922   3.070   0.370  0.1785 -1.9774 -4.8432
 2416EOH      O 9666   2.247   5.985   4.451 -0.2097 -0.1328  0.3575
 2416EOH      C 9667   2.207   5.853   4.412 -0.0961 -0.1299  0.2308
 2416EOH      C 9668   2.330   5.764   4.386  0.4299  0.5285  0.4560
 2416EOH      H 9669   2.230   6.047   4.382 -0.9220  0.4111  1.0178
 2417EOH      O 9670   3.563   7.467   5.042  0.0982 -0.4659  0.0949
 2417EOH      C 9671   3.559   7.423   4.907 -0.0479  0.6367 -0.2667
 2417EOH      C 9672   3.411   7.434   4.866 -0.3406 -0.2654  0.5327
 2417EOH      H 9673   3.484   7.434   5.081  0.0699 -1.3558 -0.6971
 2418EOH      O 9674   5.077   4.363   4.141 -0.2213  0.3662 -0.4885
 2418EOH      C 9675   5.166   4.454   4.076  0.0204  0.4368 -0.0592
 2418EOH      C 9676   5.186   4.418   3.928  0.2790  0.2988  0.0089
 2418EOH      H 9677   5.135   4.320   4.202  0.2759  0.7554 -0.6803
 2419EOH      O 9678   2.445   0.600   6.467  0.4812  0.2684 -0.0693
 2419EOH      C 9679   2.363   0.597   6.350  0.3896  0.3066 -0.0061
 2419EOH      C 9680   2.378   0.737   6.286 -0.1608  0.2162 -0.3307
 2419EOH      H 9681   2.407   0.526   6.512 -2.0384  2.2849  1.2657
 2420EOH      O 9682   3.210   6.304   2.437 -0.1348  0.0089 -0.3570
 2420EOH      C 9683   3.331   6.234   2.465 -0.1632 -0.0165 -0.2980
 2420EOH      C 9684   3.307   6.086   2.427  0.1986 -0.1869  0.1346
 2420EOH      H 9685   3.168   6.326   2.519  0.4731  2.7913 -0.7523
 2421EOH      O 9686   3.825   4.686   6.796 -0.1069  0.8431  0.3020
 2421EOH      C 9687   3.965   4.662   6.774 -0.2343  0.5608 -0.2229
 2421EOH      C 9688   4.002   4.725   6.639 -0.2443 -0.1911 -0.5756
 2421EOH      H 9689   3.813   4.777   6.818 -1.4206  0.9389 -0.7319
 2422EOH      O 9690   1.606   3.943   6.019 -0.1835 -0.0940  0.2806
 2422EOH      C 9691   1.565   3.984   5.889 -0.5616  0.7138  0.6500
 2422EOH      C 9692   1.524   4.132   5.900  0.0758  0.9651 -0.2620
 2422EOH      H 9693   1.683   3.995   6.040  0.9981 -1.3364 -0.9105
 2423EOH      O 9694   1.300   1.155   6.220  0.3585  0.0252 -0.1249
 2423EOH      C 9695   1.438   1.185   6.240  0.2699  0.5874 -0.3386
 2423EOH      C 9696   1.450   1.181   6.393  0.1030 -0.0373 -0.3400
 2423EOH      H 9697   1.290   1.061   6.220  1.7412 -0.1653 -2.2340
 2424EOH      O 9698   3.836   6.556   3.743  0.3150 -0.2265  0.5390
 2424EOH      C 9699   3.915   6.467   3.663 -0.2084  0.0358 -0.2719
 2424EOH      C 9700   3.836   6.336   3.644 -0.3339  0.0900 -0.1274
 2424EOH      H 9701   3.818   6.522   3.829 -0.5611  0.2756  0.5602
 2425EOH      O 9702   2.826   7.715   2.054  0.2500  0.2250 -0.0233
 2425EOH      C 9703   2.717   7.775   1.984  0.2757 -0.0052 -0.2595
 2425EOH      C 9704   2.702   7.909   2.059  0.6578 -0.0424 -0.1144
 2425EOH      H 9705   2.807   7.692   2.144 -0.3486 -1.3833 -0.5504
 2426EOH      O 9706   2.451   2.445   4.099 -0.1316 -0.5288 -0.0739
 2426EOH      C 9707   2.460   2.322   4.171  0.3361 -0.1633  0.5009
 2426EOH      C 9708   2.407   2.204   4.087  0.1961  0.4246 -0.2506
 2426EOH      H 9709   2.514   2.445   4.028 -0.4044 -2.3990 -0.3455
 2427EOH      O 9710   7.065   0.671   2.147  0.2652 -0.2071 -0.4568
 2427EOH      C 9711   6.932   0.635   2.111 -0.0681 -0.1394  0.6898
 2427EOH      C 9712   6.843   0.761   2.110 -0.1874 -0.2243 -0.3346
 2427EOH      H 9713   7.110   0.589   2.163 -0.5714 -0.6003 -0.0860
 2428EOH      O 9714   0.676   1.377   1.161 -0.1696 -0.0050  0.2886
 2428EOH      C 9715   0.817   1.360   1.143 -0.2344  0.0365 -0.2654
 2428EOH      C 9716   0.899   1.451   1.236 -0.5740 -0.2576  0.3253
 2428EOH      H 9717   0.654   1.396   1.251  0.7019 -1.3736  0.8105
 2429EOH      O 9718   2.728   5.336   0.589  0.1502  0.1448 -0.0478
 2429EOH      C 9719   2.680   5.425   0.487 -0.4528  0.3437  0.4089
 2429EOH      C 9720   2.621   5.339   0.374  0.3480  0.0544  0.2064
 2429EOH      H 9721   2.720   5.383   0.671 -1.8108 -1.0719  0.5031
 2430EOH      O 9722   2.748   5.250   6.360  0.0173  0.2526  0.1316
 2430EOH      C 9723   2.725   5.164   6.472 -0.2150  0.4855  0.2631
 2430EOH      C 9724   2.841   5.189   6.570 -0.0039 -0.5271  0.2737
 2430EOH      H 9725   2.781   5.201   6.286  0.6194  1.1290 -0.1919
 2431EOH      O 9726   5.769   0.085   4.702 -0.2818 -0.5691 -0.1386
 2431EOH      C 9727   5.693   0.070   4.822 -0.1416 -0.0574  0.0142
 2431EOH      C 9728   5.676   0.210   4.884 -0.0180 -0.4812  1.0217
 2431EOH      H 9729   5.737   0.021   4.641  0.2699 -1.6261  0.6506
 2432EOH      O 9730   1.290   7.554   1.822 -0.1460  0.3600 -0.0368
 2432EOH      C 9731   1.428   7.515   1.825 -0.0885  0.5629 -0.0444
 2432EOH      C 9732   1.515   7.620   1.752 -0.0606  0.3330 -0.3402
 2432EOH      H 9733   1.249   7.483   1.777  1.2187 -0.1693 -0.4781
 2433EOH      O 9734   4.942   3.685   3.814  0.5292  0.5459 -0.0230
 2433EOH      C 9735   4.942   3.681   3.671  0.5613  0.4820 -0.0214
 2433EOH      C 9736   5.070   3.741   3.609  0.4247  0.8995  0.0973
 2433EOH      H 9737   5.000   3.622   3.854 -0.1070  0.7377  1.2080
 2434EOH      O 9738   1.216   2.296   3.688 -0.4424 -0.2746  0.2715
 2434EOH      C 9739   1.286   2.417   3.661 -0.3194 -0.5032 -0.4436
 2434EOH      C 9740   1.438   2.394   3.651 -0.2184 -0.0703  0.0784
 2434EOH      H 9741   1.130   2.327   3.710  0.3356  1.2588  1.1957
 2435EOH      O 9742   5.683   7.823   4.529  0.4049 -0.2030  0.6145
 2435EOH      C 9743   5.650   7.686   4.508  0.3742 -0.1851  0.5452
 2435EOH      C 9744   5.588   7.624   4.635 -0.5700 -0.2672  0.0508
 2435EOH      H 9745   5.739   7.845   4.457  0.9956  2.5874  1.8529
 2436EOH      O 9746   0.669   0.534   3.286  0.4521  0.1898 -0.1733
 2436EOH      C 9747   0.768   0.571   3.383  0.1212  0.1212  0.1910
 2436EOH      C 9748   0.800   0.720   3.362  0.4477  0.1428  0.8407
 2436EOH      H 9749   0.712   0.477   3.224  3.8294  1.7582  0.6280
 2437EOH      O 9750   1.993   7.039   2.858 -0.3677  0.6208  0.1739
 2437EOH      C 9751   1.865   7.101   2.873 -0.7375 -0.0430 -0.2143
 2437EOH      C 9752   1.854   7.240   2.808  0.2418  0.0919 -0.0890
 2437EOH      H 9753   2.058   7.092   2.901 -0.9515  0.8661  0.7654
 2438EOH      O 9754   7.393   0.498   3.028 -0.4151  0.6276 -0.1799
 2438EOH      C 9755   7.285   0.404   3.033  0.4151 -0.3423 -0.2798
 2438EOH      C 9756   7.157   0.479   2.992  0.1041 -0.4271  0.5300
 2438EOH      H 9757   7.455   0.467   3.092 -1.2377 -1.0180 -0.1358
 2439EOH      O 9758   1.785   6.526   3.332  0.4819 -0.8552 -0.1236
 2439EOH      C 9759   1.739   6.393   3.356 -0.3859 -0.5503 -0.0598
 2439EOH      C 9760   1.842   6.298   3.419 -0.1382 -0.1775  0.0974
 2439EOH      H 9761   1.756   6.548   3.245 -0.3834 -0.7894  0.1733
 2440EOH      O 9762   7.336   1.569   1.156 -0.2121  0.2059 -0.3387
 2440EOH      C 9763   7.240   1.466   1.134  0.0301 -0.0760 -0.0740
 2440EOH      C 9764   7.177   1.440   1.272 -0.3251  0.0824 -0.2071
 2440EOH      H 9765   7.417   1.526   1.179  0.2807 -0.1726 -2.6401
 2441EOH      O 9766   2.549   4.391   5.870 -0.1800 -0.2776 -0.1343
 2441EOH      C 9767   2.483   4.394   5.743 -0.0115  0.2689 -0.2114
 2441EOH      C 9768   2.330   4.395   5.760  0.0175  0.1458  0.0630
 2441EOH      H 9769   2.547   4.300   5.894  0.8328 -0.1937  0.2720
 2442EOH      O 9770   7.077   6.110   2.766  0.3961 -0.0589  0.5935
 2442EOH      C 9771   7.059   5.975   2.721  0.1196  0.2861 -0.3479
 2442EOH      C 9772   6.946   5.983   2.617  0.1105  0.0905 -0.3533
 2442EOH      H 9773   7.068   6.104   2.860 -0.4502 -0.8041  0.4734
 2443EOH      O 9774   1.541   2.926   5.726  0.5473 -0.0110 -0.4072
 2443EOH      C 9775   1.670   2.876   5.693  0.5182 -0.2775 -0.1145
 2443EOH      C 9776   1.698   2.749   5.776  0.0552 -0.1748  0.1956
 2443EOH      H 9777   1.495   2.863   5.779 -0.0694 -0.0474 -0.9729
 2444EOH      O 9778   0.632   3.593   1.932 -0.4961 -0.0356 -0.0103
 2444EOH      C 9779   0.584   3.692   1.840  0.0514  0.0977 -0.1549
 2444EOH      C 9780   0.676   3.816   1.849 -0.2862  0.3479 -0.1411
 2444EOH      H 9781   0.561   3.531   1.942 -0.0232 -0.7634 -1.0878
 2445EOH      O 9782   0.971   3.732   2.942 -0.2840  0.0532 -0.3392
 2445EOH      C 9783   0.935   3.841   3.027  0.1933  0.1725 -0.2907
 2445EOH      C 9784   0.790   3.838   3.080  0.2910 -0.0027 -0.0333
 2445EOH      H 9785   1.058   3.739   2.908  0.4315  0.1027  1.4566
 2446EOH      O 9786   0.148   3.171   4.369  0.0360 -0.3380  0.7115
 2446EOH      C 9787   0.258   3.085   4.336  0.0557  0.0084 -0.1297
 2446EOH      C 9788   0.280   3.067   4.185 -1.0044  0.3639 -0.3345
 2446EOH      H 9789   0.074   3.133   4.324  0.2527 -1.8783  1.6060
 2447EOH      O 9790   5.224   4.181   4.266 -0.6193  0.0690  0.1718
 2447EOH      C 9791   5.268   4.053   4.221 -0.3072  0.2657 -0.0858
 2447EOH      C 9792   5.283   4.056   4.068 -1.0979 -0.2635 -0.1767
 2447EOH      H 9793   5.198   4.181   4.357 -1.6604  2.6543 -0.0574
 2448EOH      O 9794   3.499   5.666   0.207  0.2070 -1.1903 -0.4139
 2448EOH      C 9795   3.606   5.722   0.130 -0.1965 -0.0507 -0.1606
 2448EOH      C 9796   3.535   5.829   0.045  0.1292  0.4879  0.2471
 2448EOH      H 9797   3.536   5.629   0.285  1.7488 -2.8633 -1.8755
 2449EOH      O 9798   3.266   1.679   6.177 -0.2595 -0.0290  0.8413
 2449EOH      C 9799   3.260   1.821   6.193  0.3532  0.0637  0.2699
 2449EOH      C 9800   3.118   1.864   6.233  0.3395  0.2003  0.0772
 2449EOH      H 9801   3.354   1.653   6.153 -0.8727  0.7702 -2.4722
 2450EOH      O 9802   1.616   2.668   0.758  0.1276 -0.9949  0.1462
 2450EOH      C 9803   1.697   2.638   0.872 -0.0148 -0.5146  0.3714
 2450EOH      C 9804   1.595   2.624   0.986 -0.7597  0.6236 -0.1422
 2450EOH      H 9805   1.580   2.755   0.753  0.3952 -0.8951 -0.0314
 2451EOH      O 9806   0.958   7.228   3.853 -0.5500 -0.1367 -0.0936
 2451EOH      C 9807   0.967   7.233   3.995  0.1589 -0.3224 -0.1286
 2451EOH      C 9808   1.094   7.308   4.038 -0.1936  0.2369 -0.0487
 2451EOH      H 9809   0.874   7.188   3.836 -1.3234  1.3074  0.2709
 2452EOH      O 9810   2.285   0.889   2.284 -0.0611  0.2201 -0.5174
 2452EOH      C 9811   2.251   0.947   2.410  0.2711  0.0921 -0.3681
 2452EOH      C 9812   2.188   1.087   2.391 -0.0889 -0.0505 -0.2225
 2452EOH      H 9813   2.350   0.949   2.251 -0.4136  0.1583 -1.3588
 2453EOH      O 9814   4.563   2.080   5.006  0.1130 -0.2856 -0.3266
 2453EOH      C 9815   4.691   2.137   5.035  0.0819 -0.5168  0.2719
 2453EOH      C 9816   4.769   2.137   4.902 -0.3271  0.3181  0.0242
 2453EOH      H 9817   4.517   2.074   5.088 -1.0992 -1.5095 -1.0875
 2454EOH      O 9818   1.984   1.952   6.945  0.0328  0.5179 -0.3497
 2454EOH      C 9819   2.120   1.989   6.965  0.0482 -0.0568  0.6522
 2454EOH      C 9820   2.208   1.868   6.927 -0.3457 -0.1151 -0.0756
 2454EOH      H 9821   1.972   1.871   6.992  1.8429  0.4671  0.0422
 2455EOH      O 9822   0.317   0.593   0.291 -0.5299  0.0944  0.1321
 2455EOH      C 9823   0.218   0.640   0.199 -0.0471  0.7837 -0.0427
 2455EOH      C 9824   0.283   0.668   0.063 -0.1164 -0.3510 -0.3103
 2455EOH      H 9825   0.391   0.562   0.240  1.9155  1.2279  2.8503
 2456EOH      O 9826   5.616   2.437   3.893  0.4547  0.0813 -0.4455
 2456EOH      C 9827   5.697   2.554   3.910 -0.4038  0.5981  0.1127
 2456EOH      C 9828   5.763   2.592   3.776  0.4865 -0.8888  0.1086
 2456EOH      H 9829   5.658   2.367   3.845  2.0034  0.5527  0.1911
 2457EOH      O 9830   0.384   4.824   1.671 -0.3307 -0.7170 -0.3614
 2457EOH      C 9831   0.272   4.778   1.745  0.0254 -0.3831  0.3943
 2457EOH      C 9832   0.150   4.865   1.710  0.4606  0.1546  0.2217
 2457EOH      H 9833   0.464   4.793   1.711  0.7349  0.9131 -1.1039
 2458EOH      O 9834   2.333   4.178   6.683  0.3220  0.5337 -0.2138
 2458EOH      C 9835   2.368   4.092   6.792  0.3238  0.2698 -0.4199
 2458EOH      C 9836   2.449   3.971   6.743  0.9103  0.3789  0.2709
 2458EOH      H 9837   2.242   4.202   6.687  0.6038  1.6146 -0.3150
 2459EOH      O 9838   0.413   2.256   3.806 -0.1737  0.3236 -0.3948
 2459EOH      C 9839   0.491   2.248   3.925 -0.8950  0.1617  0.0698
 2459EOH      C 9840   0.456   2.353   4.033 -0.5574  0.6579 -0.2996
 2459EOH      H 9841   0.425   2.339   3.762  0.1244 -0.0981 -1.1259
 2460EOH      O 9842   2.596   7.434   0.725  0.6139 -0.3202  0.2691
 2460EOH      C 9843   2.496   7.380   0.639  0.2234 -0.0449  0.5481
 2460EOH      C 9844   2.383   7.480   0.606  0.1491 -0.4518 -0.4598
 2460EOH      H 9845   2.677   7.385   0.718 -0.1385 -1.3305 -1.5981
 2461EOH      O 9846   4.666   5.912   4.103  0.0834  0.4606  0.2162
 2461EOH      C 9847   4.568   5.970   4.017  0.5744  0.4884 -0.3263
 2461EOH      C 9848   4.515   6.082   4.108 -0.3840 -0.0338 -0.2313
 2461EOH      H 9849   4.704   5.839   4.057  1.5839  0.7973  0.8743
 2462EOH      O 9850   7.575   1.464   1.256  0.0002 -0.0477  0.1946
 2462EOH      C 9851   7.704   1.522   1.240 -0.1646  0.1772 -0.3312
 2462EOH      C 9852   7.720   1.573   1.095  0.8693  0.6038 -0.0729
 2462EOH      H 9853   7.579   1.371   1.240 -0.3688 -0.0370  0.0273
 2463EOH      O 9854   4.184   5.262   3.911  0.1251  0.1095  0.5662
 2463EOH      C 9855   4.140   5.324   4.033  0.3616  0.1273  0.6419
 2463EOH      C 9856   4.052   5.448   4.008 -0.1211 -0.3037  0.1666
 2463EOH      H 9857   4.250   5.199   3.935 -1.0789 -1.1671  0.5987
 2464EOH      O 9858   3.085   4.103   7.688 -0.5944 -0.5179 -0.0018
 2464EOH      C 9859   3.015   4.051   7.575 -0.2383 -0.5226 -0.2221
 2464EOH      C 9860   2.880   4.118   7.541 -0.4515 -0.6967  0.2789
 2464EOH      H 9861   3.022   4.102   7.759  0.1474 -0.0015  0.6696
 2465EOH      O 9862   3.963   5.179   7.567 -0.4556  0.0312 -0.9271
 2465EOH      C 9863   4.074   5.261   7.531 -0.3077  0.1871 -0.1122
 2465EOH      C 9864   4.100   5.252   7.380 -0.2195 -0.0197 -0.0846
 2465EOH      H 9865   3.960   5.195   7.660  1.4220  0.0466 -0.8543
 2466EOH      O 9866   7.714   1.394   4.045  0.2602 -0.2176 -0.4501
 2466EOH      C 9867   7.726   1.491   3.942  0.3592 -0.1254 -0.3526
 2466EOH      C 9868   7.866   1.555   3.943  0.2981  0.0147 -0.5762
 2466EOH      H 9869   7.635   1.346   4.023 -0.8442  0.6252  1.4335
 2467EOH      O 9870   1.716   3.523   1.363 -0.1813 -0.5519 -0.1661
 2467EOH      C 9871   1.591   3.532   1.432  0.0491 -0.0101  0.1930
 2467EOH      C 9872   1.488   3.521   1.318  0.4426  0.2302 -0.1888
 2467EOH      H 9873   1.777   3.550   1.431  0.3017 -0.1712 -0.7464
 2468EOH      O 9874   1.826   4.994   5.592 -0.2065 -0.3000  0.4013
 2468EOH      C 9875   1.900   4.915   5.685  0.2262 -0.3213  0.0412
 2468EOH      C 9876   1.821   4.895   5.816 -0.1027  0.3013 -0.0632
 2468EOH      H 9877   1.817   5.084   5.620 -3.3898 -0.7665  1.1223
 2469EOH      O 9878   2.501   3.759   2.231  0.2120  0.3288  0.0465
 2469EOH      C 9879   2.516   3.691   2.355 -0.0606  0.4054  0.1226
 2469EOH      C 9880   2.530   3.791   2.472  1.2210  0.1597  0.1926
 2469EOH      H 9881   2.504   3.698   2.158 -1.6937  0.3198 -0.0447
 2470EOH      O 9882   1.835   0.828   4.216 -0.0989  0.1470  0.0375
 2470EOH      C 9883   1.804   0.764   4.340  0.1363 -0.3608 -0.1648
 2470EOH      C 9884   1.934   0.801   4.414  0.2878 -0.1536 -0.5327
 2470EOH      H 9885   1.857   0.918   4.236  2.1581 -0.5007  0.6039
 2471EOH      O 9886   4.570   4.798   4.634  0.1541  0.3910  0.8085
 2471EOH      C 9887   4.632   4.671   4.611 -0.2312  0.3111  0.1898
 2471EOH      C 9888   4.731   4.627   4.720 -0.5040 -0.6032  0.0690
 2471EOH      H 9889   4.485   4.798   4.592  0.7399  3.2510 -0.4478
 2472EOH      O 9890   2.417   7.867   3.398 -0.1615  0.1164 -0.1099
 2472EOH      C 9891   2.378   7.967   3.303  0.4048 -0.3867 -0.8766
 2472EOH      C 9892   2.512   8.031   3.261  0.3172  0.7727  0.5660
 2472EOH      H 9893   2.336   7.820   3.402  0.7334 -1.6091 -1.5395
 2473EOH      O 9894   3.809   2.744   6.687 -0.2262  0.1036  0.1937
 2473EOH      C 9895   3.866   2.818   6.579 -0.1875 -0.2694 -0.0423
 2473EOH      C 9896   4.016   2.793   6.555 -0.0564  0.2383  0.2447
 2473EOH      H 9897   3.849   2.658   6.683  3.6614  1.8391 -0.3045
 2474EOH      O 9898   2.457   4.811   2.534 -0.6745  0.2327  0.0225
 2474EOH      C 9899   2.489   4.944   2.575 -0.8295  0.3143 -0.1207
 2474EOH      C 9900   2.534   5.008   2.442  0.2703  0.0191  0.1053
 2474EOH      H 9901   2.540   4.784   2.498  0.1154  1.7439  0.6580
 2475EOH      O 9902   3.028   2.651   7.673 -0.2158 -0.4249  0.3495
 2475EOH      C 9903   2.952   2.596   7.780 -0.0639 -0.1357  0.6070
 2475EOH      C 9904   3.018   2.624   7.917 -0.2800 -0.1104  0.7050
 2475EOH      H 9905   2.964   2.641   7.604  0.5989  0.3619 -0.5348
 2476EOH      O 9906   2.329   0.285   4.858 -0.1426 -0.2081 -0.1274
 2476EOH      C 9907   2.298   0.147   4.881 -0.1969 -0.0441  0.7945
 2476EOH      C 9908   2.146   0.131   4.862 -0.0222  0.0303 -0.7095
 2476EOH      H 9909   2.422   0.290   4.848  0.0598 -0.5352  1.5198
 2477EOH      O 9910   2.602   0.268   0.643  0.0800 -0.4354 -0.1418
 2477EOH      C 9911   2.518   0.153   0.658 -0.5550  0.0201 -0.1745
 2477EOH      C 9912   2.519   0.075   0.526 -0.0706 -0.7963  0.3033
 2477EOH      H 9913   2.690   0.248   0.614  0.5856  1.3355  0.0943
 2478EOH      O 9914   2.468   6.087   7.110  0.2281  0.0955  0.3278
 2478EOH      C 9915   2.477   6.147   6.980 -0.3125 -0.5028  0.0087
 2478EOH      C 9916   2.367   6.250   6.950  0.2361 -0.2201 -1.0590
 2478EOH      H 9917   2.455   5.995   7.094 -1.1569  0.7596 -2.9764
 2479EOH      O 9918   3.781   4.089   7.450  0.4530 -0.1655 -0.0545
 2479EOH      C 9919   3.759   3.956   7.498 -0.3456 -0.2036 -0.5107
 2479EOH      C 9920   3.662   3.965   7.617 -0.2534  0.0890 -0.4590
 2479EOH      H 9921   3.735   4.102   7.368  1.4826  0.4257 -0.5490
 2480EOH      O 9922   1.081   1.778   6.981  0.0780  0.1204 -0.2174
 2480EOH      C 9923   1.132   1.795   7.114  0.1404 -0.1065 -0.2128
 2480EOH      C 9924   1.134   1.948   7.137  0.4542 -0.1099 -0.2182
 2480EOH      H 9925   1.136   1.709   6.948  0.8667  0.2520  0.7842
 2481EOH      O 9926   3.079   3.085   2.280 -0.1861 -0.0428  0.2709
 2481EOH      C 9927   3.131   2.952   2.272 -0.5970 -0.1716 -0.3388
 2481EOH      C 9928   3.018   2.850   2.251 -0.4324 -0.3531 -0.3470
 2481EOH      H 9929   3.147   3.134   2.324  0.7943 -2.5152  1.6114
 2482EOH      O 9930   2.582   3.151   7.122 -0.1668 -0.4451 -0.1798
 2482EOH      C 9931   2.477   3.231   7.066  0.0487 -0.0381 -0.0069
 2482EOH      C 9932   2.487   3.257   6.914 -0.1948 -0.2308 -0.0558
 2482EOH      H 9933   2.561   3.145   7.214  0.6420  0.5643  0.0763
 2483EOH      O 9934   4.823   6.611   4.872 -0.1512 -0.1103  0.2990
 2483EOH      C 9935   4.884   6.483   4.889  0.0436 -0.0516  0.0481
 2483EOH      C 9936   4.938   6.448   4.749  0.2261  0.2449  0.0457
 2483EOH      H 9937   4.731   6.597   4.889  0.0148  0.8116  2.0887
 2484EOH      O 9938   1.530   1.606   5.488 -0.1853  0.0978 -0.0534
 2484EOH      C 9939   1.559   1.660   5.359 -0.5159 -0.1024 -0.2143
 2484EOH      C 9940   1.610   1.538   5.280  0.8253  0.2009  0.1605
 2484EOH      H 9941   1.455   1.548   5.480 -1.6867  1.9888 -0.2183
 2485EOH      O 9942   2.203   7.715   7.898 -0.3324 -0.0723  0.5239
 2485EOH      C 9943   2.346   7.718   7.906 -0.2890 -0.4934  0.0203
 2485EOH      C 9944   2.406   7.577   7.920  0.4730 -0.1558  0.1938
 2485EOH      H 9945   2.184   7.774   7.826  2.7528  0.9152  0.4652
 2486EOH      O 9946   1.115   0.386   1.741 -0.1771  0.8898 -0.5363
 2486EOH      C 9947   1.010   0.418   1.833 -0.0354 -0.0357 -0.0449
 2486EOH      C 9948   1.057   0.378   1.974 -0.0621  0.2798  0.0543
 2486EOH      H 9949   1.148   0.464   1.700 -1.8018  1.4413 -0.8539
 2487EOH      O 9950   3.655   4.298   7.809  0.0476 -0.0851  0.1505
 2487EOH      C 9951   3.751   4.311   7.914  0.2451  0.1320 -0.0565
 2487EOH      C 9952   3.829   4.181   7.940 -0.1666  0.0188  0.6352
 2487EOH      H 9953   3.689   4.314   7.722 -1.2317  0.3607 -0.2911
 2488EOH      O 9954   2.793   1.769   6.338  0.1097 -0.2484 -0.2971
 2488EOH      C 9955   2.680   1.707   6.401  0.4278 -0.3010  0.2211
 2488EOH      C 9956   2.562   1.697   6.303  0.5253 -0.1753  0.0905
 2488EOH      H 9957   2.824   1.716   6.266  0.7101 -0.2787 -0.0127
 2489EOH      O 9958   0.695   5.861   0.609  0.6346  0.5494  0.2342
 2489EOH      C 9959   0.666   5.837   0.471  0.4789  0.2088  0.3266
 2489EOH      C 9960   0.523   5.892   0.454  0.5508  0.3064  0.0294
 2489EOH      H 9961   0.688   5.953   0.630 -0.9681  0.0716  1.9696
 2490EOH      O 9962   1.163   2.442   3.104  0.0164  0.1120  0.4859
 2490EOH      C 9963   1.287   2.385   3.148  0.0440 -0.5730 -0.4587
 2490EOH      C 9964   1.393   2.496   3.135 -0.6561  0.1087 -0.3420
 2490EOH      H 9965   1.157   2.533   3.126 -0.5048  0.4046 -0.8397
 2491EOH      O 9966   2.045   7.522   0.064  0.9371  0.3152 -0.2035
 2491EOH      C 9967   2.088   7.488   0.196  0.5689 -0.0477 -0.1746
 2491EOH      C 9968   2.036   7.346   0.228  0.2385 -0.0014 -0.5089
 2491EOH      H 9969   2.098   7.596   0.041 -1.3375  2.5377  1.3759
 2492EOH      O 9970   2.987   5.576   1.556 -0.0917 -0.2112  0.0698
 2492EOH      C 9971   2.931   5.598   1.427  0.1740  0.0506 -0.0014
 2492EOH      C 9972   2.982   5.728   1.362 -0.2008  0.5207  0.6375
 2492EOH      H 9973   2.949   5.628   1.625 -1.7472 -4.0742  2.2524
 2493EOH      O 9974   1.820   1.889   6.747  0.0440 -0.0685 -0.0832
 2493EOH      C 9975   1.918   1.815   6.674  0.2787  0.4642 -0.3084
 2493EOH      C 9976   1.856   1.798   6.534 -0.3830  0.1499  0.0210
 2493EOH      H 9977   1.866   1.917   6.824 -2.1014  0.3856  1.0728
 2494EOH      O 9978   2.455   6.204   1.144  0.5077 -0.0617  0.4205
 2494EOH      C 9979   2.455   6.069   1.190 -0.0843 -0.1441  0.1877
 2494EOH      C 9980   2.405   6.055   1.335 -0.2297 -0.4060  0.1124
 2494EOH      H 9981   2.490   6.205   1.056  1.5600 -2.3508  0.8013
 2495EOH      O 9982   1.453   1.012   1.929 -0.0431  0.4854 -0.2171
 2495EOH      C 9983   1.427   0.944   2.053  0.3432 -0.2827 -0.5586
 2495EOH      C 9984   1.544   0.978   2.147  0.0986 -1.0147  0.0142
 2495EOH      H 9985   1.491   0.948   1.871 -0.0529 -0.5251  0.8524
 2496EOH      O 9986   3.505   2.606   5.632  0.1637  0.1279  0.5896
 2496EOH      C 9987   3.405   2.703   5.659  0.0948  0.2292 -0.0134
 2496EOH      C 9988   3.289   2.683   5.560 -0.0886  0.7501  0.0913
 2496EOH      H 9989   3.568   2.620   5.701 -0.7577  1.5608  1.1500
 2497EOH      O 9990   4.171   4.665   4.802 -0.0597  0.6554 -0.5038
 2497EOH      C 9991   4.282   4.695   4.886 -0.3851  0.1890  0.0937
 2497EOH      C 9992   4.297   4.603   5.008 -0.3114 -0.3210 -0.2998
 2497EOH      H 9993   4.202   4.654   4.713 -0.9068 -0.2551 -0.6977
 2498EOH      O 9994   3.110   0.077   1.015 -0.1232  0.1402  0.3183
 2498EOH      C 9995   3.184  -0.030   1.074  0.6173  0.6213  0.2706
 2498EOH      C 9996   3.199  -0.151   0.980  0.4777  0.4566  0.4583
 2498EOH      H 9997   3.132   0.157   1.061 -0.9205 -0.0249  0.9874
 2499EOH      O 9998   0.738   5.224   2.815  0.3182  0.4819 -0.2342
 2499EOH      C 9999   0.849   5.139   2.848  0.0799  0.3185  0.1507
 2499EOH      C10000   0.844   5.021   2.749  0.3382  0.0949  0.4027
 2499EOH      H10001   0.743   5.235   2.722  1.5124  0.3034 -0.2081
 2500EOH      O10002   2.238   4.341   1.620 -0.0987  0.0803 -0.3181
 2500EOH      C10003   2.151   4.340   1.733 -0.3594 -0.6684 -0.5223
 2500EOH      C10004   2.011   4.395   1.701  0.0269  0.5440 -0.1606
 2500EOH      H10005   2.293   4.417   1.635 -1.7446  0.8438  2.1285
 2501EOH      O10006   5.211   4.378   5.930 -0.1112 -0.0718  0.3454
 2501EOH      C10007   5.302   4.317   6.022 -0.1583 -0.0530  0.4044
 2501EOH      C10008   5.228   4.225   6.120 -0.1664 -0.5162 -0.0308
 2501EOH      H10009   5.156   4.434   5.983  1.3417  1.0282  0.7300
 2502EOH      O10010   4.936   4.920   4.858 -0.0966  0.4379  0.4623
 2502EOH      C10011   5.035   4.896   4.757 -0.4632 -0.7457  0.3687
 2502EOH      C10012   5.152   4.813   4.813 -0.4233 -0.5801  0.5345
 2502EOH      H10013   4.863   4.963   4.816  0.1028  0.7331  0.4172
 2503EOH      O10014   3.307   4.734   3.189  0.6048 -0.1457 -0.1772
 2503EOH      C10015   3.221   4.776   3.083 -0.1954 -0.1834  0.4543
 2503EOH      C10016   3.172   4.659   2.996  0.8192 -0.0899 -0.2560
 2503EOH      H10017   3.328   4.817   3.228 -2.5284  0.4680  0.2992
 2504EOH      O10018   2.461   1.463   0.538  0.2685 -0.8128 -0.0583
 2504EOH      C10019   2.590   1.450   0.479  0.2371 -0.1749 -0.2709
 2504EOH      C10020   2.692   1.536   0.556 -0.1844 -0.0043  0.0968
 2504EOH      H10021   2.395   1.426   0.481 -0.3504  0.2868 -0.0730
 2505EOH      O10022   4.157   3.677   4.602 -0.3083  0.0575 -0.2772
 2505EOH      C10023   4.217   3.802   4.564 -0.2003  0.0907  0.0006
 2505EOH      C10024   4.136   3.920   4.622 -0.0919  0.3839 -0.4464
 2505EOH      H10025   4.149   3.674   4.696 -0.0483 -1.4056 -0.3011
 2506EOH      O10026   1.289   3.776   7.019 -0.3913  0.1913 -0.6765
 2506EOH      C10027   1.166   3.714   7.057  0.0261 -0.3692 -0.2359
 2506EOH      C10028   1.113   3.610   6.957 -0.2870 -0.1461 -0.2996
 2506EOH      H10029   1.317   3.831   7.090  2.9091 -0.5246 -1.3121
 2507EOH      O10030   0.220   1.540   2.596 -0.2449  0.0908  0.3966
 2507EOH      C10031   0.327   1.535   2.691 -0.0618 -0.2709  0.1714
 2507EOH      C10032   0.390   1.673   2.719 -0.2002 -0.0233 -0.7150
 2507EOH      H10033   0.203   1.452   2.568  1.2015  0.2604 -1.0748
 2508EOH      O10034   2.901   6.990   7.063  0.0926 -0.3513 -0.1433
 2508EOH      C10035   2.998   6.887   7.080 -0.0101 -0.3599  0.4078
 2508EOH      C10036   3.135   6.952   7.108  0.2581 -0.6209 -0.2908
 2508EOH      H10037   2.940   7.067   7.026 -2.3554  0.3666 -1.3535
 2509EOH      O10038   2.544   4.162   5.969 -0.4092  0.5448 -0.0210
 2509EOH      C10039   2.562   4.133   6.108  0.2838 -0.3499 -0.2911
 2509EOH      C10040   2.714   4.145   6.132  0.1804  0.2096  0.0926
 2509EOH      H10041   2.617   4.122   5.924 -0.4165 -1.3841  1.5833
 2510EOH      O10042   2.938   1.004   1.592 -0.1329 -0.0360 -0.1735
 2510EOH      C10043   2.892   1.124   1.654  0.1704  0.0038 -0.0195
 2510EOH      C10044   2.993   1.194   1.747  0.2032 -0.1791  0.0833
 2510EOH      H10045   2.977   1.025   1.508  1.6809 -0.3349  0.5722
 2511EOH      O10046   4.812   4.352   4.068  0.3883 -0.2340  0.3052
 2511EOH      C10047   4.755   4.252   4.153  0.1351 -0.3291  0.0267
 2511EOH      C10048   4.780   4.276   4.303  0.2192 -0.0185 -0.0377
 2511EOH      H10049   4.901   4.368   4.094  0.9043  0.3117 -1.7135
 2512EOH      O10050   7.284   7.738   2.951 -0.0248  0.1270  0.1201
 2512EOH      C10051   7.393   7.704   3.037 -0.3023 -0.3358  0.2939
 2512EOH      C10052   7.517   7.684   2.946 -0.4389  0.1860 -0.0089
 2512EOH      H10053   7.209   7.758   3.005  1.4568 -1.2192  2.7909
 2513EOH      O10054   0.615   2.414   1.641  0.1733  0.4571  0.2518
 2513EOH      C10055   0.561   2.546   1.647  0.3165  0.5407 -0.3237
 2513EOH      C10056   0.551   2.607   1.788  0.2586  0.5161 -0.3175
 2513EOH      H10057   0.618   2.395   1.549  1.4462  1.9289 -0.0279
 2514EOH      O10058   1.959   1.937   3.778  0.0236  0.2755  0.3228
 2514EOH      C10059   2.031   1.889   3.664 -0.1090  0.0690  0.3251
 2514EOH      C10060   2.058   1.739   3.682 -0.6106 -0.0287  0.2799
 2514EOH      H10061   1.869   1.914   3.760  0.4306 -0.4866 -0.8276
 2515EOH      O10062   1.646   4.443   3.758 -0.1601 -0.0819 -0.1917
 2515EOH      C10063   1.589   4.373   3.869  0.2667 -0.1598 -0.0216
 2515EOH      C10064   1.663   4.396   4.002  0.4199 -0.3195 -0.0792
 2515EOH      H10065   1.709   4.394   3.708 -0.9258 -0.1510 -1.1221
 2516EOH      O10066   2.636   3.110   6.007  0.5630  0.2299 -0.1186
 2516EOH      C10067   2.549   3.067   5.902  0.2825 -0.0401  0.2206
 2516EOH      C10068   2.531   3.184   5.804 -0.0939 -0.3524 -0.0866
 2516EOH      H10069   2.585   3.132   6.084 -0.6737 -0.9162 -0.5744
 2517EOH      O10070   1.456   3.065   0.922  0.5405  0.5625  0.0294
 2517EOH      C10071   1.483   3.100   1.058 -0.1829  0.4395  0.2086
 2517EOH      C10072   1.560   2.983   1.121  0.0636  0.3993 -0.1620
 2517EOH      H10073   1.422   3.142   0.878  0.4492  0.6485  0.2471
 2518EOH      O10074   3.377   6.298   0.443  0.0995  0.5470  0.3101
 2518EOH      C10075   3.516   6.323   0.464  0.1877  0.3020  0.0116
 2518EOH      C10076   3.545   6.473   0.444 -0.5013  0.4360  0.0086
 2518EOH      H10077   3.374   6.205   0.423 -3.1844  0.4832  0.8390
 2519EOH      O10078   5.521   3.452   4.910  0.2985  0.1872 -0.1116
 2519EOH      C10079   5.409   3.364   4.899  0.0960  0.4085  0.1875
 2519EOH      C10080   5.287   3.400   4.986 -0.1985  0.3421 -0.1934
 2519EOH      H10081   5.486   3.532   4.876 -1.1826  0.3520  1.7314
 2520EOH      O10082   2.953   3.186   7.033  0.0688  0.3878  0.1941
 2520EOH      C10083   3.022   3.086   7.108  0.2606  0.3319 -0.0551
 2520EOH      C10084   3.090   2.987   7.012 -0.5816  0.1539 -0.4698
 2520EOH      H10085   2.874   3.142   7.003  0.3174 -0.2845  0.5123
 2521EOH      O10086   1.179   2.190   5.418  0.1019  0.1671  0.1319
 2521EOH      C10087   1.182   2.069   5.342  0.1118  0.1251  0.1992
 2521EOH      C10088   1.275   1.968   5.410  0.2308  0.3378  0.3523
 2521EOH      H10089   1.136   2.173   5.501  0.4483  1.0662  0.5082
 2522EOH      O10090   1.463   2.273   0.659  0.1115  0.4083  0.3454
 2522EOH      C10091   1.563   2.194   0.723 -0.1484  0.1075  0.3854
 2522EOH      C10092   1.515   2.156   0.864  0.6049  0.0170  0.6235
 2522EOH      H10093   1.500   2.357   0.638  1.9112 -0.7428 -1.3279
 2523EOH      O10094   1.728   1.185   0.973 -0.4470  0.4218  0.5568
 2523EOH      C10095   1.818   1.088   1.027  0.0090  0.7107  0.3237
 2523EOH      C10096   1.796   1.060   1.177 -0.4681 -0.1673  0.0952
 2523EOH      H10097   1.741   1.179   0.879  2.1189 -1.7567  0.9856
 2524EOH      O10098   1.227   3.257   0.615 -0.5171 -0.0083  0.7445
 2524EOH      C10099   1.115   3.175   0.647 -0.1945 -0.5803  0.4247
 2524EOH      C10100   1.134   3.092   0.775  0.6627 -0.5171  0.3440
 2524EOH      H10101   1.233   3.275   0.522  0.4798 -2.2492  0.3403
 2525EOH      O10102   1.640   2.471   6.414  0.0488  0.1481 -0.3270
 2525EOH      C10103   1.512   2.473   6.478  0.0971  0.3468 -0.2378
 2525EOH      C10104   1.497   2.388   6.606  0.8407  0.0729 -0.3289
 2525EOH      H10105   1.696   2.406   6.454  1.3395  2.2505  1.4201
 2526EOH      O10106   5.107   6.116   3.704 -0.9267  0.1163 -0.3129
 2526EOH      C10107   5.221   6.150   3.624 -0.0748 -0.3646  0.6846
 2526EOH      C10108   5.308   6.028   3.592 -0.2624 -0.3481  0.1076
 2526EOH      H10109   5.127   6.153   3.789 -0.3352 -1.1305  0.0910
 2527EOH      O10110   4.390   0.139   4.499 -0.2094 -0.4920  0.1503
 2527EOH      C10111   4.343   0.009   4.536 -0.2180 -0.4146  0.4094
 2527EOH      C10112   4.459  -0.091   4.539  0.1560  0.0089 -0.0723
 2527EOH      H10113   4.312   0.191   4.513 -0.9155 -1.7752  1.1482
 2528EOH      O10114   7.788   1.179   6.910 -0.4163  0.1248  0.1371
 2528EOH      C10115   7.665   1.237   6.953 -0.5829 -0.1210 -0.0146
 2528EOH      C10116   7.615   1.309   6.826 -0.2337 -0.0636 -0.1194
 2528EOH      H10117   7.826   1.149   6.992 -1.0772 -1.6298 -0.1874
 2529EOH      O10118   2.801   7.755   4.063 -0.0885 -0.2540 -0.5067
 2529EOH      C10119   2.847   7.689   4.182 -0.0742  0.8754  0.1166
 2529EOH      C10120   2.998   7.661   4.185 -0.2782 -0.1991  0.6058
 2529EOH      H10121   2.707   7.766   4.065  0.0605  0.9232  0.6896
 2530EOH      O10122   3.223   6.110   0.977  0.3767 -0.0014 -0.1635
 2530EOH      C10123   3.288   6.029   0.878 -0.3628 -0.0996 -0.5702
 2530EOH      C10124   3.439   6.060   0.880 -0.4803  0.4679  0.5487
 2530EOH      H10125   3.237   6.056   1.053  0.0400 -0.4359 -0.4087
 2531EOH      O10126   1.926   2.484   2.896 -0.0654 -0.1610  0.0715
 2531EOH      C10127   1.940   2.516   2.757 -0.0001  0.4955  0.2286
 2531EOH      C10128   2.068   2.601   2.744  0.3074 -0.0421 -0.2695
 2531EOH      H10129   2.010   2.446   2.918  0.6164  0.8098 -0.8367
 2532EOH      O10130   2.795   7.157   0.943  0.5533 -0.3089 -0.4277
 2532EOH      C10131   2.698   7.212   1.032  0.8671 -0.4779  0.0198
 2532EOH      C10132   2.674   7.124   1.156 -0.5422 -0.2815 -0.1122
 2532EOH      H10133   2.747   7.100   0.885 -1.4453 -1.9394  2.6489
 2533EOH      O10134   0.926   0.992   6.932 -0.3247 -0.5723  0.2464
 2533EOH      C10135   0.894   1.010   7.070  1.0739 -0.4939  0.5676
 2533EOH      C10136   0.959   1.142   7.115 -1.0252  0.7885 -0.1015
 2533EOH      H10137   0.858   0.932   6.905  0.0313 -0.8670  0.0009
 2534EOH      O10138   3.200   0.274   7.339 -0.3310 -0.4682 -0.2954
 2534EOH      C10139   3.292   0.306   7.234  0.2786 -0.1428  0.3399
 2534EOH      C10140   3.418   0.217   7.232  0.1895 -0.2547 -0.1874
 2534EOH      H10141   3.198   0.339   7.407 -0.4872 -0.1062 -0.6429
 2535EOH      O10142   1.501   4.222   5.599 -0.2093 -0.6444  0.6915
 2535EOH      C10143   1.466   4.359   5.578 -0.1400 -0.6355  0.6319
 2535EOH      C10144   1.319   4.388   5.613 -0.2215  0.2446 -0.4121
 2535EOH      H10145   1.593   4.210   5.581 -0.1612  0.8832 -0.1961
 2536EOH      O10146   0.925   1.194   4.999  0.6178  0.4544 -0.0103
 2536EOH      C10147   0.953   1.209   4.860  0.0727  0.8753 -0.0748
 2536EOH      C10148   0.821   1.219   4.780 -0.1460  0.4220  0.2237
 2536EOH      H10149   0.894   1.278   5.030 -1.4512 -0.8692  1.6127
 2537EOH      O10150   2.099   7.309   4.484  0.3503  0.1561  0.0463
 2537EOH      C10151   2.039   7.271   4.608  0.0928  0.3870 -0.0088
 2537EOH      C10152   2.148   7.189   4.679 -0.3899  0.1182  0.4254
 2537EOH      H10153   2.038   7.286   4.415  0.6631  0.2652 -0.2675
 2538EOH      O10154   2.888   1.600   6.161 -0.7026 -0.1347  0.1452
 2538EOH      C10155   2.882   1.576   6.020  0.2823 -0.1904  0.1044
 2538EOH      C10156   2.766   1.476   6.001  0.0555  0.0661  0.1243
 2538EOH      H10157   2.969   1.560   6.189 -0.4116  0.3410 -0.0008
 2539EOH      O10158   3.895   0.306   3.946  0.0506  0.1586  0.5969
 2539EOH      C10159   3.994   0.386   3.881  0.4246 -0.5197  0.3278
 2539EOH      C10160   4.107   0.423   3.980  0.0076 -0.2399  0.6982
 2539EOH      H10161   3.856   0.356   4.016 -0.3618  0.1607  0.3713
 2540EOH      O10162   3.745   4.101   7.028 -0.4268 -0.4202  0.0801
 2540EOH      C10163   3.816   3.994   6.964 -0.7013 -0.6283  0.1230
 2540EOH      C10164   3.881   3.900   7.067  0.3052  0.1367  0.2014
 2540EOH      H10165   3.720   4.161   6.959  0.4692 -1.2652 -1.0103
 2541EOH      O10166   3.262   4.859   2.324 -0.4795 -0.1701 -0.3899
 2541EOH      C10167   3.268   4.820   2.187 -0.4408 -0.4830 -0.2993
 2541EOH      C10168   3.222   4.945   2.109 -0.2007 -0.0442  0.2636
 2541EOH      H10169   3.342   4.840   2.371  0.2816  2.6630 -0.4927
 2542EOH      O10170   3.246   3.306   5.612  0.3612 -0.6278 -0.0151
 2542EOH      C10171   3.281   3.296   5.750 -0.1217 -0.0434  0.1540
 2542EOH      C10172   3.288   3.150   5.800  0.0194  0.0532  0.4209
 2542EOH      H10173   3.160   3.269   5.604 -1.1149  2.2110  1.9129
 2543EOH      O10174   3.335   0.686   4.050 -0.3020 -0.1333  0.5999
 2543EOH      C10175   3.235   0.708   3.950 -0.0842 -0.9502  0.1967
 2543EOH      C10176   3.174   0.585   3.881 -0.3368 -0.6609 -0.1031
 2543EOH      H10177   3.292   0.675   4.134 -1.6727  1.7836  0.1738
 2544EOH      O10178   2.087   0.639   3.206  0.1875 -0.2348 -0.4847
 2544EOH      C10179   2.217   0.677   3.159 -0.0272 -0.2338 -1.0937
 2544EOH      C10180   2.307   0.552   3.160  0.1695 -0.0964 -0.0374
 2544EOH      H10181   2.040   0.714   3.239  2.8867  1.1738  0.2909
 2545EOH      O10182   2.111   7.599   2.946  0.3166 -0.1935  0.1764
 2545EOH      C10183   2.233   7.612   2.873  0.0888 -0.1177 -0.1865
 2545EOH      C10184   2.335   7.698   2.950  0.3004 -0.3449 -0.2131
 2545EOH      H10185   2.072   7.684   2.960 -1.0828 -1.0589  1.6931
 2546EOH      O10186   3.328   0.821   4.850  0.5977  0.2088  0.5258
 2546EOH      C10187   3.434   0.781   4.938  0.4257 -0.8258  0.2636
 2546EOH      C10188   3.412   0.832   5.081  0.5704  0.2201 -0.0888
 2546EOH      H10189   3.360   0.854   4.768 -1.3869 -0.4327 -0.5514
 2547EOH      O10190   3.740   4.039   5.275 -0.3483  0.4066  0.0259
 2547EOH      C10191   3.811   4.076   5.394  0.0263  0.7953 -0.3142
 2547EOH      C10192   3.947   4.128   5.344  0.2571 -0.4567 -0.9967
 2547EOH      H10193   3.673   4.101   5.251 -0.1404 -0.0978 -1.9664
 2548EOH      O10194   3.758   3.603   0.348  0.7055 -0.4194 -0.8553
 2548EOH      C10195   3.708   3.679   0.238 -0.5036 -0.0015 -0.0219
 2548EOH      C10196   3.636   3.803   0.293  0.0296  0.5395 -0.5362
 2548EOH      H10197   3.694   3.536   0.366 -0.4474  0.8988  0.0066
 2549EOH      O10198   6.778   7.485   3.926 -0.3517  0.1155 -0.0086
 2549EOH      C10199   6.682   7.580   3.880 -0.0424  0.5070  0.1537
 2549EOH      C10200   6.748   7.719   3.871  0.1890  0.4001  0.1959
 2549EOH      H10201   6.753   7.395   3.910  2.0699 -0.2843 -1.9311
 2550EOH      O10202   3.801   6.508   3.983  0.1347 -0.3184  0.0437
 2550EOH      C10203   3.822   6.615   4.076 -0.0477 -0.5707  0.3752
 2550EOH      C10204   3.886   6.739   4.011 -0.3368 -0.6400 -0.0397
 2550EOH      H10205   3.759   6.442   4.035  1.7289 -1.7904 -0.4926
 2551EOH      O10206   0.240   7.755   4.285  0.0107 -0.8707 -0.0033
 2551EOH      C10207   0.112   7.814   4.313  0.2215 -0.3533 -0.1231
 2551EOH      C10208   0.058   7.906   4.201 -0.1327 -0.4533 -0.0337
 2551EOH      H10209   0.305   7.823   4.277  0.3174 -1.1210  0.3592
 2552EOH      O10210   3.571   0.158   4.199 -0.6772 -0.0939  0.3979
 2552EOH      C10211   3.546   0.299   4.185  0.5846  0.1137  0.1714
 2552EOH      C10212   3.602   0.370   4.310  0.0400  0.4064  0.2510
 2552EOH      H10213   3.620   0.127   4.124  2.7276  0.2742  2.3878
 2553EOH      O10214   4.416   7.088   3.102  0.0176 -0.3164 -0.0219
 2553EOH      C10215   4.394   7.195   3.009  0.3764 -0.5555 -0.3821
 2553EOH      C10216   4.395   7.333   3.077 -0.0610 -0.8078  0.1383
 2553EOH      H10217   4.370   7.012   3.070  1.6503 -0.3498 -2.4178
 2554EOH      O10218   4.645   4.035   3.941 -0.2729  0.5179  0.7027
 2554EOH      C10219   4.656   4.074   3.804 -0.8028 -0.1687  0.4635
 2554EOH      C10220   4.616   4.223   3.797  0.5562  0.1787 -0.0524
 2554EOH      H10221   4.689   3.955   3.962 -2.0335 -0.0429  2.4703
 2555EOH      O10222   2.358   5.962   5.653  0.2358  0.0031  0.4275
 2555EOH      C10223   2.330   6.041   5.770  0.5841 -0.3587  0.7557
 2555EOH      C10224   2.177   6.043   5.788  0.4121 -0.9215 -0.5543
 2555EOH      H10225   2.397   6.016   5.587 -2.6743  1.5416 -0.1218
 2556EOH      O10226   4.202   2.298   3.609 -0.0101  0.1778  0.6683
 2556EOH      C10227   4.197   2.260   3.747 -0.1697 -0.0948  0.5891
 2556EOH      C10228   4.335   2.250   3.815  0.4757  0.5751 -0.6086
 2556EOH      H10229   4.214   2.391   3.604 -1.2005  0.3776  1.1994
 2557EOH      O10230   7.288   1.746   2.104 -0.7082 -0.0762  0.4427
 2557EOH      C10231   7.211   1.676   2.006 -0.5874  0.4504 -0.0297
 2557EOH      C10232   7.222   1.741   1.866  0.0340  0.0131 -0.1853
 2557EOH      H10233   7.302   1.683   2.173  2.5298 -0.1678 -0.2405
 2558EOH      O10234   3.266   1.579   5.202 -0.3001  0.2677  0.5678
 2558EOH      C10235   3.288   1.558   5.342  0.4248 -0.0835  0.4045
 2558EOH      C10236   3.383   1.442   5.376  1.0239  0.3705  0.2790
 2558EOH      H10237   3.175   1.600   5.192 -0.0208  1.2618  0.0748
 2559EOH      O10238   3.990   3.365   0.309 -0.4124  0.2370 -0.3974
 2559EOH      C10239   3.952   3.320   0.439 -0.3314  0.0508 -0.4383
 2559EOH      C10240   4.043   3.200   0.471 -0.4212 -0.0244 -0.4641
 2559EOH      H10241   3.913   3.409   0.276  0.2748  0.5417 -1.6403
 2560EOH      O10242   1.118   0.283   4.812 -0.3854  0.1855 -0.1433
 2560EOH      C10243   1.090   0.415   4.860  0.0302  0.2342 -0.0251
 2560EOH      C10244   0.958   0.447   4.787  0.1136 -0.3861 -0.4603
 2560EOH      H10245   1.130   0.289   4.718 -0.0879  0.7902 -0.0683
 2561EOH      O10246   2.083   1.567   7.108 -0.2260  0.5235  0.0580
 2561EOH      C10247   2.224   1.563   7.127 -0.2318  0.3132  0.0577
 2561EOH      C10248   2.250   1.645   7.255 -0.5299  0.4431  0.0355
 2561EOH      H10249   2.048   1.483   7.132 -2.7982  1.5529  0.0838
 2562EOH      O10250   5.446   3.692   4.832  0.3139  0.1861  0.1940
 2562EOH      C10251   5.499   3.768   4.722 -0.1389 -0.0891 -0.2185
 2562EOH      C10252   5.626   3.712   4.656  0.0176  0.2192 -0.1822
 2562EOH      H10253   5.454   3.745   4.909 -2.4789 -0.9595  1.3419
 2563EOH      O10254   3.343   4.386   4.223  0.0370 -0.0567  0.2859
 2563EOH      C10255   3.265   4.269   4.196  0.0483 -0.0825  0.3673
 2563EOH      C10256   3.180   4.274   4.067 -0.4535 -0.6616  0.6747
 2563EOH      H10257   3.297   4.448   4.277 -1.3860 -0.5285 -0.3667
 2564EOH      O10258   3.437   2.783   2.698  0.7696  0.0187  0.0789
 2564EOH      C10259   3.347   2.764   2.589  0.6278  0.8170  0.0557
 2564EOH      C10260   3.402   2.666   2.484  0.4784  0.5207  0.2530
 2564EOH      H10261   3.382   2.790   2.775 -0.8642 -0.7043 -1.0030
 2565EOH      O10262   7.464   7.639   4.468 -0.3605 -0.5796 -0.2737
 2565EOH      C10263   7.369   7.562   4.393 -1.0367 -0.0241  0.0117
 2565EOH      C10264   7.412   7.415   4.379 -0.1005  0.1958  0.5182
 2565EOH      H10265   7.424   7.723   4.480 -0.5599 -0.0791 -3.7541
 2566EOH      O10266   0.924   7.610   5.560  0.5855 -0.2865  0.1877
 2566EOH      C10267   1.026   7.550   5.640  0.2724  0.4036  1.1129
 2566EOH      C10268   1.160   7.526   5.567 -0.1042 -0.2292  0.6190
 2566EOH      H10269   0.954   7.695   5.531 -3.8574  1.3833 -0.0497
 2567EOH      O10270   7.236   0.629   4.162 -0.3825  0.1895 -0.0007
 2567EOH      C10271   7.326   0.519   4.173  0.4033  0.8387  0.1860
 2567EOH      C10272   7.338   0.476   4.321  0.2251  0.0151 -0.0348
 2567EOH      H10273   7.168   0.598   4.104 -0.6364 -1.1180  0.9634
 2568EOH      O10274   2.888   7.530   4.829 -0.3697 -0.6445  0.4390
 2568EOH      C10275   3.003   7.454   4.864 -0.0155 -0.3269 -0.0305
 2568EOH      C10276   3.034   7.494   5.010  0.2638 -0.5370 -0.0310
 2568EOH      H10277   2.871   7.511   4.738  0.7302  0.9370 -0.1133
   7.90000   7.90000   7.90000
