Ethanol
10277
    1EOH      O    1   3.951   3.894   4.049
    1EOH      C    2   3.958   3.953   3.919
    1EOH      C    3   3.880   4.085   3.910
    1EOH      H    4   3.994   3.811   4.035
    1EOH      H    5   3.919   3.878   3.850
    1EOH      H    6   4.064   3.974   3.899
    1EOH      H    7   3.774   4.075   3.929
    1EOH      H    8   3.893   4.132   3.813
    1EOH      H    9   3.915   4.160   3.982
    2ETH      O   10   0.399   0.551   3.140
    2ETH      C   11   0.470   0.743   3.266
    2ETH      C   12   0.510   0.630   3.173
    2ETH      H   13   0.396   0.809   3.217
    3ETH      O   14   7.196   3.732   2.094
    3ETH      C   15   7.224   3.735   2.333
    3ETH      C   16   7.267   3.792   2.199
    3ETH      H   17   7.116   3.756   2.350
    4ETH      O   18   6.568   1.366   4.278
    4ETH      C   19   6.585   1.127   4.290
    4ETH      C   20   6.506   1.251   4.328
    4ETH      H   21   6.589   1.117   4.179
    5ETH      O   22   6.955   2.046   0.930
    5ETH      C   23   6.858   2.252   0.853
    5ETH      C   24   6.862   2.146   0.962
    5ETH      H   25   6.958   2.301   0.844
    6ETH      O   26   5.945   7.617   0.995
    6ETH      C   27   5.965   7.751   0.796
    6ETH      C   28   5.968   7.747   0.948
    6ETH      H   29   6.045   7.686   0.755
    7ETH      O   30   3.644   1.668   0.439
    7ETH      C   31   3.677   1.888   0.528
    7ETH      C   32   3.711   1.789   0.418
    7ETH      H   33   3.567   1.910   0.528
    8ETH      O   34   6.320   0.565   1.236
    8ETH      C   35   6.277   0.485   1.458
    8ETH      C   36   6.263   0.599   1.359
    8ETH      H   37   6.223   0.395   1.420
    9ETH      O   38   0.163   1.395   5.819
    9ETH      C   39   0.170   1.158   5.782
    9ETH      C   40   0.105   1.290   5.746
    9ETH      H   41   0.279   1.161   5.757
   10ETH      O   42   1.132   0.250   1.557
   10ETH      C   43   1.193   0.251   1.325
   10ETH      C   44   1.241   0.253   1.470
   10ETH      H   45   1.137   0.157   1.305
   11ETH      O   46   6.663   6.961   5.118
   11ETH      C   47   6.756   6.988   5.338
   11ETH      C   48   6.633   6.954   5.255
   11ETH      H   49   6.837   6.915   5.317
   12ETH      O   50   3.192   2.453   0.479
   12ETH      C   51   3.231   2.380   0.254
   12ETH      C   52   3.274   2.472   0.367
   12ETH      H   53   3.241   2.274   0.285
   13ETH      O   54   4.145   1.859   2.850
   13ETH      C   55   4.098   1.879   3.084
   13ETH      C   56   4.063   1.923   2.943
   13ETH      H   57   4.082   1.770   3.095
   14ETH      O   58   4.573   7.335   0.926
   14ETH      C   59   4.675   7.183   1.081
   14ETH      C   60   4.680   7.247   0.943
   14ETH      H   61   4.683   7.261   1.160
   15ETH      O   62   5.286   4.695   2.598
   15ETH      C   63   5.295   4.515   2.440
   15ETH      C   64   5.315   4.663   2.465
   15ETH      H   65   5.363   4.455   2.504
   16ETH      O   66   2.952   3.797   4.623
   16ETH      C   67   2.823   3.595   4.610
   16ETH      C   68   2.959   3.660   4.592
   16ETH      H   69   2.791   3.604   4.717
   17ETH      O   70   4.235   4.505   4.652
   17ETH      C   71   4.127   4.536   4.440
   17ETH      C   72   4.250   4.564   4.525
   17ETH      H   73   4.114   4.427   4.425
   18ETH      O   74   2.573   5.984   1.236
   18ETH      C   75   2.717   5.814   1.325
   18ETH      C   76   2.674   5.893   1.202
   18ETH      H   77   2.758   5.883   1.402
   19ETH      O   78   0.696   7.699   0.990
   19ETH      C   79   0.822   7.765   0.797
   19ETH      C   80   0.710   7.800   0.893
   19ETH      H   81   0.919   7.758   0.852
   20ETH      O   82   7.180   1.348   5.205
   20ETH      C   83   7.284   1.552   5.279
   20ETH      C   84   7.303   1.415   5.216
   20ETH      H   85   7.218   1.614   5.215
   21ETH      O   86   7.609   2.585   7.076
   21ETH      C   87   7.617   2.544   7.312
   21ETH      C   88   7.530   2.574   7.191
   21ETH      H   89   7.670   2.447   7.298
   22ETH      O   90   0.906   0.418   5.162
   22ETH      C   91   1.007   0.627   5.223
   22ETH      C   92   0.880   0.554   5.184
   22ETH      H   93   1.048   0.584   5.318
   23ETH      O   94   0.966   4.146   2.824
   23ETH      C   95   0.860   4.149   2.609
   23ETH      C   96   0.945   4.071   2.708
   23ETH      H   97   0.760   4.170   2.654
   24ETH      O   98   6.266   0.594   4.082
   24ETH      C   99   6.281   0.597   4.322
   24ETH      C  100   6.349   0.562   4.190
   24ETH      H  101   6.261   0.707   4.326
   25ETH      O  102   5.923   0.470   5.013
   25ETH      C  103   5.947   0.252   5.108
   25ETH      C  104   5.962   0.402   5.128
   25ETH      H  105   5.841   0.226   5.088
   26ETH      O  106   0.905   3.211   6.680
   26ETH      C  107   0.934   3.229   6.918
   26ETH      C  108   1.001   3.215   6.782
   26ETH      H  109   0.876   3.324   6.923
   27ETH      O  110   3.105   3.894   3.432
   27ETH      C  111   2.950   4.077   3.427
   27ETH      C  112   3.038   3.987   3.513
   27ETH      H  113   3.013   4.134   3.355
   28ETH      O  114   0.983   0.884   1.630
   28ETH      C  115   1.059   0.984   1.835
   28ETH      C  116   1.004   1.007   1.695
   28ETH      H  117   0.985   0.927   1.896
   29ETH      O  118   3.547   1.757   6.483
   29ETH      C  119   3.355   1.839   6.366
   29ETH      C  120   3.452   1.724   6.386
   29ETH      H  121   3.300   1.860   6.461
   30ETH      O  122   0.058   7.344   0.563
   30ETH      C  123   0.024   7.296   0.330
   30ETH      C  124   0.037   7.240   0.471
   30ETH      H  125  -0.064   7.364   0.325
   31ETH      O  126   5.045   4.373   6.886
   31ETH      C  127   5.278   4.408   6.930
   31ETH      C  128   5.139   4.469   6.926
   31ETH      H  129   5.282   4.324   7.003
   32ETH      O  130   7.744   1.331   7.458
   32ETH      C  131   7.841   1.460   7.281
   32ETH      C  132   7.772   1.462   7.416
   32ETH      H  133   7.938   1.406   7.288
   33ETH      O  134   5.873   7.754   2.099
   33ETH      C  135   5.834   7.756   2.336
   33ETH      C  136   5.781   7.719   2.198
   33ETH      H  137   5.928   7.700   2.357
   34ETH      O  138   7.303   2.380   2.296
   34ETH      C  139   7.474   2.244   2.196
   34ETH      C  140   7.433   2.331   2.314
   34ETH      H  141   7.406   2.157   2.188
   35ETH      O  142   3.927   7.956   7.490
   35ETH      C  143   3.984   7.812   7.306
   35ETH      C  144   3.874   7.885   7.381
   35ETH      H  145   4.057   7.886   7.265
   36ETH      O  146   5.347   1.589   1.101
   36ETH      C  147   5.270   1.692   1.304
   36ETH      C  148   5.383   1.620   1.233
   36ETH      H  149   5.247   1.788   1.251
   37ETH      O  150   2.353   3.809   0.209
   37ETH      C  151   2.401   4.004   0.077
   37ETH      C  152   2.351   3.860   0.079
   37ETH      H  153   2.335   4.068   0.140
   38ETH      O  154   1.906   6.720   0.748
   38ETH      C  155   1.925   6.959   0.764
   38ETH      C  156   1.993   6.824   0.781
   38ETH      H  157   1.895   6.973   0.658
   39ETH      O  158   1.920   1.575   5.693
   39ETH      C  159   1.775   1.387   5.722
   39ETH      C  160   1.890   1.448   5.644
   39ETH      H  161   1.803   1.376   5.830
   40ETH      O  162   0.844   4.663   7.490
   40ETH      C  163   0.687   4.750   7.331
   40ETH      C  164   0.708   4.680   7.464
   40ETH      H  165   0.734   4.852   7.334
   41ETH      O  166   1.461   2.932   1.404
   41ETH      C  167   1.288   2.970   1.243
   41ETH      C  168   1.421   2.902   1.273
   41ETH      H  169   1.209   2.931   1.312
   42ETH      O  170   2.269   5.442   0.447
   42ETH      C  171   2.438   5.529   0.300
   42ETH      C  172   2.305   5.553   0.370
   42ETH      H  173   2.518   5.513   0.376
   43ETH      O  174   4.324   0.238   7.228
   43ETH      C  175   4.232   0.439   7.322
   43ETH      C  176   4.290   0.371   7.200
   43ETH      H  177   4.138   0.386   7.354
   44ETH      O  178   5.936   6.541   4.703
   44ETH      C  179   5.973   6.638   4.919
   44ETH      C  180   5.993   6.518   4.829
   44ETH      H  181   6.023   6.728   4.876
   45ETH      O  182   6.492   0.581   4.486
   45ETH      C  183   6.436   0.630   4.714
   45ETH      C  184   6.397   0.642   4.568
   45ETH      H  185   6.441   0.522   4.743
   46ETH      O  186   7.538   3.327   7.587
   46ETH      C  187   7.749   3.332   7.702
   46ETH      C  188   7.608   3.388   7.693
   46ETH      H  189   7.746   3.222   7.722
   47ETH      O  190   2.330   1.942   0.825
   47ETH      C  191   2.560   2.011   0.830
   47ETH      C  192   2.459   1.908   0.782
   47ETH      H  193   2.536   2.111   0.787
   48ETH      O  194   5.963   7.103   3.973
   48ETH      C  195   5.927   7.075   3.737
   48ETH      C  196   5.998   7.025   3.862
   48ETH      H  197   5.816   7.066   3.750
   49ETH      O  198   4.158   0.393   4.126
   49ETH      C  199   4.171   0.378   3.887
   49ETH      C  200   4.247   0.394   4.018
   49ETH      H  201   4.117   0.281   3.885
   50ETH      O  202   5.874   6.467   7.477
   50ETH      C  203   5.902   6.691   7.559
   50ETH      C  204   5.810   6.570   7.547
   50ETH      H  205   5.994   6.663   7.617
   51ETH      O  206   2.411   3.220   4.674
   51ETH      C  207   2.303   3.016   4.608
   51ETH      C  208   2.366   3.096   4.721
   51ETH      H  209   2.215   3.070   4.567
   52ETH      O  210   0.182   4.157   6.819
   52ETH      C  211   0.132   4.156   6.584
   52ETH      C  212   0.081   4.130   6.725
   52ETH      H  213   0.159   4.264   6.573
   53ETH      O  214   1.247   1.908   0.039
   53ETH      C  215   1.265   1.849   0.271
   53ETH      C  216   1.338   1.891   0.144
   53ETH      H  217   1.193   1.928   0.301
   54ETH      O  218   6.657   3.117   6.628
   54ETH      C  219   6.452   3.013   6.563
   54ETH      C  220   6.548   3.044   6.676
   54ETH      H  221   6.412   3.107   6.519
   55ETH      O  222   5.819   3.030   0.960
   55ETH      C  223   5.933   3.208   1.073
   55ETH      C  224   5.803   3.132   1.055
   55ETH      H  225   6.013   3.140   1.111
   56ETH      O  226   1.465   2.745   0.293
   56ETH      C  227   1.449   2.704   0.057
   56ETH      C  228   1.504   2.658   0.190
   56ETH      H  229   1.337   2.705   0.060
   57ETH      O  230   7.662   7.723   7.064
   57ETH      C  231   7.709   7.577   6.880
   57ETH      C  232   7.607   7.623   6.982
   57ETH      H  233   7.738   7.662   6.814
   58ETH      O  234   2.389   7.408   2.745
   58ETH      C  235   2.442   7.371   2.513
   58ETH      C  236   2.495   7.390   2.654
   58ETH      H  237   2.378   7.279   2.509
   59ETH      O  238   3.298   6.551   1.432
   59ETH      C  239   3.478   6.572   1.275
   59ETH      C  240   3.412   6.487   1.382
   59ETH      H  241   3.408   6.587   1.189
   60ETH      O  242   7.843   7.651   7.708
   60ETH      C  243   7.837   7.890   7.683
   60ETH      C  244   7.830   7.772   7.778
   60ETH      H  245   7.936   7.891   7.632
   61ETH      O  246   5.347   6.008   2.446
   61ETH      C  247   5.353   5.947   2.214
   61ETH      C  248   5.269   5.995   2.331
   61ETH      H  249   5.434   6.021   2.192
   62ETH      O  250   3.620   3.553   0.414
   62ETH      C  251   3.624   3.596   0.650
   62ETH      C  252   3.667   3.642   0.511
   62ETH      H  253   3.513   3.593   0.657
   63ETH      O  254   3.600   1.684   3.766
   63ETH      C  255   3.393   1.806   3.768
   63ETH      C  256   3.538   1.798   3.816
   63ETH      H  257   3.391   1.812   3.657
   64ETH      O  258   7.003   7.028   1.619
   64ETH      C  259   7.046   7.072   1.851
   64ETH      C  260   7.105   7.049   1.713
   64ETH      H  261   6.981   7.162   1.851
   65ETH      O  262   6.741   1.216   5.374
   65ETH      C  263   6.924   1.153   5.516
   65ETH      C  264   6.866   1.154   5.375
   65ETH      H  265   6.938   1.258   5.552
   66ETH      O  266   0.703   5.706   0.973
   66ETH      C  267   0.798   5.750   0.757
   66ETH      C  268   0.780   5.651   0.871
   66ETH      H  269   0.698   5.777   0.714
   67ETH      O  270   2.415   0.964   0.948
   67ETH      C  271   2.481   0.930   1.177
   67ETH      C  272   2.519   0.986   1.041
   67ETH      H  273   2.390   0.981   1.215
   68ETH      O  274   6.817   0.429   0.699
   68ETH      C  275   6.847   0.647   0.795
   68ETH      C  276   6.902   0.540   0.702
   68ETH      H  277   6.748   0.682   0.757
   69ETH      O  278   1.486   0.850   1.446
   69ETH      C  279   1.424   1.069   1.525
   69ETH      C  280   1.487   0.987   1.413
   69ETH      H  281   1.317   1.038   1.538
   70ETH      O  282   6.355   2.319   2.708
   70ETH      C  283   6.465   2.114   2.767
   70ETH      C  284   6.434   2.214   2.657
   70ETH      H  285   6.523   2.163   2.848
   71ETH      O  286   1.927   2.776   1.016
   71ETH      C  287   2.075   2.954   1.079
   71ETH      C  288   2.042   2.845   0.978
   71ETH      H  289   1.991   3.028   1.084
   72ETH      O  290   7.694   0.105   4.164
   72ETH      C  291   7.753   0.090   4.396
   72ETH      C  292   7.791   0.058   4.252
   72ETH      H  293   7.746   0.201   4.409
   73ETH      O  294   1.698   3.879   4.268
   73ETH      C  295   1.796   3.663   4.231
   73ETH      C  296   1.805   3.796   4.304
   73ETH      H  297   1.702   3.610   4.259
   74ETH      O  298   4.871   5.804   6.441
   74ETH      C  299   4.898   5.819   6.203
   74ETH      C  300   4.888   5.894   6.335
   74ETH      H  301   4.986   5.751   6.204
   75ETH      O  302   7.296   4.801   6.668
   75ETH      C  303   7.295   5.010   6.549
   75ETH      C  304   7.243   4.931   6.668
   75ETH      H  305   7.406   5.019   6.554
   76ETH      O  306   6.844   5.910   5.549
   76ETH      C  307   6.640   5.785   5.542
   76ETH      C  308   6.736   5.867   5.626
   76ETH      H  309   6.599   5.847   5.458
   77ETH      O  310   7.759   6.057   7.122
   77ETH      C  311   7.656   6.006   6.911
   77ETH      C  312   7.636   6.041   7.058
   77ETH      H  313   7.710   6.088   6.860
   78ETH      O  314   0.773   2.098   1.439
   78ETH      C  315   0.578   2.029   1.316
   78ETH      C  316   0.718   2.088   1.310
   78ETH      H  317   0.581   1.927   1.359
   79ETH      O  318   1.359   0.105   4.323
   79ETH      C  319   1.405   0.085   4.558
   79ETH      C  320   1.430   0.163   4.430
   79ETH      H  321   1.296   0.088   4.584
   80ETH      O  322   6.146   6.638   1.235
   80ETH      C  323   6.190   6.633   0.999
   80ETH      C  324   6.243   6.664   1.138
   80ETH      H  325   6.163   6.525   0.992
   81ETH      O  326   6.628   6.775   3.118
   81ETH      C  327   6.521   6.922   2.962
   81ETH      C  328   6.529   6.782   3.019
   81ETH      H  329   6.494   6.995   3.042
   82ETH      O  330   0.958   6.560   0.574
   82ETH      C  331   0.920   6.328   0.524
   82ETH      C  332   0.952   6.467   0.470
   82ETH      H  333   0.999   6.296   0.595
   83ETH      O  334   6.279   7.766   6.534
   83ETH      C  335   6.366   7.979   6.464
   83ETH      C  336   6.375   7.828   6.453
   83ETH      H  337   6.266   8.014   6.430
   84ETH      O  338   3.727   3.190   0.388
   84ETH      C  339   3.828   3.270   0.591
   84ETH      C  340   3.762   3.153   0.519
   84ETH      H  341   3.921   3.300   0.538
   85ETH      O  342   2.980   1.241   7.649
   85ETH      C  343   2.864   1.431   7.738
   85ETH      C  344   2.875   1.280   7.733
   85ETH      H  345   2.958   1.475   7.779
   86ETH      O  346   0.354   6.117   7.490
   86ETH      C  347   0.539   6.133   7.339
   86ETH      C  348   0.402   6.073   7.367
   86ETH      H  349   0.531   6.244   7.334
   87ETH      O  350   3.052   3.266   1.662
   87ETH      C  351   3.127   3.374   1.863
   87ETH      C  352   3.082   3.245   1.798
   87ETH      H  353   3.219   3.412   1.813
   88ETH      O  354   6.808   2.994   2.009
   88ETH      C  355   6.793   2.907   1.786
   88ETH      C  356   6.779   2.879   1.934
   88ETH      H  357   6.721   2.986   1.755
   89ETH      O  358   0.265   3.041   3.544
   89ETH      C  359   0.082   3.135   3.668
   89ETH      C  360   0.222   3.156   3.612
   89ETH      H  361   0.010   3.117   3.585
   90ETH      O  362   0.383   4.540   7.059
   90ETH      C  363   0.298   4.477   7.274
   90ETH      C  364   0.290   4.458   7.124
   90ETH      H  365   0.399   4.448   7.311
   91ETH      O  366   2.155   4.428   5.432
   91ETH      C  367   2.376   4.338   5.453
   91ETH      C  368   2.227   4.309   5.449
   91ETH      H  369   2.409   4.384   5.357
   92ETH      O  370   0.984   1.794   1.701
   92ETH      C  371   0.747   1.825   1.677
   92ETH      C  372   0.862   1.783   1.768
   92ETH      H  373   0.759   1.932   1.647
   93ETH      O  374   2.762   7.312   2.223
   93ETH      C  375   2.788   7.181   2.423
   93ETH      C  376   2.703   7.211   2.300
   93ETH      H  377   2.888   7.144   2.391
   94ETH      O  378   5.946   0.885   1.161
   94ETH      C  379   6.082   1.009   1.315
   94ETH      C  380   6.021   1.002   1.176
   94ETH      H  381   6.000   1.011   1.392
   95ETH      O  382   5.366   1.777   3.306
   95ETH      C  383   5.452   1.967   3.188
   95ETH      C  384   5.412   1.908   3.322
   95ETH      H  385   5.535   1.908   3.143
   96ETH      O  386   1.725   6.513   0.258
   96ETH      C  387   1.694   6.402   0.469
   96ETH      C  388   1.684   6.392   0.317
   96ETH      H  389   1.800   6.420   0.499
   97ETH      O  390   3.914   2.161   3.294
   97ETH      C  391   4.088   2.003   3.243
   97ETH      C  392   3.939   2.026   3.263
   97ETH      H  393   4.125   2.065   3.157
   98ETH      O  394   0.583   2.858   6.302
   98ETH      C  395   0.810   2.779   6.312
   98ETH      C  396   0.699   2.858   6.380
   98ETH      H  397   0.778   2.673   6.299
   99ETH      O  398   3.664   0.968   0.443
   99ETH      C  399   3.707   0.945   0.678
   99ETH      C  400   3.603   0.958   0.569
   99ETH      H  401   3.768   0.853   0.663
  100ETH      O  402   3.371   5.305   1.282
  100ETH      C  403   3.214   5.187   1.419
  100ETH      C  404   3.347   5.260   1.412
  100ETH      H  405   3.131   5.255   1.391
  101ETH      O  406   7.587   3.110   2.229
  101ETH      C  407   7.581   2.885   2.145
  101ETH      C  408   7.579   2.976   2.267
  101ETH      H  409   7.493   2.907   2.080
  102ETH      O  410   3.700   4.261   6.978
  102ETH      C  411   3.891   4.130   7.041
  102ETH      C  412   3.740   4.144   7.045
  102ETH      H  413   3.926   4.122   6.936
  103ETH      O  414   7.289   4.088   4.286
  103ETH      C  415   7.446   3.912   4.330
  103ETH      C  416   7.367   4.029   4.387
  103ETH      H  417   7.377   3.834   4.292
  104ETH      O  418   1.063   2.785   2.277
  104ETH      C  419   1.080   2.635   2.090
  104ETH      C  420   1.055   2.777   2.138
  104ETH      H  421   1.182   2.602   2.120
  105ETH      O  422   0.767   2.209   0.435
  105ETH      C  423   0.969   2.163   0.313
  105ETH      C  424   0.852   2.258   0.335
  105ETH      H  425   1.029   2.154   0.407
  106ETH      O  426   7.719   0.725   1.347
  106ETH      C  427   7.660   0.640   1.564
  106ETH      C  428   7.631   0.639   1.414
  106ETH      H  429   7.764   0.604   1.583
  107ETH      O  430   2.842   7.832   5.652
  107ETH      C  431   2.650   7.707   5.723
  107ETH      C  432   2.706   7.811   5.627
  107ETH      H  433   2.702   7.610   5.709
  108ETH      O  434   4.237   7.802   6.752
  108ETH      C  435   4.374   7.605   6.766
  108ETH      C  436   4.261   7.686   6.827
  108ETH      H  437   4.346   7.573   6.663
  109ETH      O  438   1.712   2.936   2.999
  109ETH      C  439   1.691   2.884   2.765
  109ETH      C  440   1.697   2.831   2.907
  109ETH      H  441   1.603   2.952   2.754
  110ETH      O  442   2.001   1.461   1.549
  110ETH      C  443   1.941   1.578   1.348
  110ETH      C  444   2.024   1.578   1.475
  110ETH      H  445   1.968   1.491   1.284
  111ETH      O  446   2.800   4.326   5.483
  111ETH      C  447   2.756   4.490   5.313
  111ETH      C  448   2.828   4.361   5.350
  111ETH      H  449   2.646   4.475   5.321
  112ETH      O  450   0.960   3.314   3.882
  112ETH      C  451   1.069   3.524   3.927
  112ETH      C  452   0.937   3.451   3.903
  112ETH      H  453   1.118   3.484   4.018
  113ETH      O  454   2.954   3.049   1.002
  113ETH      C  455   3.023   2.998   1.227
  113ETH      C  456   3.051   2.982   1.078
  113ETH      H  457   3.027   3.106   1.255
  114ETH      O  458   7.060   4.195   3.107
  114ETH      C  459   7.269   4.244   2.999
  114ETH      C  460   7.119   4.224   2.983
  114ETH      H  461   7.288   4.331   3.066
  115ETH      O  462   7.585   5.489   6.951
  115ETH      C  463   7.596   5.441   7.186
  115ETH      C  464   7.508   5.475   7.067
  115ETH      H  465   7.648   5.344   7.169
  116ETH      O  466   0.365   3.489   4.965
  116ETH      C  467   0.547   3.353   4.886
  116ETH      C  468   0.492   3.493   4.905
  116ETH      H  469   0.559   3.303   4.985
  117ETH      O  470   7.484   7.018   3.217
  117ETH      C  471   7.259   7.101   3.221
  117ETH      C  472   7.406   7.129   3.250
  117ETH      H  473   7.245   7.081   3.112
  118ETH      O  474   3.008   6.434   3.820
  118ETH      C  475   2.964   6.474   3.587
  118ETH      C  476   2.916   6.490   3.730
  118ETH      H  477   3.061   6.526   3.573
  119ETH      O  478   2.536   5.479   5.778
  119ETH      C  479   2.764   5.490   5.851
  119ETH      C  480   2.663   5.525   5.743
  119ETH      H  481   2.736   5.538   5.947
  120ETH      O  482   1.057   6.076   5.851
  120ETH      C  483   1.135   5.850   5.832
  120ETH      C  484   1.017   5.942   5.860
  120ETH      H  485   1.173   5.867   5.729
  121ETH      O  486   0.474   5.897   5.608
  121ETH      C  487   0.424   6.097   5.732
  121ETH      C  488   0.375   5.993   5.632
  121ETH      H  489   0.447   6.047   5.830
  122ETH      O  490   4.401   5.835   2.883
  122ETH      C  491   4.611   5.729   2.834
  122ETH      C  492   4.466   5.747   2.795
  122ETH      H  493   4.664   5.827   2.829
  123ETH      O  494   4.535   1.259   7.305
  123ETH      C  495   4.561   1.344   7.528
  123ETH      C  496   4.629   1.306   7.398
  123ETH      H  497   4.488   1.426   7.510
  124ETH      O  498   1.452   4.936   5.713
  124ETH      C  499   1.551   4.823   5.901
  124ETH      C  500   1.427   4.890   5.843
  124ETH      H  501   1.579   4.735   5.838
  125ETH      O  502   2.219   6.482   0.459
  125ETH      C  503   2.427   6.413   0.363
  125ETH      C  504   2.315   6.516   0.364
  125ETH      H  505   2.478   6.410   0.462
  126ETH      O  506   3.719   2.880   0.361
  126ETH      C  507   3.480   2.883   0.338
  126ETH      C  508   3.600   2.832   0.417
  126ETH      H  509   3.477   2.995   0.341
  127ETH      O  510   7.402   3.725   7.041
  127ETH      C  511   7.418   3.767   6.805
  127ETH      C  512   7.462   3.807   6.945
  127ETH      H  513   7.450   3.662   6.784
  128ETH      O  514   1.586   0.189   6.308
  128ETH      C  515   1.652   0.194   6.078
  128ETH      C  516   1.697   0.184   6.222
  128ETH      H  517   1.585   0.109   6.052
  129ETH      O  518   1.698   2.350   0.968
  129ETH      C  519   1.862   2.500   1.057
  129ETH      C  520   1.755   2.396   1.087
  129ETH      H  521   1.944   2.455   0.996
  130ETH      O  522   2.334   7.541   3.254
  130ETH      C  523   2.146   7.391   3.236
  130ETH      C  524   2.250   7.475   3.163
  130ETH      H  525   2.197   7.313   3.297
  131ETH      O  526   5.899   1.221   3.911
  131ETH      C  527   5.962   1.051   3.754
  131ETH      C  528   5.969   1.101   3.898
  131ETH      H  529   5.855   1.031   3.726
  132ETH      O  530   6.146   0.114   7.270
  132ETH      C  531   6.185   0.125   7.033
  132ETH      C  532   6.219   0.181   7.171
  132ETH      H  533   6.212   0.017   7.028
  133ETH      O  534   6.020   4.872   4.373
  133ETH      C  535   6.052   4.686   4.522
  133ETH      C  536   5.963   4.803   4.481
  133ETH      H  537   6.062   4.614   4.438
  134ETH      O  538   5.464   4.509   3.398
  134ETH      C  539   5.456   4.588   3.625
  134ETH      C  540   5.379   4.561   3.496
  134ETH      H  541   5.498   4.492   3.664
  135ETH      O  542   2.839   1.967   4.157
  135ETH      C  543   3.028   1.821   4.134
  135ETH      C  544   2.964   1.936   4.210
  135ETH      H  545   2.964   1.730   4.142
  136ETH      O  546   1.319   5.487   7.872
  136ETH      C  547   1.295   5.537   7.639
  136ETH      C  548   1.225   5.502   7.769
  136ETH      H  549   1.350   5.633   7.649
  137ETH      O  550   4.409   5.992   0.474
  137ETH      C  551   4.382   5.759   0.525
  137ETH      C  552   4.458   5.864   0.445
  137ETH      H  553   4.395   5.777   0.634
  138ETH      O  554   4.028   6.860   6.058
  138ETH      C  555   3.950   7.070   6.145
  138ETH      C  556   4.006   6.932   6.176
  138ETH      H  557   4.024   7.128   6.084
  139ETH      O  558   2.181   3.932   2.407
  139ETH      C  559   2.228   3.706   2.341
  139ETH      C  560   2.274   3.851   2.341
  139ETH      H  561   2.219   3.669   2.446
  140ETH      O  562   7.383   0.057   1.937
  140ETH      C  563   7.590   0.177   1.952
  140ETH      C  564   7.472   0.118   2.027
  140ETH      H  565   7.646   0.096   1.900
  141ETH      O  566   3.612   2.099   0.277
  141ETH      C  567   3.720   2.130   0.065
  141ETH      C  568   3.592   2.143   0.146
  141ETH      H  569   3.800   2.193   0.110
  142ETH      O  570   7.825   3.744   0.943
  142ETH      C  571   7.868   3.754   1.179
  142ETH      C  572   7.927   3.748   1.039
  142ETH      H  573   7.807   3.846   1.191
  143ETH      O  574   2.545   3.026   7.743
  143ETH      C  575   2.421   2.995   7.947
  143ETH      C  576   2.478   3.094   7.845
  143ETH      H  577   2.347   2.928   7.897
  144ETH      O  578   6.651   1.243   5.764
  144ETH      C  579   6.574   1.192   5.986
  144ETH      C  580   6.538   1.207   5.839
  144ETH      H  581   6.650   1.111   5.999
  145ETH      O  582   4.015   7.292   1.164
  145ETH      C  583   4.155   7.469   1.082
  145ETH      C  584   4.038   7.377   1.055
  145ETH      H  585   4.133   7.534   1.170
  146ETH      O  586   3.128   1.308   2.237
  146ETH      C  587   3.111   1.542   2.286
  146ETH      C  588   3.202   1.422   2.272
  146ETH      H  589   3.060   1.563   2.189
  147ETH      O  590   7.184   0.623   6.995
  147ETH      C  591   7.283   0.622   7.214
  147ETH      C  592   7.204   0.545   7.109
  147ETH      H  593   7.383   0.648   7.173
  148ETH      O  594   3.858   5.767   2.458
  148ETH      C  595   4.087   5.816   2.408
  148ETH      C  596   3.965   5.850   2.491
  148ETH      H  597   4.119   5.711   2.428
  149ETH      O  598   4.723   1.078   4.870
  149ETH      C  599   4.717   0.845   4.927
  149ETH      C  600   4.757   0.950   4.825
  149ETH      H  601   4.771   0.862   5.023
  150ETH      O  602   6.351   1.044   5.853
  150ETH      C  603   6.380   0.927   5.646
  150ETH      C  604   6.309   0.932   5.780
  150ETH      H  605   6.355   1.017   5.586
  151ETH      O  606   3.062   4.521   3.742
  151ETH      C  607   3.051   4.426   3.522
  151ETH      C  608   3.031   4.404   3.671
  151ETH      H  609   2.983   4.507   3.486
  152ETH      O  610   3.782   2.368   5.936
  152ETH      C  611   4.012   2.406   5.878
  152ETH      C  612   3.911   2.315   5.947
  152ETH      H  613   3.987   2.415   5.770
  153ETH      O  614   4.811   3.380   0.865
  153ETH      C  615   4.836   3.478   1.083
  153ETH      C  616   4.874   3.484   0.936
  153ETH      H  617   4.726   3.491   1.094
  154ETH      O  618   7.471   3.953   0.424
  154ETH      C  619   7.330   3.824   0.279
  154ETH      C  620   7.390   3.960   0.309
  154ETH      H  621   7.411   3.750   0.258
  155ETH      O  622   0.832   4.712   1.449
  155ETH      C  623   0.959   4.914   1.429
  155ETH      C  624   0.960   4.767   1.466
  155ETH      H  625   0.930   4.927   1.322
  156ETH      O  626   0.546   2.685   4.052
  156ETH      C  627   0.555   2.877   3.908
  156ETH      C  628   0.554   2.825   4.051
  156ETH      H  629   0.644   2.838   3.854
  157ETH      O  630   3.324   1.336   7.725
  157ETH      C  631   3.537   1.370   7.832
  157ETH      C  632   3.386   1.382   7.842
  157ETH      H  633   3.566   1.263   7.818
  158ETH      O  634   3.408   5.472   5.793
  158ETH      C  635   3.518   5.321   5.643
  158ETH      C  636   3.392   5.353   5.721
  158ETH      H  637   3.539   5.403   5.569
  159ETH      O  638   4.732   5.496   4.221
  159ETH      C  639   4.898   5.668   4.194
  159ETH      C  640   4.864   5.520   4.181
  159ETH      H  641   4.831   5.728   4.128
  160ETH      O  642   0.665   3.379   0.926
  160ETH      C  643   0.711   3.614   0.907
  160ETH      C  644   0.730   3.476   0.848
  160ETH      H  645   0.602   3.640   0.909
  161ETH      O  646   6.625   7.809   4.529
  161ETH      C  647   6.543   7.616   4.413
  161ETH      C  648   6.572   7.766   4.407
  161ETH      H  649   6.637   7.560   4.431
  162ETH      O  650   4.842   1.896   7.227
  162ETH      C  651   4.879   1.999   7.440
  162ETH      C  652   4.849   2.019   7.292
  162ETH      H  653   4.798   1.940   7.488
  163ETH      O  654   2.650   1.701   0.458
  163ETH      C  655   2.699   1.760   0.230
  163ETH      C  656   2.748   1.758   0.375
  163ETH      H  657   2.681   1.656   0.194
  164ETH      O  658   6.298   7.479   2.814
  164ETH      C  659   6.402   7.317   2.958
  164ETH      C  660   6.278   7.357   2.881
  164ETH      H  661   6.488   7.303   2.888
  165ETH      O  662   4.160   4.235   7.980
  165ETH      C  663   4.210   4.244   7.745
  165ETH      C  664   4.247   4.291   7.885
  165ETH      H  665   4.219   4.133   7.738
  166ETH      O  666   4.161   7.695   1.806
  166ETH      C  667   4.202   7.771   2.030
  166ETH      C  668   4.262   7.722   1.899
  166ETH      H  669   4.145   7.866   2.013
  167ETH      O  670   0.093   3.199   7.827
  167ETH      C  671   0.246   3.381   7.797
  167ETH      C  672   0.224   3.231   7.789
  167ETH      H  673   0.176   3.434   7.727
  168ETH      O  674   7.621   1.686   3.259
  168ETH      C  675   7.581   1.702   3.495
  168ETH      C  676   7.636   1.769   3.370
  168ETH      H  677   7.472   1.682   3.482
  169ETH      O  678   6.996   4.330   4.234
  169ETH      C  679   7.062   4.263   4.014
  169ETH      C  680   7.090   4.255   4.163
  169ETH      H  681   6.961   4.220   3.992
  170ETH      O  682   3.973   3.965   2.076
  170ETH      C  683   4.034   4.128   2.242
  170ETH      C  684   4.066   4.065   2.107
  170ETH      H  685   3.934   4.176   2.238
  171ETH      O  686   0.069   2.838   3.279
  171ETH      C  687   0.082   2.811   3.517
  171ETH      C  688   0.148   2.865   3.391
  171ETH      H  689  -0.017   2.861   3.533
  172ETH      O  690   3.389   6.930   4.207
  172ETH      C  691   3.585   6.956   4.071
  172ETH      C  692   3.529   6.920   4.207
  172ETH      H  693   3.546   6.886   3.994
  173ETH      O  694   1.297   2.641   3.337
  173ETH      C  695   1.420   2.493   3.194
  173ETH      C  696   1.323   2.506   3.310
  173ETH      H  697   1.375   2.538   3.102
  174ETH      O  698   5.274   3.929   4.646
  174ETH      C  699   5.344   4.031   4.852
  174ETH      C  700   5.287   4.052   4.713
  174ETH      H  701   5.274   3.967   4.912
  175ETH      O  702   0.295   6.193   1.708
  175ETH      C  703   0.422   6.342   1.847
  175ETH      C  704   0.424   6.220   1.756
  175ETH      H  705   0.388   6.431   1.790
  176ETH      O  706   4.717   1.783   4.514
  176ETH      C  707   4.588   1.803   4.312
  176ETH      C  708   4.594   1.750   4.455
  176ETH      H  709   4.597   1.914   4.313
  177ETH      O  710   3.855   2.338   1.760
  177ETH      C  711   3.866   2.470   1.561
  177ETH      C  712   3.941   2.413   1.680
  177ETH      H  713   3.825   2.388   1.498
  178ETH      O  714   2.046   7.124   6.492
  178ETH      C  715   2.003   7.115   6.728
  178ETH      C  716   1.950   7.152   6.591
  178ETH      H  717   2.025   7.006   6.733
  179ETH      O  718   5.419   6.708   7.933
  179ETH      C  719   5.251   6.835   7.818
  179ETH      C  720   5.296   6.698   7.867
  179ETH      H  721   5.237   6.904   7.905
  180ETH      O  722   6.825   6.418   7.109
  180ETH      C  723   6.787   6.403   7.345
  180ETH      C  724   6.727   6.429   7.208
  180ETH      H  725   6.827   6.300   7.350
  181ETH      O  726   7.495   2.968   5.507
  181ETH      C  727   7.393   2.876   5.704
  181ETH      C  728   7.504   2.863   5.600
  181ETH      H  729   7.404   2.972   5.760
  182ETH      O  730   1.491   6.890   7.259
  182ETH      C  731   1.484   6.948   7.026
  182ETH      C  732   1.413   6.881   7.143
  182ETH      H  733   1.500   7.056   7.048
  183ETH      O  734   0.814   6.532   3.218
  183ETH      C  735   0.974   6.356   3.255
  183ETH      C  736   0.864   6.412   3.166
  183ETH      H  737   1.058   6.429   3.261
  184ETH      O  738   0.249   0.190   1.558
  184ETH      C  739   0.254  -0.000   1.705
  184ETH      C  740   0.235   0.150   1.692
  184ETH      H  741   0.177  -0.054   1.645
  185ETH      O  742   3.083   1.860   2.309
  185ETH      C  743   2.878   1.743   2.261
  185ETH      C  744   3.016   1.785   2.211
  185ETH      H  745   2.889   1.678   2.352
  186ETH      O  746   3.284   0.380   3.069
  186ETH      C  747   3.170   0.366   2.858
  186ETH      C  748   3.290   0.323   2.941
  186ETH      H  749   3.075   0.332   2.907
  187ETH      O  750   3.929   1.454   0.779
  187ETH      C  751   3.969   1.476   0.543
  187ETH      C  752   3.957   1.382   0.662
  187ETH      H  753   3.873   1.531   0.528
  188ETH      O  754   3.130   7.172   2.145
  188ETH      C  755   3.078   7.255   1.926
  188ETH      C  756   3.032   7.173   2.045
  188ETH      H  757   3.096   7.361   1.957
  189ETH      O  758   6.312   0.194   4.966
  189ETH      C  759   6.319   0.010   5.120
  189ETH      C  760   6.254   0.070   4.997
  189ETH      H  761   6.428  -0.007   5.102
  190ETH      O  762   5.200   0.443   6.928
  190ETH      C  763   5.077   0.558   7.099
  190ETH      C  764   5.172   0.569   6.981
  190ETH      H  765   4.981   0.513   7.066
  191ETH      O  766   7.034   6.825   6.076
  191ETH      C  767   7.044   6.967   6.270
  191ETH      C  768   7.057   6.957   6.118
  191ETH      H  769   6.941   6.939   6.302
  192ETH      O  770   5.946   3.414   1.439
  192ETH      C  771   5.958   3.410   1.200
  192ETH      C  772   5.975   3.332   1.329
  192ETH      H  773   5.852   3.444   1.189
  193ETH      O  774   5.845   1.079   5.467
  193ETH      C  775   6.011   1.047   5.638
  193ETH      C  776   5.969   1.019   5.494
  193ETH      H  777   6.023   1.157   5.653
  194ETH      O  778   7.826   7.830   1.334
  194ETH      C  779   7.812   7.807   1.572
  194ETH      C  780   7.830   7.901   1.454
  194ETH      H  781   7.712   7.757   1.566
  195ETH      O  782   4.647   4.163   6.816
  195ETH      C  783   4.724   4.159   7.043
  195ETH      C  784   4.680   4.244   6.925
  195ETH      H  785   4.641   4.092   7.075
  196ETH      O  786   1.919   5.989   2.038
  196ETH      C  787   1.832   6.139   1.872
  196ETH      C  788   1.952   6.098   1.956
  196ETH      H  789   1.801   6.055   1.806
  197ETH      O  790   3.761   6.835   7.551
  197ETH      C  791   3.794   6.940   7.338
  197ETH      C  792   3.854   6.904   7.473
  197ETH      H  793   3.767   6.848   7.283
  198ETH      O  794   7.143   4.499   1.714
  198ETH      C  795   6.916   4.555   1.770
  198ETH      C  796   7.059   4.603   1.755
  198ETH      H  797   6.878   4.518   1.672
  199ETH      O  798   2.490   6.792   3.662
  199ETH      C  799   2.531   6.556   3.674
  199ETH      C  800   2.441   6.671   3.713
  199ETH      H  801   2.535   6.546   3.563
  200ETH      O  802   4.448   6.183   4.029
  200ETH      C  803   4.243   6.138   4.146
  200ETH      C  804   4.312   6.152   4.011
  200ETH      H  805   4.289   6.055   4.204
  201ETH      O  806   3.506   3.126   2.090
  201ETH      C  807   3.418   2.939   1.967
  201ETH      C  808   3.422   3.014   2.099
  201ETH      H  809   3.377   3.006   1.887
  202ETH      O  810   5.547   0.532   2.994
  202ETH      C  811   5.477   0.546   3.224
  202ETH      C  812   5.563   0.605   3.113
  202ETH      H  813   5.370   0.550   3.195
  203ETH      O  814   4.871   6.168   7.644
  203ETH      C  815   4.683   6.028   7.593
  203ETH      C  816   4.798   6.056   7.687
  203ETH      H  817   4.613   6.115   7.591
  204ETH      O  818   6.326   2.878   6.870
  204ETH      C  819   6.245   3.015   6.691
  204ETH      C  820   6.230   2.886   6.769
  204ETH      H  821   6.230   3.103   6.759
  205ETH      O  822   7.366   7.760   5.346
  205ETH      C  823   7.221   7.596   5.248
  205ETH      C  824   7.291   7.729   5.231
  205ETH      H  825   7.296   7.514   5.263
  206ETH      O  826   0.805   1.957   6.707
  206ETH      C  827   0.659   1.985   6.896
  206ETH      C  828   0.740   2.053   6.786
  206ETH      H  829   0.581   1.921   6.850
  207ETH      O  830   0.359   3.666   2.254
  207ETH      C  831   0.516   3.672   2.072
  207ETH      C  832   0.390   3.731   2.133
  207ETH      H  833   0.603   3.686   2.141
  208ETH      O  834   7.108   3.776   5.288
  208ETH      C  835   6.986   3.889   5.461
  208ETH      C  836   7.024   3.756   5.398
  208ETH      H  837   7.078   3.942   5.497
  209ETH      O  838   1.946   6.728   5.772
  209ETH      C  839   2.085   6.553   5.684
  209ETH      C  840   1.945   6.610   5.697
  209ETH      H  841   2.151   6.626   5.631
  210ETH      O  842   6.147   1.373   2.493
  210ETH      C  843   6.137   1.135   2.522
  210ETH      C  844   6.192   1.267   2.573
  210ETH      H  845   6.025   1.136   2.527
  211ETH      O  846   3.102   7.570   3.879
  211ETH      C  847   3.105   7.547   3.639
  211ETH      C  848   3.186   7.569   3.766
  211ETH      H  849   3.053   7.449   3.644
  212ETH      O  850   1.928   7.120   5.532
  212ETH      C  851   1.749   7.016   5.655
  212ETH      C  852   1.792   7.130   5.563
  212ETH      H  853   1.765   6.918   5.604
  213ETH      O  854   0.945   0.719   2.687
  213ETH      C  855   0.793   0.661   2.511
  213ETH      C  856   0.810   0.696   2.658
  213ETH      H  857   0.827   0.746   2.447
  214ETH      O  858   0.340   1.093   3.459
  214ETH      C  859   0.248   1.043   3.243
  214ETH      C  860   0.372   1.080   3.323
  214ETH      H  861   0.207   0.945   3.278
  215ETH      O  862   4.908   1.391   0.356
  215ETH      C  863   4.868   1.372   0.592
  215ETH      C  864   4.808   1.386   0.454
  215ETH      H  865   4.926   1.277   0.599
  216ETH      O  866   3.579   0.407   6.489
  216ETH      C  867   3.459   0.199   6.496
  216ETH      C  868   3.500   0.325   6.571
  216ETH      H  869   3.399   0.226   6.406
  217ETH      O  870   7.322   4.840   3.456
  217ETH      C  871   7.214   4.986   3.613
  217ETH      C  872   7.198   4.873   3.512
  217ETH      H  873   7.281   4.953   3.696
  218ETH      O  874   5.212   1.141   5.288
  218ETH      C  875   5.217   1.172   5.050
  218ETH      C  876   5.142   1.197   5.180
  218ETH      H  877   5.317   1.221   5.054
  219ETH      O  878   5.705   7.316   0.516
  219ETH      C  879   5.484   7.235   0.568
  219ETH      C  880   5.603   7.229   0.473
  219ETH      H  881   5.516   7.202   0.670
  220ETH      O  882   4.991   0.574   7.380
  220ETH      C  883   5.132   0.682   7.541
  220ETH      C  884   5.007   0.691   7.455
  220ETH      H  885   5.123   0.597   7.612
  221ETH      O  886   2.617   1.424   3.875
  221ETH      C  887   2.586   1.217   3.992
  221ETH      C  888   2.528   1.318   3.894
  221ETH      H  889   2.681   1.175   3.952
  222ETH      O  890   4.583   6.285   4.093
  222ETH      C  891   4.800   6.343   4.175
  222ETH      C  892   4.689   6.374   4.076
  222ETH      H  893   4.763   6.354   4.280
  223ETH      O  894   6.409   0.429   0.735
  223ETH      C  895   6.262   0.268   0.836
  223ETH      C  896   6.351   0.389   0.856
  223ETH      H  897   6.179   0.293   0.765
  224ETH      O  898   5.666   1.416   4.198
  224ETH      C  899   5.607   1.396   4.430
  224ETH      C  900   5.557   1.412   4.287
  224ETH      H  901   5.662   1.300   4.441
  225ETH      O  902   5.937   0.552   3.885
  225ETH      C  903   5.883   0.501   4.114
  225ETH      C  904   5.882   0.605   4.003
  225ETH      H  905   5.821   0.413   4.085
  226ETH      O  906   4.369   5.378   3.133
  226ETH      C  907   4.324   5.293   3.353
  226ETH      C  908   4.276   5.306   3.210
  226ETH      H  909   4.421   5.238   3.356
  227ETH      O  910   0.281   6.898   0.351
  227ETH      C  911   0.459   6.841   0.501
  227ETH      C  912   0.339   6.792   0.422
  227ETH      H  913   0.536   6.882   0.433
  228ETH      O  914   1.180   7.493   0.911
  228ETH      C  915   0.953   7.415   0.900
  228ETH      C  916   1.100   7.380   0.888
  228ETH      H  917   0.931   7.451   1.003
  229ETH      O  918   4.940   2.892   4.931
  229ETH      C  919   4.942   3.097   5.055
  229ETH      C  920   4.987   2.952   5.048
  229ETH      H  921   4.984   3.154   4.968
  230ETH      O  922   4.391   6.653   0.407
  230ETH      C  923   4.553   6.664   0.230
  230ETH      C  924   4.419   6.609   0.277
  230ETH      H  925   4.549   6.776   0.228
  231ETH      O  926   5.898   5.704   1.247
  231ETH      C  927   5.779   5.852   1.100
  231ETH      C  928   5.817   5.819   1.243
  231ETH      H  929   5.870   5.873   1.040
  232ETH      O  930   4.480   6.174   3.757
  232ETH      C  931   4.523   6.206   3.523
  232ETH      C  932   4.444   6.251   3.645
  232ETH      H  933   4.632   6.220   3.540
  233ETH      O  934   3.010   0.139   5.530
  233ETH      C  935   2.887   0.205   5.725
  233ETH      C  936   3.019   0.157   5.668
  233ETH      H  937   2.859   0.303   5.680
  234ETH      O  938   6.771   1.642   7.515
  234ETH      C  939   6.803   1.596   7.282
  234ETH      C  940   6.863   1.653   7.410
  234ETH      H  941   6.779   1.488   7.295
  235ETH      O  942   0.266   7.635   2.325
  235ETH      C  943   0.121   7.696   2.144
  235ETH      C  944   0.223   7.743   2.247
  235ETH      H  945   0.167   7.621   2.076
  236ETH      O  946   6.126   4.836   7.697
  236ETH      C  947   6.268   4.872   7.887
  236ETH      C  948   6.128   4.880   7.829
  236ETH      H  949   6.303   4.766   7.886
  237ETH      O  950   0.787   5.188   1.728
  237ETH      C  951   0.923   5.086   1.897
  237ETH      C  952   0.832   5.202   1.860
  237ETH      H  953   0.867   4.990   1.890
  238ETH      O  954   7.648   5.190   0.223
  238ETH      C  955   7.727   5.174   0.449
  238ETH      C  956   7.649   5.108   0.337
  238ETH      H  957   7.833   5.189   0.418
  239ETH      O  958   7.570   4.809   3.605
  239ETH      C  959   7.666   4.818   3.385
  239ETH      C  960   7.545   4.782   3.469
  239ETH      H  961   7.688   4.927   3.394
  240ETH      O  962   2.148   1.983   7.684
  240ETH      C  963   2.176   1.830   7.867
  240ETH      C  964   2.086   1.932   7.799
  240ETH      H  965   2.195   1.744   7.798
  241ETH      O  966   2.162   5.743   1.943
  241ETH      C  967   2.051   5.561   2.053
  241ETH      C  968   2.158   5.604   1.954
  241ETH      H  969   2.074   5.602   2.154
  242ETH      O  970   4.240   4.365   6.291
  242ETH      C  971   4.151   4.214   6.126
  242ETH      C  972   4.275   4.273   6.191
  242ETH      H  973   4.091   4.159   6.203
  243ETH      O  974   7.148   0.595   5.487
  243ETH      C  975   7.349   0.571   5.358
  243ETH      C  976   7.198   0.590   5.356
  243ETH      H  977   7.397   0.658   5.409
  244ETH      O  978   5.500   6.033   1.158
  244ETH      C  979   5.619   5.976   1.358
  244ETH      C  980   5.624   5.990   1.207
  244ETH      H  981   5.596   6.074   1.405
  245ETH      O  982   2.391   2.421   3.443
  245ETH      C  983   2.392   2.278   3.250
  245ETH      C  984   2.405   2.288   3.401
  245ETH      H  985   2.291   2.313   3.218
  246ETH      O  986   4.912   6.676   3.085
  246ETH      C  987   4.677   6.677   3.135
  246ETH      C  988   4.806   6.597   3.134
  246ETH      H  989   4.687   6.765   3.203
  247ETH      O  990   2.913   7.054   2.928
  247ETH      C  991   2.866   6.901   2.749
  247ETH      C  992   2.909   6.918   2.894
  247ETH      H  993   2.764   6.942   2.735
  248ETH      O  994   3.820   3.866   2.660
  248ETH      C  995   3.809   3.629   2.626
  248ETH      C  996   3.733   3.760   2.631
  248ETH      H  997   3.885   3.632   2.545
  249ETH      O  998   5.098   5.056   0.848
  249ETH      C  999   5.241   4.896   0.956
  249ETH      C 1000   5.231   5.028   0.882
  249ETH      H 1001   5.182   4.901   1.051
  250ETH      O 1002   7.517   0.536   2.674
  250ETH      C 1003   7.337   0.466   2.532
  250ETH      C 1004   7.381   0.505   2.672
  250ETH      H 1005   7.353   0.551   2.462
  251ETH      O 1006   1.813   3.331   2.652
  251ETH      C 1007   1.806   3.108   2.743
  251ETH      C 1008   1.852   3.252   2.762
  251ETH      H 1009   1.694   3.105   2.737
  252ETH      O 1010   6.947   7.276   0.428
  252ETH      C 1011   7.075   7.466   0.357
  252ETH      C 1012   7.068   7.315   0.369
  252ETH      H 1013   6.993   7.503   0.291
  253ETH      O 1014   6.916   6.191   5.985
  253ETH      C 1015   6.743   6.318   6.092
  253ETH      C 1016   6.788   6.182   6.041
  253ETH      H 1017   6.812   6.354   6.172
  254ETH      O 1018   4.171   0.305   2.540
  254ETH      C 1019   4.176   0.508   2.669
  254ETH      C 1020   4.167   0.356   2.671
  254ETH      H 1021   4.274   0.539   2.624
  255ETH      O 1022   7.659   7.149   1.095
  255ETH      C 1023   7.780   7.282   0.936
  255ETH      C 1024   7.689   7.163   0.959
  255ETH      H 1025   7.729   7.376   0.969
  256ETH      O 1026   3.246   5.190   3.543
  256ETH      C 1027   3.244   5.008   3.386
  256ETH      C 1028   3.304   5.065   3.514
  256ETH      H 1029   3.134   4.992   3.400
  257ETH      O 1030   1.098   0.345   2.530
  257ETH      C 1031   1.146   0.306   2.298
  257ETH      C 1032   1.200   0.346   2.434
  257ETH      H 1033   1.104   0.203   2.302
  258ETH      O 1034   6.897   0.522   2.135
  258ETH      C 1035   7.016   0.355   2.260
  258ETH      C 1036   6.888   0.436   2.245
  258ETH      H 1037   7.032   0.292   2.170
  259ETH      O 1038   4.873   1.430   2.685
  259ETH      C 1039   4.746   1.610   2.590
  259ETH      C 1040   4.778   1.462   2.587
  259ETH      H 1041   4.702   1.638   2.689
  260ETH      O 1042   2.385   0.594   7.813
  260ETH      C 1043   2.575   0.740   7.821
  260ETH      C 1044   2.502   0.631   7.745
  260ETH      H 1045   2.511   0.830   7.830
  261ETH      O 1046   7.970   4.517   1.084
  261ETH      C 1047   7.820   4.540   0.897
  261ETH      C 1048   7.843   4.562   1.046
  261ETH      H 1049   7.895   4.598   0.838
  262ETH      O 1050   1.538   5.724   1.882
  262ETH      C 1051   1.574   5.904   2.037
  262ETH      C 1052   1.575   5.859   1.892
  262ETH      H 1053   1.471   5.895   2.079
  263ETH      O 1054   1.311   6.305   5.314
  263ETH      C 1055   1.450   6.365   5.500
  263ETH      C 1056   1.419   6.386   5.353
  263ETH      H 1057   1.362   6.395   5.562
  264ETH      O 1058   0.672   7.050  -0.067
  264ETH      C 1059   0.695   7.114   0.163
  264ETH      C 1060   0.694   7.159   0.018
  264ETH      H 1061   0.596   7.071   0.190
  265ETH      O 1062   4.569   7.159   1.998
  265ETH      C 1063   4.556   7.395   1.954
  265ETH      C 1064   4.642   7.279   2.003
  265ETH      H 1065   4.526   7.378   1.848
  266ETH      O 1066   6.664   2.063   5.331
  266ETH      C 1067   6.455   1.990   5.238
  266ETH      C 1068   6.607   1.986   5.230
  266ETH      H 1069   6.421   1.948   5.336
  267ETH      O 1070   5.199   6.229   5.744
  267ETH      C 1071   5.071   6.161   5.935
  267ETH      C 1072   5.197   6.140   5.852
  267ETH      H 1073   5.071   6.265   5.977
  268ETH      O 1074   6.034   1.738   1.214
  268ETH      C 1075   5.880   1.684   1.038
  268ETH      C 1076   5.935   1.791   1.131
  268ETH      H 1077   5.962   1.645   0.972
  269ETH      O 1078   4.373   1.801   7.459
  269ETH      C 1079   4.573   1.820   7.589
  269ETH      C 1080   4.497   1.866   7.466
  269ETH      H 1081   4.516   1.846   7.681
  270ETH      O 1082   0.666   7.420   4.547
  270ETH      C 1083   0.757   7.502   4.340
  270ETH      C 1084   0.746   7.521   4.490
  270ETH      H 1085   0.806   7.404   4.318
  271ETH      O 1086   0.860   1.184   7.231
  271ETH      C 1087   0.834   1.196   6.993
  271ETH      C 1088   0.925   1.220   7.112
  271ETH      H 1089   0.808   1.088   6.985
  272ETH      O 1090   3.789   1.467   1.964
  272ETH      C 1091   4.012   1.542   1.918
  272ETH      C 1092   3.888   1.474   1.865
  272ETH      H 1093   3.988   1.647   1.949
  273ETH      O 1094   2.916   2.950   3.178
  273ETH      C 1095   2.838   2.796   3.011
  273ETH      C 1096   2.917   2.815   3.139
  273ETH      H 1097   2.732   2.825   3.027
  274ETH      O 1098   1.424   3.931   2.889
  274ETH      C 1099   1.364   3.857   2.669
  274ETH      C 1100   1.416   3.818   2.807
  274ETH      H 1101   1.261   3.899   2.678
  275ETH      O 1102   5.729   1.739   2.018
  275ETH      C 1103   5.608   1.811   2.212
  275ETH      C 1104   5.730   1.830   2.124
  275ETH      H 1105   5.515   1.830   2.153
  276ETH      O 1106   0.879   5.124   6.130
  276ETH      C 1107   0.842   5.100   5.894
  276ETH      C 1108   0.823   5.040   6.032
  276ETH      H 1109   0.791   5.199   5.887
  277ETH      O 1110   5.648   5.460   0.348
  277ETH      C 1111   5.523   5.368   0.531
  277ETH      C 1112   5.525   5.466   0.415
  277ETH      H 1113   5.536   5.264   0.494
  278ETH      O 1114   4.844   0.158   4.179
  278ETH      C 1115   4.843   0.131   3.941
  278ETH      C 1116   4.776   0.193   4.062
  278ETH      H 1117   4.948   0.169   3.932
  279ETH      O 1118   3.397   1.784   1.394
  279ETH      C 1119   3.500   1.570   1.427
  279ETH      C 1120   3.496   1.716   1.467
  279ETH      H 1121   3.402   1.521   1.450
  280ETH      O 1122   6.672   7.054   2.351
  280ETH      C 1123   6.873   6.927   2.312
  280ETH      C 1124   6.745   6.985   2.253
  280ETH      H 1125   6.937   7.010   2.350
  281ETH      O 1126   3.943   0.532   7.789
  281ETH      C 1127   3.736   0.428   7.852
  281ETH      C 1128   3.836   0.456   7.741
  281ETH      H 1129   3.785   0.370   7.933
  282ETH      O 1130   0.606   5.124   6.576
  282ETH      C 1131   0.536   5.241   6.378
  282ETH      C 1132   0.494   5.178   6.510
  282ETH      H 1133   0.608   5.324   6.397
  283ETH      O 1134   2.252   7.499   6.171
  283ETH      C 1135   2.478   7.548   6.236
  283ETH      C 1136   2.330   7.565   6.267
  283ETH      H 1137   2.505   7.440   6.239
  284ETH      O 1138   2.298   3.212   3.963
  284ETH      C 1139   2.342   3.085   3.764
  284ETH      C 1140   2.289   3.084   3.906
  284ETH      H 1141   2.281   3.154   3.701
  285ETH      O 1142   3.172   1.660   5.563
  285ETH      C 1143   3.219   1.643   5.798
  285ETH      C 1144   3.274   1.671   5.659
  285ETH      H 1145   3.140   1.718   5.824
  286ETH      O 1146   3.369   3.493   7.487
  286ETH      C 1147   3.460   3.489   7.265
  286ETH      C 1148   3.372   3.562   7.365
  286ETH      H 1149   3.565   3.483   7.303
  287ETH      O 1150   6.428   1.576   6.506
  287ETH      C 1151   6.560   1.376   6.525
  287ETH      C 1152   6.535   1.506   6.449
  287ETH      H 1153   6.587   1.398   6.631
  288ETH      O 1154   0.539   4.659   1.146
  288ETH      C 1155   0.519   4.696   0.910
  288ETH      C 1156   0.573   4.607   1.021
  288ETH      H 1157   0.408   4.701   0.916
  289ETH      O 1158   4.706   2.347   7.309
  289ETH      C 1159   4.589   2.284   7.509
  289ETH      C 1160   4.579   2.341   7.369
  289ETH      H 1161   4.629   2.180   7.505
  290ETH      O 1162   2.551   6.717   4.290
  290ETH      C 1163   2.535   6.671   4.525
  290ETH      C 1164   2.465   6.669   4.390
  290ETH      H 1165   2.624   6.605   4.523
  291ETH      O 1166   2.707   2.146   5.053
  291ETH      C 1167   2.497   2.151   5.168
  291ETH      C 1168   2.647   2.129   5.178
  291ETH      H 1169   2.476   2.255   5.134
  292ETH      O 1170   5.054   4.546   7.102
  292ETH      C 1171   5.019   4.591   7.335
  292ETH      C 1172   5.050   4.648   7.198
  292ETH      H 1173   4.919   4.542   7.335
  293ETH      O 1174   3.783   0.846   2.693
  293ETH      C 1175   3.700   0.703   2.867
  293ETH      C 1176   3.672   0.771   2.734
  293ETH      H 1177   3.786   0.633   2.858
  294ETH      O 1178   3.331   0.774   4.177
  294ETH      C 1179   3.411   0.843   3.961
  294ETH      C 1180   3.302   0.772   4.040
  294ETH      H 1181   3.417   0.950   3.993
  295ETH      O 1182   3.398   6.733   7.117
  295ETH      C 1183   3.307   6.636   7.317
  295ETH      C 1184   3.283   6.727   7.198
  295ETH      H 1185   3.329   6.532   7.283
  296ETH      O 1186   1.770   7.452  -0.054
  296ETH      C 1187   1.601   7.558   0.080
  296ETH      C 1188   1.634   7.486  -0.050
  296ETH      H 1189   1.622   7.492   0.167
  297ETH      O 1190   7.939   0.054   3.123
  297ETH      C 1191   7.753   0.089   2.976
  297ETH      C 1192   7.896   0.126   3.011
  297ETH      H 1193   7.747  -0.020   2.950
  298ETH      O 1194   0.371   5.393   5.716
  298ETH      C 1195   0.263   5.295   5.907
  298ETH      C 1196   0.317   5.421   5.842
  298ETH      H 1197   0.181   5.252   5.844
  299ETH      O 1198   6.217   2.298   3.978
  299ETH      C 1199   6.319   2.085   3.933
  299ETH      C 1200   6.325   2.216   4.012
  299ETH      H 1201   6.226   2.030   3.959
  300ETH      O 1202   0.173   3.423   3.076
  300ETH      C 1203   0.272   3.580   2.924
  300ETH      C 1204   0.153   3.547   3.013
  300ETH      H 1205   0.365   3.588   2.985
  301ETH      O 1206   6.618   4.762   3.959
  301ETH      C 1207   6.688   4.917   3.789
  301ETH      C 1208   6.623   4.898   3.926
  301ETH      H 1209   6.792   4.879   3.791
  302ETH      O 1210   6.148   5.668   5.542
  302ETH      C 1211   6.175   5.802   5.739
  302ETH      C 1212   6.231   5.763   5.604
  302ETH      H 1213   6.074   5.848   5.727
  303ETH      O 1214   4.568   4.019   5.021
  303ETH      C 1215   4.626   4.018   5.254
  303ETH      C 1216   4.670   4.049   5.112
  303ETH      H 1217   4.538   4.082   5.281
  304ETH      O 1218   2.913   4.589   6.091
  304ETH      C 1219   2.750   4.660   5.930
  304ETH      C 1220   2.866   4.700   6.019
  304ETH      H 1221   2.783   4.584   5.856
  305ETH      O 1222   4.783   1.223   2.380
  305ETH      C 1223   4.791   1.231   2.140
  305ETH      C 1224   4.865   1.255   2.271
  305ETH      H 1225   4.764   1.124   2.131
  306ETH      O 1226   7.880   7.316   7.540
  306ETH      C 1227   7.853   7.310   7.302
  306ETH      C 1228   7.795   7.273   7.438
  306ETH      H 1229   7.863   7.421   7.293
  307ETH      O 1230   0.650   4.341   3.748
  307ETH      C 1231   0.569   4.249   3.541
  307ETH      C 1232   0.645   4.224   3.671
  307ETH      H 1233   0.464   4.279   3.564
  308ETH      O 1234   2.522   5.921   5.622
  308ETH      C 1235   2.433   5.973   5.839
  308ETH      C 1236   2.549   5.915   5.760
  308ETH      H 1237   2.419   6.081   5.812
  309ETH      O 1238   3.422   2.115   4.722
  309ETH      C 1239   3.304   2.048   4.920
  309ETH      C 1240   3.316   2.150   4.808
  309ETH      H 1241   3.282   1.947   4.878
  310ETH      O 1242   5.091   3.710   3.619
  310ETH      C 1243   5.278   3.817   3.513
  310ETH      C 1244   5.141   3.753   3.495
  310ETH      H 1245   5.270   3.906   3.579
  311ETH      O 1246   2.005   6.490  -0.011
  311ETH      C 1247   1.997   6.709   0.087
  311ETH      C 1248   1.939   6.614  -0.016
  311ETH      H 1249   1.983   6.668   0.189
  312ETH      O 1250   7.448   6.257   6.952
  312ETH      C 1251   7.283   6.331   6.793
  312ETH      C 1252   7.321   6.229   6.900
  312ETH      H 1253   7.279   6.433   6.838
  313ETH      O 1254   6.597   4.499   7.468
  313ETH      C 1255   6.767   4.450   7.630
  313ETH      C 1256   6.733   4.470   7.483
  313ETH      H 1257   6.746   4.544   7.687
  314ETH      O 1258   3.050   0.692   1.612
  314ETH      C 1259   3.086   0.924   1.560
  314ETH      C 1260   3.063   0.820   1.668
  314ETH      H 1261   3.181   0.902   1.506
  315ETH      O 1262   5.407   6.692   4.059
  315ETH      C 1263   5.332   6.754   4.279
  315ETH      C 1264   5.450   6.718   4.190
  315ETH      H 1265   5.283   6.846   4.241
  316ETH      O 1266   1.561   6.209   0.436
  316ETH      C 1267   1.662   6.090   0.619
  316ETH      C 1268   1.618   6.225   0.564
  316ETH      H 1269   1.574   6.022   0.629
  317ETH      O 1270   4.227   2.541   2.597
  317ETH      C 1271   4.410   2.469   2.735
  317ETH      C 1272   4.269   2.526   2.729
  317ETH      H 1273   4.411   2.367   2.688
  318ETH      O 1274   5.249   7.803   0.434
  318ETH      C 1275   5.313   7.583   0.504
  318ETH      C 1276   5.237   7.710   0.538
  318ETH      H 1277   5.270   7.536   0.412
  319ETH      O 1278   1.538   3.417   5.626
  319ETH      C 1279   1.444   3.347   5.416
  319ETH      C 1280   1.525   3.452   5.490
  319ETH      H 1281   1.496   3.248   5.421
  320ETH      O 1282   3.664   6.933   3.228
  320ETH      C 1283   3.660   6.772   3.406
  320ETH      C 1284   3.745   6.849   3.306
  320ETH      H 1285   3.609   6.843   3.475
  321ETH      O 1286   5.947   3.456   6.741
  321ETH      C 1287   5.831   3.329   6.573
  321ETH      C 1288   5.856   3.352   6.722
  321ETH      H 1289   5.788   3.421   6.528
  322ETH      O 1290   4.618   7.288   5.857
  322ETH      C 1291   4.685   7.426   6.041
  322ETH      C 1292   4.614   7.418   5.907
  322ETH      H 1293   4.634   7.361   6.115
  323ETH      O 1294   6.000   0.092   0.170
  323ETH      C 1295   5.996   0.029   0.402
  323ETH      C 1296   5.924   0.098   0.288
  323ETH      H 1297   6.012  -0.078   0.378
  324ETH      O 1298   5.551   4.124   2.074
  324ETH      C 1299   5.564   4.023   2.291
  324ETH      C 1300   5.632   4.110   2.187
  324ETH      H 1301   5.469   4.072   2.324
  325ETH      O 1302   1.500   0.695   0.232
  325ETH      C 1303   1.383   0.595   0.417
  325ETH      C 1304   1.501   0.681   0.371
  325ETH      H 1305   1.287   0.645   0.389
  326ETH      O 1306   3.366   0.557   3.924
  326ETH      C 1307   3.241   0.574   3.719
  326ETH      C 1308   3.254   0.507   3.855
  326ETH      H 1309   3.227   0.683   3.731
  327ETH      O 1310   2.264   4.360   3.858
  327ETH      C 1311   2.145   4.495   4.017
  327ETH      C 1312   2.150   4.439   3.876
  327ETH      H 1313   2.140   4.412   4.091
  328ETH      O 1314   5.405   2.979   0.567
  328ETH      C 1315   5.252   3.068   0.729
  328ETH      C 1316   5.269   2.994   0.598
  328ETH      H 1317   5.299   3.010   0.812
  329ETH      O 1318   2.314   3.548   4.562
  329ETH      C 1319   2.434   3.584   4.767
  329ETH      C 1320   2.299   3.574   4.699
  329ETH      H 1321   2.489   3.488   4.757
  330ETH      O 1322   0.813   2.284   5.129
  330ETH      C 1323   0.808   2.160   4.923
  330ETH      C 1324   0.864   2.170   5.065
  330ETH      H 1325   0.697   2.151   4.927
  331ETH      O 1326   0.180   4.950   0.817
  331ETH      C 1327   0.250   5.075   0.624
  331ETH      C 1328   0.187   5.079   0.762
  331ETH      H 1329   0.354   5.036   0.630
  332ETH      O 1330   6.746   3.929   2.540
  332ETH      C 1331   6.767   3.946   2.301
  332ETH      C 1332   6.760   4.020   2.434
  332ETH      H 1333   6.856   3.878   2.300
  333ETH      O 1334   6.219   3.333   5.935
  333ETH      C 1335   6.225   3.359   5.697
  333ETH      C 1336   6.234   3.263   5.815
  333ETH      H 1337   6.125   3.409   5.695
  334ETH      O 1338   5.750   2.324   2.872
  334ETH      C 1339   5.817   2.373   2.646
  334ETH      C 1340   5.824   2.413   2.792
  334ETH      H 1341   5.860   2.271   2.632
  335ETH      O 1342   1.510   5.263   0.426
  335ETH      C 1343   1.364   5.081   0.483
  335ETH      C 1344   1.437   5.206   0.531
  335ETH      H 1345   1.292   5.107   0.402
  336ETH      O 1346   6.151   0.739   1.756
  336ETH      C 1347   6.007   0.548   1.733
  336ETH      C 1348   6.022   0.691   1.783
  336ETH      H 1349   6.022   0.545   1.623
  337ETH      O 1350   2.078   1.313   3.813
  337ETH      C 1351   2.204   1.440   3.653
  337ETH      C 1352   2.191   1.395   3.797
  337ETH      H 1353   2.217   1.352   3.586
  338ETH      O 1354   1.320   4.348   2.109
  338ETH      C 1355   1.426   4.528   1.991
  338ETH      C 1356   1.389   4.468   2.125
  338ETH      H 1357   1.494   4.458   1.935
  339ETH      O 1358   2.190   5.311   4.778
  339ETH      C 1359   2.251   5.300   5.010
  339ETH      C 1360   2.252   5.230   4.875
  339ETH      H 1361   2.309   5.395   5.004
  340ETH      O 1362   7.487   3.658   0.400
  340ETH      C 1363   7.598   3.457   0.331
  340ETH      C 1364   7.466   3.523   0.370
  340ETH      H 1365   7.639   3.506   0.240
  341ETH      O 1366   2.734   6.847   5.558
  341ETH      C 1367   2.680   6.895   5.329
  341ETH      C 1368   2.710   6.951   5.467
  341ETH      H 1369   2.768   6.838   5.292
  342ETH      O 1370   3.893   5.585   2.126
  342ETH      C 1371   4.024   5.785   2.139
  342ETH      C 1372   3.972   5.662   2.212
  342ETH      H 1373   4.088   5.755   2.053
  343ETH      O 1374   6.197   0.221   3.754
  343ETH      C 1375   5.980   0.323   3.760
  343ETH      C 1376   6.131   0.344   3.756
  343ETH      H 1377   5.947   0.269   3.669
  344ETH      O 1378   0.996   3.638   0.959
  344ETH      C 1379   1.054   3.548   1.174
  344ETH      C 1380   1.014   3.518   1.030
  344ETH      H 1381   1.151   3.603   1.176
  345ETH      O 1382   0.145   6.555   1.366
  345ETH      C 1383   0.171   6.721   1.537
  345ETH      C 1384   0.095   6.676   1.414
  345ETH      H 1385   0.160   6.645   1.618
  346ETH      O 1386   3.266   7.516   1.981
  346ETH      C 1387   3.174   7.397   1.793
  346ETH      C 1388   3.259   7.514   1.841
  346ETH      H 1389   3.220   7.301   1.826
  347ETH      O 1390   1.915   3.369   7.468
  347ETH      C 1391   1.966   3.297   7.691
  347ETH      C 1392   1.972   3.266   7.543
  347ETH      H 1393   2.023   3.390   7.713
  348ETH      O 1394   0.538   0.831   6.054
  348ETH      C 1395   0.644   0.966   5.886
  348ETH      C 1396   0.648   0.914   6.029
  348ETH      H 1397   0.649   0.881   5.814
  349ETH      O 1398   4.835   7.002   7.477
  349ETH      C 1399   4.967   7.202   7.460
  349ETH      C 1400   4.836   7.139   7.505
  349ETH      H 1401   5.052   7.156   7.515
  350ETH      O 1402   2.850   3.377   3.969
  350ETH      C 1403   2.792   3.239   4.157
  350ETH      C 1404   2.872   3.358   4.106
  350ETH      H 1405   2.683   3.257   4.142
  351ETH      O 1406   0.042   3.237   0.354
  351ETH      C 1407   0.063   3.333   0.134
  351ETH      C 1408   0.050   3.206   0.217
  351ETH      H 1409  -0.026   3.398   0.149
  352ETH      O 1410   3.719   1.734   7.730
  352ETH      C 1411   3.685   1.679   7.499
  352ETH      C 1412   3.744   1.637   7.632
  352ETH      H 1413   3.575   1.690   7.508
  353ETH      O 1414   2.238   4.003   3.794
  353ETH      C 1415   2.371   4.203   3.789
  353ETH      C 1416   2.254   4.126   3.729
  353ETH      H 1417   2.352   4.224   3.897
  354ETH      O 1418   7.720   5.550   0.340
  354ETH      C 1419   7.721   5.536   0.579
  354ETH      C 1420   7.749   5.466   0.448
  354ETH      H 1421   7.786   5.626   0.589
  355ETH      O 1422   3.406   6.172   2.352
  355ETH      C 1423   3.279   6.015   2.222
  355ETH      C 1424   3.276   6.135   2.316
  355ETH      H 1425   3.333   6.042   2.128
  356ETH      O 1426   1.803   5.156   0.324
  356ETH      C 1427   1.675   5.016   0.472
  356ETH      C 1428   1.808   5.040   0.403
  356ETH      H 1429   1.651   5.101   0.539
  357ETH      O 1430   2.021   4.000   1.978
  357ETH      C 1431   1.973   4.076   2.200
  357ETH      C 1432   2.042   3.972   2.113
  357ETH      H 1433   2.015   4.177   2.180
  358ETH      O 1434   4.610   0.598   7.023
  358ETH      C 1435   4.711   0.716   6.840
  358ETH      C 1436   4.585   0.654   6.897
  358ETH      H 1437   4.747   0.798   6.906
  359ETH      O 1438   7.771   0.196   2.556
  359ETH      C 1439   7.770   0.159   2.319
  359ETH      C 1440   7.697   0.216   2.439
  359ETH      H 1441   7.869   0.211   2.306
  360ETH      O 1442   5.306   0.570   3.001
  360ETH      C 1443   5.248   0.557   2.768
  360ETH      C 1444   5.209   0.523   2.911
  360ETH      H 1445   5.254   0.668   2.756
  361ETH      O 1446   0.065   6.403   5.286
  361ETH      C 1447   0.058   6.302   5.504
  361ETH      C 1448  -0.020   6.370   5.392
  361ETH      H 1449   0.104   6.208   5.467
  362ETH      O 1450   0.764   5.291   0.653
  362ETH      C 1451   0.831   5.366   0.870
  362ETH      C 1452   0.757   5.399   0.741
  362ETH      H 1453   0.784   5.278   0.920
  363ETH      O 1454   2.864   2.306   1.668
  363ETH      C 1455   2.964   2.286   1.885
  363ETH      C 1456   2.861   2.232   1.786
  363ETH      H 1457   3.066   2.277   1.842
  364ETH      O 1458   7.190   5.832   0.458
  364ETH      C 1459   7.190   5.840   0.218
  364ETH      C 1460   7.260   5.790   0.344
  364ETH      H 1461   7.087   5.798   0.213
  365ETH      O 1462   6.915   3.703   4.383
  365ETH      C 1463   7.066   3.583   4.527
  365ETH      C 1464   6.926   3.637   4.506
  365ETH      H 1465   7.091   3.509   4.447
  366ETH      O 1466   1.418   2.582   2.290
  366ETH      C 1467   1.335   2.565   2.065
  366ETH      C 1468   1.366   2.656   2.183
  366ETH      H 1469   1.429   2.515   2.030
  367ETH      O 1470   6.200   6.428   3.914
  367ETH      C 1471   6.436   6.410   3.872
  367ETH      C 1472   6.298   6.442   3.815
  367ETH      H 1473   6.460   6.480   3.955
  368ETH      O 1474   1.048   6.983   4.905
  368ETH      C 1475   1.099   6.890   4.689
  368ETH      C 1476   1.068   6.863   4.835
  368ETH      H 1477   1.012   6.942   4.641
  369ETH      O 1478   4.848   1.092   3.368
  369ETH      C 1479   4.756   1.020   3.159
  369ETH      C 1480   4.831   1.129   3.234
  369ETH      H 1481   4.814   0.925   3.161
  370ETH      O 1482   0.471   7.187   0.929
  370ETH      C 1483   0.595   7.085   1.107
  370ETH      C 1484   0.519   7.065   0.976
  370ETH      H 1485   0.683   7.152   1.090
  371ETH      O 1486   5.260   0.485   0.503
  371ETH      C 1487   5.113   0.459   0.691
  371ETH      C 1488   5.132   0.516   0.552
  371ETH      H 1489   5.121   0.348   0.688
  372ETH      O 1490   3.537   7.699   0.589
  372ETH      C 1491   3.712   7.777   0.734
  372ETH      C 1492   3.563   7.779   0.702
  372ETH      H 1493   3.744   7.674   0.758
  373ETH      O 1494   3.951   7.157   6.723
  373ETH      C 1495   3.935   7.363   6.845
  373ETH      C 1496   3.863   7.259   6.762
  373ETH      H 1497   3.976   7.316   6.938
  374ETH      O 1498   7.485   5.463   3.399
  374ETH      C 1499   7.654   5.617   3.326
  374ETH      C 1500   7.623   5.480   3.385
  374ETH      H 1501   7.609   5.626   3.225
  375ETH      O 1502   1.645   0.496   3.553
  375ETH      C 1503   1.755   0.707   3.522
  375ETH      C 1504   1.712   0.576   3.459
  375ETH      H 1505   1.665   0.764   3.557
  376ETH      O 1506   3.489   0.780   4.616
  376ETH      C 1507   3.691   0.777   4.486
  376ETH      C 1508   3.572   0.698   4.539
  376ETH      H 1509   3.655   0.860   4.420
  377ETH      O 1510   2.391   7.270   5.294
  377ETH      C 1511   2.370   7.313   5.529
  377ETH      C 1512   2.416   7.365   5.394
  377ETH      H 1513   2.260   7.295   5.527
  378ETH      O 1514   0.331   2.231   2.244
  378ETH      C 1515   0.342   2.069   2.421
  378ETH      C 1516   0.260   2.177   2.352
  378ETH      H 1517   0.364   1.986   2.349
  379ETH      O 1518   1.082   0.679   0.573
  379ETH      C 1519   0.890   0.632   0.437
  379ETH      C 1520   1.014   0.718   0.457
  379ETH      H 1521   0.920   0.525   0.424
  380ETH      O 1522   2.922   0.396   1.802
  380ETH      C 1523   2.731   0.253   1.774
  380ETH      C 1524   2.877   0.264   1.815
  380ETH      H 1525   2.668   0.317   1.839
  381ETH      O 1526   7.128   4.633   7.414
  381ETH      C 1527   7.114   4.858   7.498
  381ETH      C 1528   7.198   4.732   7.485
  381ETH      H 1529   7.092   4.899   7.397
  382ETH      O 1530   5.857   3.232   4.326
  382ETH      C 1531   5.794   3.100   4.135
  382ETH      C 1532   5.903   3.135   4.236
  382ETH      H 1533   5.706   3.058   4.188
  383ETH      O 1534   1.291   3.666   4.994
  383ETH      C 1535   1.199   3.548   4.806
  383ETH      C 1536   1.318   3.623   4.864
  383ETH      H 1537   1.177   3.458   4.868
  384ETH      O 1538   2.854   4.170   2.130
  384ETH      C 1539   2.870   3.961   2.248
  384ETH      C 1540   2.834   4.031   2.118
  384ETH      H 1541   2.977   3.977   2.272
  385ETH      O 1542   6.131   0.829   7.799
  385ETH      C 1543   6.036   0.648   7.672
  385ETH      C 1544   6.055   0.711   7.809
  385ETH      H 1545   5.981   0.718   7.605
  386ETH      O 1546   4.367   5.721   7.670
  386ETH      C 1547   4.292   5.614   7.870
  386ETH      C 1548   4.396   5.703   7.805
  386ETH      H 1549   4.191   5.662   7.864
  387ETH      O 1550   3.853   2.845   0.653
  387ETH      C 1551   3.893   2.863   0.889
  387ETH      C 1552   3.950   2.827   0.753
  387ETH      H 1553   3.863   2.970   0.891
  388ETH      O 1554   1.514   6.590   7.632
  388ETH      C 1555   1.575   6.744   7.805
  388ETH      C 1556   1.482   6.714   7.689
  388ETH      H 1557   1.564   6.667   7.885
  389ETH      O 1558   4.656   2.999   3.358
  389ETH      C 1559   4.788   2.872   3.203
  389ETH      C 1560   4.666   2.875   3.293
  389ETH      H 1561   4.779   2.951   3.124
  390ETH      O 1562   0.112   2.896   2.788
  390ETH      C 1563  -0.046   3.070   2.735
  390ETH      C 1564  -0.022   2.935   2.802
  390ETH      H 1565   0.017   3.148   2.783
  391ETH      O 1566   3.531   0.921   4.971
  391ETH      C 1567   3.642   0.726   4.886
  391ETH      C 1568   3.584   0.863   4.855
  391ETH      H 1569   3.725   0.735   4.960
  392ETH      O 1570   2.685   6.221   1.503
  392ETH      C 1571   2.797   6.354   1.338
  392ETH      C 1572   2.753   6.341   1.483
  392ETH      H 1573   2.867   6.271   1.312
  393ETH      O 1574   6.943   6.855   6.913
  393ETH      C 1575   6.905   7.091   6.926
  393ETH      C 1576   6.966   6.968   6.992
  393ETH      H 1577   6.952   7.109   6.827
  394ETH      O 1578   0.152   3.869   4.643
  394ETH      C 1579   0.274   3.948   4.453
  394ETH      C 1580   0.277   3.917   4.601
  394ETH      H 1581   0.252   3.856   4.394
  395ETH      O 1582   7.520   6.328   2.740
  395ETH      C 1583   7.337   6.423   2.863
  395ETH      C 1584   7.463   6.339   2.867
  395ETH      H 1585   7.362   6.526   2.828
  396ETH      O 1586   6.738   2.591   6.161
  396ETH      C 1587   6.674   2.708   5.961
  396ETH      C 1588   6.658   2.696   6.112
  396ETH      H 1589   6.780   2.732   5.936
  397ETH      O 1590   4.258   4.620   5.540
  397ETH      C 1591   4.132   4.730   5.368
  397ETH      C 1592   4.192   4.739   5.507
  397ETH      H 1593   4.212   4.714   5.292
  398ETH      O 1594   6.752   4.795   6.317
  398ETH      C 1595   6.694   4.937   6.502
  398ETH      C 1596   6.786   4.828   6.449
  398ETH      H 1597   6.705   5.029   6.440
  399ETH      O 1598   6.647   1.689   4.071
  399ETH      C 1599   6.858   1.674   3.957
  399ETH      C 1600   6.758   1.763   4.028
  399ETH      H 1601   6.896   1.595   4.027
  400ETH      O 1602   0.597   1.215   4.119
  400ETH      C 1603   0.504   1.203   3.898
  400ETH      C 1604   0.481   1.184   4.047
  400ETH      H 1605   0.529   1.310   3.877
  401ETH      O 1606   4.103   2.578   5.329
  401ETH      C 1607   4.238   2.695   5.168
  401ETH      C 1608   4.164   2.701   5.301
  401ETH      H 1609   4.319   2.618   5.173
  402ETH      O 1610   1.752   4.348   0.319
  402ETH      C 1611   1.779   4.343   0.558
  402ETH      C 1612   1.767   4.263   0.429
  402ETH      H 1613   1.870   4.408   0.553
  403ETH      O 1614   0.336   5.163   3.570
  403ETH      C 1615   0.213   5.106   3.767
  403ETH      C 1616   0.222   5.096   3.616
  403ETH      H 1617   0.301   5.057   3.814
  404ETH      O 1618   3.838   4.115   6.396
  404ETH      C 1619   3.794   4.065   6.166
  404ETH      C 1620   3.761   4.036   6.311
  404ETH      H 1621   3.771   4.172   6.142
  405ETH      O 1622   0.246   6.587   3.509
  405ETH      C 1623   0.361   6.591   3.720
  405ETH      C 1624   0.364   6.548   3.574
  405ETH      H 1625   0.354   6.702   3.727
  406ETH      O 1626   3.729   6.132   5.741
  406ETH      C 1627   3.552   6.035   5.610
  406ETH      C 1628   3.590   6.113   5.735
  406ETH      H 1629   3.581   6.093   5.519
  407ETH      O 1630   0.076   1.083   2.472
  407ETH      C 1631   0.288   1.192   2.447
  407ETH      C 1632   0.213   1.060   2.454
  407ETH      H 1633   0.253   1.252   2.360
  408ETH      O 1634   2.466   4.476   6.332
  408ETH      C 1635   2.408   4.684   6.225
  408ETH      C 1636   2.424   4.533   6.211
  408ETH      H 1637   2.330   4.706   6.302
  409ETH      O 1638   2.208   3.340   4.162
  409ETH      C 1639   2.295   3.290   4.381
  409ETH      C 1640   2.231   3.236   4.253
  409ETH      H 1641   2.393   3.337   4.357
  410ETH      O 1642   1.759   5.090   4.154
  410ETH      C 1643   1.819   5.037   3.928
  410ETH      C 1644   1.867   5.085   4.064
  410ETH      H 1645   1.778   4.934   3.936
  411ETH      O 1646   2.718   4.351   3.213
  411ETH      C 1647   2.581   4.325   3.408
  411ETH      C 1648   2.652   4.421   3.314
  411ETH      H 1649   2.505   4.266   3.352
  412ETH      O 1650   5.372   6.992   4.454
  412ETH      C 1651   5.278   7.021   4.674
  412ETH      C 1652   5.268   7.054   4.525
  412ETH      H 1653   5.269   6.911   4.689
  413ETH      O 1654   1.601   4.962   0.268
  413ETH      C 1655   1.606   5.108   0.078
  413ETH      C 1656   1.520   5.030   0.176
  413ETH      H 1657   1.666   5.185   0.132
  414ETH      O 1658   4.509   7.492   3.963
  414ETH      C 1659   4.434   7.297   3.845
  414ETH      C 1660   4.443   7.449   3.847
  414ETH      H 1661   4.537   7.253   3.844
  415ETH      O 1662   7.086   4.920   0.779
  415ETH      C 1663   7.171   4.850   0.993
  415ETH      C 1664   7.195   4.860   0.843
  415ETH      H 1665   7.158   4.952   1.036
  416ETH      O 1666   0.624   2.788   7.574
  416ETH      C 1667   0.661   2.982   7.437
  416ETH      C 1668   0.583   2.853   7.457
  416ETH      H 1669   0.641   3.052   7.522
  417ETH      O 1670   5.832   0.151   1.699
  417ETH      C 1671   5.853   0.387   1.663
  417ETH      C 1672   5.784   0.258   1.623
  417ETH      H 1673   5.833   0.411   1.770
  418ETH      O 1674   6.962   7.870   5.062
  418ETH      C 1675   6.932   7.662   4.946
  418ETH      C 1676   6.923   7.736   5.078
  418ETH      H 1677   6.863   7.708   4.871
  419ETH      O 1678   1.695   4.982   6.026
  419ETH      C 1679   1.895   4.859   5.972
  419ETH      C 1680   1.824   4.994   5.972
  419ETH      H 1681   1.905   4.822   6.077
  420ETH      O 1682   0.390   4.939   0.269
  420ETH      C 1683   0.512   4.935   0.476
  420ETH      C 1684   0.518   4.951   0.325
  420ETH      H 1685   0.447   5.014   0.520
  421ETH      O 1686   0.470   4.955   5.917
  421ETH      C 1687   0.398   5.141   5.782
  421ETH      C 1688   0.514   5.053   5.827
  421ETH      H 1689   0.322   5.079   5.730
  422ETH      O 1690   2.671   5.925   1.925
  422ETH      C 1691   2.607   5.857   2.147
  422ETH      C 1692   2.635   5.814   2.003
  422ETH      H 1693   2.699   5.901   2.191
  423ETH      O 1694   0.040   4.238   2.515
  423ETH      C 1695   0.031   4.194   2.279
  423ETH      C 1696   0.117   4.200   2.405
  423ETH      H 1697  -0.049   4.117   2.292
  424ETH      O 1698   3.372   2.423   4.648
  424ETH      C 1699   3.421   2.511   4.430
  424ETH      C 1700   3.339   2.525   4.558
  424ETH      H 1701   3.530   2.519   4.453
  425ETH      O 1702   5.854   2.817   6.354
  425ETH      C 1703   5.881   2.863   6.588
  425ETH      C 1704   5.791   2.872   6.466
  425ETH      H 1705   5.903   2.756   6.611
  426ETH      O 1706   7.327   7.330   2.655
  426ETH      C 1707   7.561   7.324   2.708
  426ETH      C 1708   7.424   7.265   2.732
  426ETH      H 1709   7.590   7.312   2.601
  427ETH      O 1710   7.190   6.517   0.039
  427ETH      C 1711   7.368   6.403   0.152
  427ETH      C 1712   7.221   6.440   0.152
  427ETH      H 1713   7.392   6.341   0.062
  428ETH      O 1714   7.798   5.177   6.146
  428ETH      C 1715   7.913   5.386   6.176
  428ETH      C 1716   7.858   5.284   6.078
  428ETH      H 1717   7.830   5.428   6.238
  429ETH      O 1718   3.028   0.241   2.104
  429ETH      C 1719   3.162   0.225   2.302
  429ETH      C 1720   3.142   0.292   2.167
  429ETH      H 1721   3.075   0.245   2.368
  430ETH      O 1722   7.341   3.988   6.649
  430ETH      C 1723   7.136   4.096   6.710
  430ETH      C 1724   7.287   4.106   6.702
  430ETH      H 1725   7.093   4.083   6.608
  431ETH      O 1726   6.302   0.585   0.894
  431ETH      C 1727   6.162   0.773   0.946
  431ETH      C 1728   6.175   0.622   0.941
  431ETH      H 1729   6.238   0.816   1.016
  432ETH      O 1730   3.351   4.617   4.488
  432ETH      C 1731   3.517   4.615   4.315
  432ETH      C 1732   3.369   4.613   4.349
  432ETH      H 1733   3.563   4.709   4.352
  433ETH      O 1734   3.027   7.419   5.258
  433ETH      C 1735   2.895   7.435   5.059
  433ETH      C 1736   2.980   7.346   5.149
  433ETH      H 1737   2.806   7.472   5.115
  434ETH      O 1738   2.265   2.057   6.856
  434ETH      C 1739   2.211   2.039   6.623
  434ETH      C 1740   2.254   1.967   6.749
  434ETH      H 1741   2.111   2.086   6.638
  435ETH      O 1742   2.137   1.684   4.560
  435ETH      C 1743   2.244   1.478   4.620
  435ETH      C 1744   2.113   1.551   4.595
  435ETH      H 1745   2.306   1.478   4.527
  436ETH      O 1746   1.200   2.843   1.867
  436ETH      C 1747   1.243   2.878   2.101
  436ETH      C 1748   1.301   2.869   1.961
  436ETH      H 1749   1.169   2.961   2.107
  437ETH      O 1750   5.556   7.460   2.498
  437ETH      C 1751   5.446   7.491   2.709
  437ETH      C 1752   5.473   7.547   2.570
  437ETH      H 1753   5.394   7.393   2.702
  438ETH      O 1754   3.464   1.329   2.891
  438ETH      C 1755   3.313   1.149   2.941
  438ETH      C 1756   3.366   1.246   2.836
  438ETH      H 1757   3.396   1.083   2.977
  439ETH      O 1758   0.584   3.370   4.398
  439ETH      C 1759   0.620   3.484   4.190
  439ETH      C 1760   0.614   3.494   4.342
  439ETH      H 1761   0.700   3.413   4.160
  440ETH      O 1762   7.225   5.770   4.256
  440ETH      C 1763   7.201   5.531   4.252
  440ETH      C 1764   7.186   5.660   4.332
  440ETH      H 1765   7.136   5.535   4.162
  441ETH      O 1766   5.725   7.692   4.880
  441ETH      C 1767   5.917   7.561   4.819
  441ETH      C 1768   5.766   7.564   4.839
  441ETH      H 1769   5.945   7.632   4.738
  442ETH      O 1770   3.197   4.082   0.269
  442ETH      C 1771   3.065   3.895   0.344
  442ETH      C 1772   3.099   4.043   0.361
  442ETH      H 1773   3.024   3.877   0.242
  443ETH      O 1774   4.313   1.472   0.628
  443ETH      C 1775   4.535   1.485   0.536
  443ETH      C 1776   4.435   1.540   0.637
  443ETH      H 1777   4.554   1.377   0.557
  444ETH      O 1778   7.081   6.588   4.373
  444ETH      C 1779   7.079   6.599   4.133
  444ETH      C 1780   7.163   6.593   4.260
  444ETH      H 1781   7.015   6.508   4.125
  445ETH      O 1782   6.487   5.198   7.273
  445ETH      C 1783   6.366   5.299   7.455
  445ETH      C 1784   6.386   5.291   7.304
  445ETH      H 1785   6.334   5.200   7.494
  446ETH      O 1786   6.035   4.198   0.416
  446ETH      C 1787   6.019   4.240   0.652
  446ETH      C 1788   5.953   4.254   0.516
  446ETH      H 1789   6.033   4.132   0.677
  447ETH      O 1790   1.253  -0.067   7.020
  447ETH      C 1791   1.331   0.160   7.031
  447ETH      C 1792   1.246   0.051   7.095
  447ETH      H 1793   1.438   0.128   7.029
  448ETH      O 1794   6.845   0.626   2.589
  448ETH      C 1795   6.885   0.653   2.824
  448ETH      C 1796   6.946   0.634   2.686
  448ETH      H 1797   6.828   0.749   2.827
  449ETH      O 1798   0.882   3.509   4.982
  449ETH      C 1799   0.769   3.602   4.792
  449ETH      C 1800   0.779   3.486   4.890
  449ETH      H 1801   0.745   3.696   4.847
  450ETH      O 1802   3.296   0.575   7.019
  450ETH      C 1803   3.292   0.337   6.983
  450ETH      C 1804   3.366   0.456   7.043
  450ETH      H 1805   3.192   0.327   7.031
  451ETH      O 1806   7.427   3.560   7.207
  451ETH      C 1807   7.323   3.359   7.289
  451ETH      C 1808   7.330   3.462   7.178
  451ETH      H 1809   7.421   3.307   7.299
  452ETH      O 1810   3.676   5.702   4.203
  452ETH      C 1811   3.512   5.651   4.035
  452ETH      C 1812   3.571   5.614   4.170
  452ETH      H 1813   3.470   5.754   4.038
  453ETH      O 1814   2.723   1.324   7.565
  453ETH      C 1815   2.733   1.497   7.399
  453ETH      C 1816   2.804   1.379   7.465
  453ETH      H 1817   2.639   1.462   7.351
  454ETH      O 1818   7.567   2.663   2.682
  454ETH      C 1819   7.566   2.639   2.921
  454ETH      C 1820   7.649   2.645   2.794
  454ETH      H 1821   7.511   2.735   2.934
  455ETH      O 1822   3.844   0.141   2.023
  455ETH      C 1823   3.623   0.087   1.946
  455ETH      C 1824   3.709   0.177   2.034
  455ETH      H 1825   3.652   0.099   1.839
  456ETH      O 1826   6.994   4.691   6.565
  456ETH      C 1827   7.040   4.745   6.336
  456ETH      C 1828   7.015   4.797   6.476
  456ETH      H 1829   7.132   4.682   6.334
  457ETH      O 1830   5.397   2.568   5.155
  457ETH      C 1831   5.389   2.401   4.983
  457ETH      C 1832   5.454   2.448   5.112
  457ETH      H 1833   5.280   2.381   5.000
  458ETH      O 1834   2.997   2.989   2.419
  458ETH      C 1835   3.122   2.787   2.380
  458ETH      C 1836   3.065   2.916   2.321
  458ETH      H 1837   3.194   2.811   2.461
  459ETH      O 1838   5.838   5.852   5.206
  459ETH      C 1839   6.030   5.813   5.068
  459ETH      C 1840   5.880   5.838   5.073
  459ETH      H 1841   6.085   5.899   5.111
  460ETH      O 1842   0.938   4.534   2.481
  460ETH      C 1843   0.888   4.419   2.277
  460ETH      C 1844   0.994   4.486   2.363
  460ETH      H 1845   0.844   4.332   2.332
  461ETH      O 1846   4.552   3.148   2.371
  461ETH      C 1847   4.571   2.946   2.242
  461ETH      C 1848   4.623   3.087   2.266
  461ETH      H 1849   4.585   2.884   2.333
  462ETH      O 1850   3.425   0.242   4.869
  462ETH      C 1851   3.381   0.232   5.104
  462ETH      C 1852   3.359   0.169   4.968
  462ETH      H 1853   3.489   0.231   5.129
  463ETH      O 1854   3.207   6.329   5.697
  463ETH      C 1855   3.111   6.258   5.489
  463ETH      C 1856   3.106   6.251   5.641
  463ETH      H 1857   3.095   6.363   5.455
  464ETH      O 1858   5.415   7.053   1.261
  464ETH      C 1859   5.177   7.080   1.244
  464ETH      C 1860   5.302   7.015   1.187
  464ETH      H 1861   5.161   7.048   1.349
  465ETH      O 1862   5.026   5.420   0.381
  465ETH      C 1863   5.074   5.259   0.552
  465ETH      C 1864   5.091   5.299   0.406
  465ETH      H 1865   5.120   5.336   0.618
  466ETH      O 1866   1.791   6.015   5.098
  466ETH      C 1867   1.865   6.104   5.309
  466ETH      C 1868   1.901   6.026   5.183
  466ETH      H 1869   1.833   6.207   5.281
  467ETH      O 1870   3.185   4.270   2.859
  467ETH      C 1871   3.248   4.074   2.983
  467ETH      C 1872   3.159   4.197   2.976
  467ETH      H 1873   3.227   4.007   2.897
  468ETH      O 1874   0.439   4.423   0.189
  468ETH      C 1875   0.409   4.497  -0.037
  468ETH      C 1876   0.344   4.470   0.098
  468ETH      H 1877   0.487   4.576  -0.027
  469ETH      O 1878   6.459   3.179   4.219
  469ETH      C 1879   6.424   2.991   4.074
  469ETH      C 1880   6.399   3.053   4.210
  469ETH      H 1881   6.380   3.055   3.994
  470ETH      O 1882   7.443   5.855   6.335
  470ETH      C 1883   7.543   5.807   6.122
  470ETH      C 1884   7.563   5.860   6.263
  470ETH      H 1885   7.511   5.700   6.126
  471ETH      O 1886   4.912   3.178   1.514
  471ETH      C 1887   5.149   3.150   1.542
  471ETH      C 1888   5.034   3.180   1.446
  471ETH      H 1889   5.153   3.229   1.622
  472ETH      O 1890   0.081   6.420   2.306
  472ETH      C 1891   0.227   6.377   2.492
  472ETH      C 1892   0.162   6.481   2.402
  472ETH      H 1893   0.148   6.319   2.546
  473ETH      O 1894   6.942   7.276   6.629
  473ETH      C 1895   6.822   7.481   6.594
  473ETH      C 1896   6.895   7.364   6.531
  473ETH      H 1897   6.734   7.444   6.652
  474ETH      O 1898   6.229   3.765   3.297
  474ETH      C 1899   6.240   3.525   3.297
  474ETH      C 1900   6.308   3.655   3.259
  474ETH      H 1901   6.227   3.520   3.407
  475ETH      O 1902   4.866   6.836   6.186
  475ETH      C 1903   4.848   6.598   6.153
  475ETH      C 1904   4.872   6.734   6.089
  475ETH      H 1905   4.927   6.577   6.228
  476ETH      O 1906   1.222   7.289   4.071
  476ETH      C 1907   1.272   7.202   3.853
  476ETH      C 1908   1.323   7.277   3.975
  476ETH      H 1909   1.240   7.099   3.881
  477ETH      O 1910   5.393   7.025   2.954
  477ETH      C 1911   5.385   7.094   2.724
  477ETH      C 1912   5.308   7.074   2.854
  477ETH      H 1913   5.466   7.169   2.739
  478ETH      O 1914   1.013   0.578   2.273
  478ETH      C 1915   1.231   0.542   2.366
  478ETH      C 1916   1.138   0.520   2.248
  478ETH      H 1917   1.247   0.651   2.383
  479ETH      O 1918   2.049   1.070   0.774
  479ETH      C 1919   1.941   0.866   0.710
  479ETH      C 1920   2.063   0.955   0.696
  479ETH      H 1921   1.930   0.833   0.816
  480ETH      O 1922   0.191   6.179   3.892
  480ETH      C 1923   0.101   6.083   3.691
  480ETH      C 1924   0.177   6.199   3.754
  480ETH      H 1925   0.157   5.988   3.706
  481ETH      O 1926   4.245   6.761   2.265
  481ETH      C 1927   4.407   6.849   2.111
  481ETH      C 1928   4.368   6.734   2.202
  481ETH      H 1929   4.330   6.862   2.031
  482ETH      O 1930   4.506   1.512   6.806
  482ETH      C 1931   4.561   1.372   6.994
  482ETH      C 1932   4.610   1.473   6.891
  482ETH      H 1933   4.481   1.418   7.057
  483ETH      O 1934   7.005   7.328   2.985
  483ETH      C 1935   6.995   7.259   3.215
  483ETH      C 1936   7.023   7.372   3.117
  483ETH      H 1937   6.889   7.226   3.205
  484ETH      O 1938   2.575   6.748   6.160
  484ETH      C 1939   2.600   6.605   6.352
  484ETH      C 1940   2.511   6.703   6.277
  484ETH      H 1941   2.620   6.515   6.288
  485ETH      O 1942   1.806   5.271   7.586
  485ETH      C 1943   1.918   5.327   7.381
  485ETH      C 1944   1.893   5.364   7.526
  485ETH      H 1945   1.966   5.226   7.374
  486ETH      O 1946   5.637   0.357   2.703
  486ETH      C 1947   5.786   0.305   2.883
  486ETH      C 1948   5.768   0.318   2.733
  486ETH      H 1949   5.769   0.404   2.932
  487ETH      O 1950   4.935   2.065   1.065
  487ETH      C 1951   4.960   2.109   0.830
  487ETH      C 1952   5.011   2.136   0.971
  487ETH      H 1953   4.970   2.000   0.806
  488ETH      O 1954   2.918   5.828   0.633
  488ETH      C 1955   2.884   5.629   0.503
  488ETH      C 1956   2.984   5.720   0.573
  488ETH      H 1957   2.813   5.587   0.578
  489ETH      O 1958   2.660   0.225   0.877
  489ETH      C 1959   2.749   0.071   0.716
  489ETH      C 1960   2.748   0.117   0.860
  489ETH      H 1961   2.647   0.036   0.686
  490ETH      O 1962   6.021   1.635   4.204
  490ETH      C 1963   6.006   1.631   3.965
  490ETH      C 1964   5.934   1.655   4.097
  490ETH      H 1965   6.090   1.704   3.954
  491ETH      O 1966   5.652   7.138   6.556
  491ETH      C 1967   5.778   7.250   6.385
  491ETH      C 1968   5.646   7.240   6.460
  491ETH      H 1969   5.860   7.275   6.455
  492ETH      O 1970   1.422   7.752   0.163
  492ETH      C 1971   1.396   7.608   0.354
  492ETH      C 1972   1.327   7.692   0.247
  492ETH      H 1973   1.455   7.526   0.306
  493ETH      O 1974   0.653   0.209   7.803
  493ETH      C 1975   0.473   0.160   7.954
  493ETH      C 1976   0.579   0.260   7.911
  493ETH      H 1977   0.402   0.141   7.871
  494ETH      O 1978   6.761   5.598   0.433
  494ETH      C 1979   6.767   5.838   0.416
  494ETH      C 1980   6.682   5.712   0.411
  494ETH      H 1981   6.814   5.848   0.517
  495ETH      O 1982   7.514   3.170   2.872
  495ETH      C 1983   7.637   3.230   2.675
  495ETH      C 1984   7.510   3.249   2.757
  495ETH      H 1985   7.726   3.262   2.735
  496ETH      O 1986   2.438   0.151   6.091
  496ETH      C 1987   2.325   0.355   6.148
  496ETH      C 1988   2.312   0.214   6.093
  496ETH      H 1989   2.362   0.353   6.253
  497ETH      O 1990   1.468   4.815   4.635
  497ETH      C 1991   1.408   4.612   4.521
  497ETH      C 1992   1.371   4.756   4.552
  497ETH      H 1993   1.505   4.609   4.467
  498ETH      O 1994   6.332   6.412   1.564
  498ETH      C 1995   6.301   6.642   1.624
  498ETH      C 1996   6.236   6.513   1.578
  498ETH      H 1997   6.349   6.627   1.723
  499ETH      O 1998   2.004   1.779   1.245
  499ETH      C 1999   2.127   1.631   1.102
  499ETH      C 2000   2.132   1.750   1.196
  499ETH      H 2001   2.091   1.541   1.158
  500ETH      O 2002   4.906   6.444   0.295
  500ETH      C 2003   4.680   6.453   0.215
  500ETH      C 2004   4.822   6.402   0.192
  500ETH      H 2005   4.640   6.412   0.310
  501ETH      O 2006   4.464   5.304   4.412
  501ETH      C 2007   4.510   5.519   4.508
  501ETH      C 2008   4.405   5.424   4.453
  501ETH      H 2009   4.560   5.474   4.597
  502ETH      O 2010   2.119   2.437   8.002
  502ETH      C 2011   2.309   2.464   7.857
  502ETH      C 2012   2.181   2.387   7.887
  502ETH      H 2013   2.286   2.571   7.839
  503ETH      O 2014   3.514   5.858   3.174
  503ETH      C 2015   3.671   5.987   3.303
  503ETH      C 2016   3.568   5.875   3.303
  503ETH      H 2017   3.755   5.961   3.234
  504ETH      O 2018   7.383   0.139   4.894
  504ETH      C 2019   7.275  -0.069   4.845
  504ETH      C 2020   7.303   0.039   4.948
  504ETH      H 2021   7.220  -0.026   4.758
  505ETH      O 2022   2.809   5.751   6.574
  505ETH      C 2023   2.959   5.751   6.762
  505ETH      C 2024   2.849   5.677   6.686
  505ETH      H 2025   3.048   5.764   6.697
  506ETH      O 2026   4.200   2.425   1.123
  506ETH      C 2027   4.336   2.621   1.150
  506ETH      C 2028   4.305   2.498   1.066
  506ETH      H 2029   4.247   2.688   1.154
  507ETH      O 2030   6.324   4.267   7.677
  507ETH      C 2031   6.354   4.029   7.676
  507ETH      C 2032   6.360   4.159   7.597
  507ETH      H 2033   6.426   4.033   7.761
  508ETH      O 2034   5.101   7.804   0.677
  508ETH      C 2035   5.112   7.851   0.912
  508ETH      C 2036   5.133   7.748   0.802
  508ETH      H 2037   5.179   7.938   0.896
  509ETH      O 2038   7.409   1.936   5.398
  509ETH      C 2039   7.560   2.103   5.315
  509ETH      C 2040   7.492   1.969   5.291
  509ETH      H 2041   7.483   2.184   5.324
  510ETH      O 2042   1.584   2.866   4.939
  510ETH      C 2043   1.459   2.668   4.991
  510ETH      C 2044   1.454   2.813   4.946
  510ETH      H 2045   1.516   2.607   4.918
  511ETH      O 2046   5.002   7.614   2.100
  511ETH      C 2047   5.008   7.593   2.339
  511ETH      C 2048   4.924   7.622   2.216
  511ETH      H 2049   5.050   7.490   2.334
  512ETH      O 2050   1.236   6.666   2.017
  512ETH      C 2051   1.364   6.759   2.198
  512ETH      C 2052   1.364   6.672   2.073
  512ETH      H 2053   1.333   6.863   2.172
  513ETH      O 2054   2.146   7.267   5.316
  513ETH      C 2055   2.248   7.183   5.115
  513ETH      C 2056   2.154   7.285   5.177
  513ETH      H 2057   2.351   7.197   5.157
  514ETH      O 2058   4.752   5.194   1.225
  514ETH      C 2059   4.728   5.192   0.986
  514ETH      C 2060   4.784   5.123   1.109
  514ETH      H 2061   4.616   5.196   0.993
  515ETH      O 2062   4.228   5.774   3.118
  515ETH      C 2063   4.202   5.651   3.323
  515ETH      C 2064   4.173   5.658   3.174
  515ETH      H 2065   4.312   5.648   3.340
  516ETH      O 2066   2.277   1.884   5.624
  516ETH      C 2067   2.302   2.054   5.457
  516ETH      C 2068   2.231   2.010   5.584
  516ETH      H 2069   2.412   2.063   5.476
  517ETH      O 2070   1.728   7.762   0.659
  517ETH      C 2071   1.541   7.881   0.751
  517ETH      C 2072   1.593   7.750   0.692
  517ETH      H 2073   1.596   7.905   0.844
  518ETH      O 2074   5.901   5.252   5.640
  518ETH      C 2075   5.914   5.098   5.824
  518ETH      C 2076   5.944   5.239   5.772
  518ETH      H 2077   5.805   5.079   5.821
  519ETH      O 2078   1.580   6.251   4.478
  519ETH      C 2079   1.378   6.267   4.606
  519ETH      C 2080   1.500   6.340   4.551
  519ETH      H 2081   1.316   6.227   4.522
  520ETH      O 2082   7.784   2.019   4.511
  520ETH      C 2083   7.587   1.884   4.490
  520ETH      C 2084   7.716   1.909   4.565
  520ETH      H 2085   7.519   1.973   4.499
  521ETH      O 2086   2.456   2.312   3.840
  521ETH      C 2087   2.503   2.505   3.975
  521ETH      C 2088   2.557   2.401   3.878
  521ETH      H 2089   2.422   2.565   3.927
  522ETH      O 2090   3.209   4.011   0.620
  522ETH      C 2091   3.325   4.221   0.616
  522ETH      C 2092   3.238   4.125   0.696
  522ETH      H 2093   3.421   4.172   0.589
  523ETH      O 2094   7.153   7.630   3.382
  523ETH      C 2095   7.014   7.435   3.403
  523ETH      C 2096   7.093   7.526   3.309
  523ETH      H 2097   7.083   7.389   3.478
  524ETH      O 2098   5.028   6.246   4.392
  524ETH      C 2099   5.068   6.262   4.628
  524ETH      C 2100   5.122   6.222   4.492
  524ETH      H 2101   5.045   6.371   4.629
  525ETH      O 2102   3.349   4.212   7.467
  525ETH      C 2103   3.377   4.181   7.230
  525ETH      C 2104   3.428   4.149   7.370
  525ETH      H 2105   3.273   4.143   7.218
  526ETH      O 2106   6.519   6.831   7.742
  526ETH      C 2107   6.383   7.020   7.799
  526ETH      C 2108   6.386   6.875   7.753
  526ETH      H 2109   6.430   7.029   7.900
  527ETH      O 2110   0.924   2.447   0.233
  527ETH      C 2111   0.946   2.383   0.002
  527ETH      C 2112   1.009   2.454   0.121
  527ETH      H 2113   0.931   2.275   0.027
  528ETH      O 2114   6.894   5.623   5.562
  528ETH      C 2115   6.874   5.682   5.794
  528ETH      C 2116   6.940   5.592   5.691
  528ETH      H 2117   6.900   5.789   5.773
  529ETH      O 2118   6.550   2.957   7.402
  529ETH      C 2119   6.491   2.820   7.589
  529ETH      C 2120   6.580   2.931   7.536
  529ETH      H 2121   6.384   2.850   7.584
  530ETH      O 2122   5.456   4.734   5.172
  530ETH      C 2123   5.466   4.534   5.303
  530ETH      C 2124   5.537   4.625   5.205
  530ETH      H 2125   5.444   4.589   5.397
  531ETH      O 2126   4.071   2.543   7.492
  531ETH      C 2127   4.006   2.613   7.272
  531ETH      C 2128   4.097   2.637   7.391
  531ETH      H 2129   4.025   2.511   7.229
  532ETH      O 2130   7.407   2.321   0.533
  532ETH      C 2131   7.372   2.324   0.295
  532ETH      C 2132   7.366   2.401   0.426
  532ETH      H 2133   7.477   2.292   0.275
  533ETH      O 2134   5.164   1.033   2.274
  533ETH      C 2135   5.242   1.248   2.348
  533ETH      C 2136   5.125   1.150   2.340
  533ETH      H 2137   5.326   1.203   2.405
  534ETH      O 2138   1.179   6.274   7.685
  534ETH      C 2139   1.148   6.291   7.448
  534ETH      C 2140   1.095   6.237   7.579
  534ETH      H 2141   1.151   6.402   7.450
  535ETH      O 2142   4.111   3.797   7.400
  535ETH      C 2143   3.884   3.873   7.417
  535ETH      C 2144   3.994   3.786   7.476
  535ETH      H 2145   3.915   3.980   7.419
  536ETH      O 2146   3.545   7.129   1.728
  536ETH      C 2147   3.600   6.966   1.895
  536ETH      C 2148   3.515   7.086   1.858
  536ETH      H 2149   3.578   6.881   1.826
  537ETH      O 2150   1.865   1.366   5.310
  537ETH      C 2151   1.633   1.311   5.280
  537ETH      C 2152   1.766   1.271   5.342
  537ETH      H 2153   1.600   1.409   5.321
  538ETH      O 2154   7.121   6.559   5.418
  538ETH      C 2155   7.276   6.529   5.599
  538ETH      C 2156   7.190   6.462   5.493
  538ETH      H 2157   7.352   6.594   5.551
  539ETH      O 2158   5.506   2.525   2.407
  539ETH      C 2159   5.503   2.503   2.168
  539ETH      C 2160   5.428   2.547   2.293
  539ETH      H 2161   5.597   2.562   2.157
  540ETH      O 2162   1.912   2.396   2.402
  540ETH      C 2163   2.139   2.346   2.462
  540ETH      C 2164   2.042   2.381   2.351
  540ETH      H 2165   2.142   2.428   2.538
  541ETH      O 2166   4.438   7.031   5.759
  541ETH      C 2167   4.455   7.178   5.570
  541ETH      C 2168   4.375   7.137   5.692
  541ETH      H 2169   4.557   7.213   5.601
  542ETH      O 2170   2.160   7.750   7.842
  542ETH      C 2171   2.226   7.804   7.618
  542ETH      C 2172   2.253   7.822   7.766
  542ETH      H 2173   2.237   7.696   7.590
  543ETH      O 2174   3.075   2.838   1.465
  543ETH      C 2175   3.048   2.656   1.311
  543ETH      C 2176   3.140   2.766   1.365
  543ETH      H 2177   3.022   2.585   1.392
  544ETH      O 2178   6.679   0.567   7.627
  544ETH      C 2179   6.626   0.651   7.846
  544ETH      C 2180   6.618   0.534   7.749
  544ETH      H 2181   6.733   0.675   7.868
  545ETH      O 2182   3.032   6.505   5.252
  545ETH      C 2183   3.259   6.546   5.188
  545ETH      C 2184   3.114   6.591   5.179
  545ETH      H 2185   3.293   6.549   5.295
  546ETH      O 2186   1.027   1.493   5.313
  546ETH      C 2187   1.061   1.729   5.342
  546ETH      C 2188   1.111   1.600   5.280
  546ETH      H 2189   0.959   1.753   5.303
  547ETH      O 2190   3.377   3.128   0.828
  547ETH      C 2191   3.359   3.178   1.062
  547ETH      C 2192   3.340   3.228   0.919
  547ETH      H 2193   3.294   3.090   1.080
  548ETH      O 2194   0.225   3.779   2.950
  548ETH      C 2195   0.362   3.756   2.754
  548ETH      C 2196   0.357   3.781   2.904
  548ETH      H 2197   0.319   3.656   2.731
  549ETH      O 2198   0.092   2.532   4.996
  549ETH      C 2199   0.000   2.532   5.218
  549ETH      C 2200   0.114   2.577   5.127
  549ETH      H 2201  -0.096   2.576   5.183
  550ETH      O 2202   1.017   6.970   4.124
  550ETH      C 2203   0.985   7.168   3.991
  550ETH      C 2204   0.938   7.027   4.023
  550ETH      H 2205   0.976   7.233   4.082
  551ETH      O 2206   0.421   6.639   4.578
  551ETH      C 2207   0.658   6.604   4.599
  551ETH      C 2208   0.543   6.703   4.605
  551ETH      H 2209   0.644   6.525   4.676
  552ETH      O 2210   7.314   3.471   5.015
  552ETH      C 2211   7.485   3.304   4.999
  552ETH      C 2212   7.428   3.433   4.944
  552ETH      H 2213   7.516   3.318   5.106
  553ETH      O 2214   6.893   0.308   2.886
  553ETH      C 2215   6.960   0.242   2.665
  553ETH      C 2216   6.952   0.354   2.767
  553ETH      H 2217   7.024   0.159   2.704
  554ETH      O 2218   4.112   6.765   1.383
  554ETH      C 2219   4.226   6.619   1.231
  554ETH      C 2220   4.227   6.752   1.304
  554ETH      H 2221   4.227   6.535   1.304
  555ETH      O 2222   4.563   6.070   1.433
  555ETH      C 2223   4.510   5.893   1.586
  555ETH      C 2224   4.457   6.004   1.496
  555ETH      H 2225   4.564   5.818   1.525
  556ETH      O 2226   6.836   0.244   7.362
  556ETH      C 2227   6.645   0.362   7.277
  556ETH      C 2228   6.745   0.250   7.255
  556ETH      H 2229   6.586   0.342   7.370
  557ETH      O 2230   0.488   0.084   3.479
  557ETH      C 2231   0.554   0.077   3.710
  557ETH      C 2232   0.464   0.020   3.601
  557ETH      H 2233   0.661   0.060   3.684
  558ETH      O 2234   1.950   2.521   4.945
  558ETH      C 2235   1.910   2.578   4.715
  558ETH      C 2236   1.857   2.511   4.841
  558ETH      H 2237   1.927   2.687   4.734
  559ETH      O 2238   6.204   4.121   2.367
  559ETH      C 2239   6.299   4.171   2.153
  559ETH      C 2240   6.320   4.168   2.303
  559ETH      H 2241   6.278   4.069   2.114
  560ETH      O 2242   5.880   6.662   7.295
  560ETH      C 2243   6.114   6.702   7.326
  560ETH      C 2244   5.988   6.636   7.380
  560ETH      H 2245   6.139   6.660   7.225
  561ETH      O 2246   0.102   6.090   7.834
  561ETH      C 2247  -0.026   6.197   7.661
  561ETH      C 2248   0.034   6.067   7.713
  561ETH      H 2249  -0.100   6.237   7.735
  562ETH      O 2250   1.151   6.935   7.460
  562ETH      C 2251   1.350   6.828   7.377
  562ETH      C 2252   1.282   6.899   7.493
  562ETH      H 2253   1.294   6.734   7.353
  563ETH      O 2254   1.909   3.921   3.639
  563ETH      C 2255   1.803   3.939   3.425
  563ETH      C 2256   1.785   3.937   3.576
  563ETH      H 2257   1.867   4.025   3.395
  564ETH      O 2258   6.962   2.848   4.300
  564ETH      C 2259   6.787   2.762   4.440
  564ETH      C 2260   6.913   2.731   4.361
  564ETH      H 2261   6.809   2.835   4.521
  565ETH      O 2262   6.074   2.282   5.621
  565ETH      C 2263   6.205   2.449   5.733
  565ETH      C 2264   6.191   2.359   5.611
  565ETH      H 2265   6.118   2.519   5.739
  566ETH      O 2266   6.338   7.674   2.445
  566ETH      C 2267   6.124   7.564   2.443
  566ETH      C 2268   6.271   7.557   2.483
  566ETH      H 2269   6.075   7.650   2.494
  567ETH      O 2270   7.540   6.127   5.266
  567ETH      C 2271   7.456   6.272   5.094
  567ETH      C 2272   7.477   6.129   5.140
  567ETH      H 2273   7.390   6.326   5.165
  568ETH      O 2274   4.834   2.362   1.405
  568ETH      C 2275   4.865   2.413   1.637
  568ETH      C 2276   4.893   2.453   1.493
  568ETH      H 2277   4.755   2.414   1.656
  569ETH      O 2278   5.207   5.538   3.866
  569ETH      C 2279   5.353   5.355   3.814
  569ETH      C 2280   5.319   5.468   3.910
  569ETH      H 2281   5.268   5.283   3.810
  570ETH      O 2282   6.519   4.119   1.863
  570ETH      C 2283   6.353   4.249   1.750
  570ETH      C 2284   6.391   4.114   1.807
  570ETH      H 2285   6.351   4.325   1.831
  571ETH      O 2286   1.331   3.211   4.182
  571ETH      C 2287   1.491   3.383   4.232
  571ETH      C 2288   1.429   3.294   4.125
  571ETH      H 2289   1.412   3.449   4.276
  572ETH      O 2290   6.961   3.648   7.398
  572ETH      C 2291   6.954   3.409   7.415
  572ETH      C 2292   7.037   3.536   7.432
  572ETH      H 2293   6.867   3.412   7.484
  573ETH      O 2294   3.776   1.387   3.011
  573ETH      C 2295   3.695   1.422   3.235
  573ETH      C 2296   3.664   1.428   3.086
  573ETH      H 2297   3.719   1.318   3.265
  574ETH      O 2298   7.097   7.089   4.510
  574ETH      C 2299   7.020   7.183   4.303
  574ETH      C 2300   6.984   7.140   4.444
  574ETH      H 2301   7.096   7.265   4.307
  575ETH      O 2302   1.449   0.882   3.257
  575ETH      C 2303   1.688   0.865   3.269
  575ETH      C 2304   1.566   0.953   3.289
  575ETH      H 2305   1.683   0.776   3.336
  576ETH      O 2306   1.427   7.420   0.837
  576ETH      C 2307   1.609   7.465   0.988
  576ETH      C 2308   1.561   7.389   0.865
  576ETH      H 2309   1.604   7.575   0.969
  577ETH      O 2310   6.711   2.675   0.236
  577ETH      C 2311   6.674   2.778   0.449
  577ETH      C 2312   6.747   2.670   0.371
  577ETH      H 2313   6.701   2.879   0.410
  578ETH      O 2314   2.024   0.448   0.533
  578ETH      C 2315   2.236   0.414   0.639
  578ETH      C 2316   2.158   0.416   0.509
  578ETH      H 2317   2.233   0.514   0.687
  579ETH      O 2318   5.170   3.837   6.264
  579ETH      C 2319   5.357   3.750   6.386
  579ETH      C 2320   5.283   3.874   6.338
  579ETH      H 2321   5.292   3.690   6.452
  580ETH      O 2322   3.579   7.575   4.668
  580ETH      C 2323   3.761   7.445   4.756
  580ETH      C 2324   3.659   7.555   4.781
  580ETH      H 2325   3.709   7.349   4.734
  581ETH      O 2326   1.463   0.497   1.528
  581ETH      C 2327   1.374   0.487   1.751
  581ETH      C 2328   1.476   0.432   1.652
  581ETH      H 2329   1.392   0.596   1.767
  582ETH      O 2330   5.799   1.253   1.451
  582ETH      C 2331   5.880   1.415   1.608
  582ETH      C 2332   5.914   1.299   1.515
  582ETH      H 2333   5.837   1.500   1.549
  583ETH      O 2334   3.374   4.240   6.170
  583ETH      C 2335   3.573   4.120   6.107
  583ETH      C 2336   3.422   4.130   6.097
  583ETH      H 2337   3.620   4.212   6.063
  584ETH      O 2338   4.966   4.617   5.458
  584ETH      C 2339   4.907   4.848   5.427
  584ETH      C 2340   4.972   4.724   5.367
  584ETH      H 2341   4.800   4.827   5.449
  585ETH      O 2342   1.999   0.819   7.217
  585ETH      C 2343   2.020   0.776   7.453
  585ETH      C 2344   1.978   0.723   7.317
  585ETH      H 2345   2.128   0.801   7.452
  586ETH      O 2346   5.017   4.090   5.945
  586ETH      C 2347   4.832   3.938   5.964
  586ETH      C 2348   4.951   3.984   5.881
  586ETH      H 2349   4.867   3.901   6.064
  587ETH      O 2350   5.910   3.877   6.529
  587ETH      C 2351   5.724   3.777   6.414
  587ETH      C 2352   5.772   3.886   6.509
  587ETH      H 2353   5.774   3.788   6.315
  588ETH      O 2354   5.055   1.748   6.588
  588ETH      C 2355   5.018   1.582   6.419
  588ETH      C 2356   4.965   1.650   6.543
  588ETH      H 2357   5.031   1.656   6.337
  589ETH      O 2358   2.222   2.787   5.916
  589ETH      C 2359   2.187   2.782   6.153
  589ETH      C 2360   2.218   2.867   6.031
  589ETH      H 2361   2.086   2.735   6.142
  590ETH      O 2362   4.155   5.063   7.117
  590ETH      C 2363   3.941   5.058   7.009
  590ETH      C 2364   4.048   5.143   7.075
  590ETH      H 2365   3.982   5.008   6.919
  591ETH      O 2366   0.802   3.590   7.441
  591ETH      C 2367   0.824   3.811   7.533
  591ETH      C 2368   0.894   3.691   7.471
  591ETH      H 2369   0.751   3.854   7.460
  592ETH      O 2370   7.359   7.329   0.163
  592ETH      C 2371   7.425   7.420   0.376
  592ETH      C 2372   7.357   7.445   0.242
  592ETH      H 2373   7.370   7.340   0.432
  593ETH      O 2374   6.735   3.962   0.312
  593ETH      C 2375   6.823   4.043   0.104
  593ETH      C 2376   6.761   3.926   0.179
  593ETH      H 2377   6.752   4.129   0.102
  594ETH      O 2378   7.599   3.957   2.139
  594ETH      C 2379   7.529   3.841   2.337
  594ETH      C 2380   7.632   3.853   2.226
  594ETH      H 2381   7.526   3.935   2.397
  595ETH      O 2382   7.417   6.431   1.148
  595ETH      C 2383   7.584   6.573   1.246
  595ETH      C 2384   7.529   6.432   1.233
  595ETH      H 2385   7.618   6.610   1.147
  596ETH      O 2386   3.193   0.125   1.293
  596ETH      C 2387   3.407   0.080   1.194
  596ETH      C 2388   3.325   0.090   1.322
  596ETH      H 2389   3.365   0.001   1.128
  597ETH      O 2390   1.897   7.388   1.588
  597ETH      C 2391   1.972   7.500   1.787
  597ETH      C 2392   1.999   7.469   1.641
  597ETH      H 2393   1.876   7.556   1.797
  598ETH      O 2394   4.992   7.069   3.670
  598ETH      C 2395   4.829   7.242   3.700
  598ETH      C 2396   4.923   7.171   3.604
  598ETH      H 2397   4.753   7.170   3.740
  599ETH      O 2398   6.927   6.242   5.527
  599ETH      C 2399   6.871   6.185   5.301
  599ETH      C 2400   6.837   6.169   5.448
  599ETH      H 2401   6.862   6.292   5.271
  600ETH      O 2402   2.858   5.872   2.608
  600ETH      C 2403   2.676   5.725   2.559
  600ETH      C 2404   2.725   5.843   2.640
  600ETH      H 2405   2.680   5.749   2.450
  601ETH      O 2406   4.960   5.436   4.671
  601ETH      C 2407   4.968   5.662   4.591
  601ETH      C 2408   4.972   5.570   4.712
  601ETH      H 2409   5.054   5.639   4.523
  602ETH      O 2410   7.245   3.445   3.948
  602ETH      C 2411   7.216   3.486   4.183
  602ETH      C 2412   7.155   3.432   4.055
  602ETH      H 2413   7.307   3.428   4.209
  603ETH      O 2414   7.939   2.930   0.525
  603ETH      C 2415   7.824   3.099   0.651
  603ETH      C 2416   7.825   2.955   0.604
  603ETH      H 2417   7.914   3.119   0.715
  604ETH      O 2418   0.412   0.519   5.850
  604ETH      C 2419   0.417   0.466   5.616
  604ETH      C 2420   0.466   0.431   5.756
  604ETH      H 2421   0.306   0.456   5.611
  605ETH      O 2422   5.102   3.381   3.479
  605ETH      C 2423   5.221   3.432   3.276
  605ETH      C 2424   5.230   3.396   3.424
  605ETH      H 2425   5.169   3.351   3.220
  606ETH      O 2426   0.872   5.703   7.301
  606ETH      C 2427   0.978   5.896   7.206
  606ETH      C 2428   0.995   5.754   7.257
  606ETH      H 2429   0.908   5.897   7.119
  607ETH      O 2430   2.301   4.028   1.584
  607ETH      C 2431   2.297   4.006   1.823
  607ETH      C 2432   2.269   3.940   1.689
  607ETH      H 2433   2.406   4.032   1.831
  608ETH      O 2434   1.644   1.221   6.512
  608ETH      C 2435   1.431   1.268   6.413
  608ETH      C 2436   1.580   1.299   6.415
  608ETH      H 2437   1.414   1.161   6.387
  609ETH      O 2438   6.019   2.930   3.890
  609ETH      C 2439   6.165   3.021   4.057
  609ETH      C 2440   6.025   2.974   4.023
  609ETH      H 2441   6.237   2.936   4.046
  610ETH      O 2442   1.324   4.672   0.563
  610ETH      C 2443   1.118   4.766   0.643
  610ETH      C 2444   1.230   4.774   0.541
  610ETH      H 2445   1.065   4.669   0.634
  611ETH      O 2446   7.128   3.815   4.798
  611ETH      C 2447   7.360   3.811   4.861
  611ETH      C 2448   7.215   3.795   4.906
  611ETH      H 2449   7.384   3.736   4.782
  612ETH      O 2450   7.338   6.212   1.893
  612ETH      C 2451   7.354   6.255   2.128
  612ETH      C 2452   7.266   6.209   2.013
  612ETH      H 2453   7.442   6.187   2.139
  613ETH      O 2454   6.441   3.465   7.299
  613ETH      C 2455   6.546   3.548   7.100
  613ETH      C 2456   6.477   3.431   7.168
  613ETH      H 2457   6.477   3.636   7.095
  614ETH      O 2458   3.824   4.849   5.747
  614ETH      C 2459   3.814   4.880   5.985
  614ETH      C 2460   3.752   4.912   5.849
  614ETH      H 2461   3.810   4.770   6.003
  615ETH      O 2462   3.640   5.627   7.181
  615ETH      C 2463   3.649   5.629   7.421
  615ETH      C 2464   3.725   5.610   7.291
  615ETH      H 2465   3.607   5.732   7.427
  616ETH      O 2466   6.933   1.018   4.775
  616ETH      C 2467   6.760   0.945   4.625
  616ETH      C 2468   6.806   1.050   4.725
  616ETH      H 2469   6.830   0.941   4.539
  617ETH      O 2470   0.995   1.908   3.478
  617ETH      C 2471   1.079   1.861   3.258
  617ETH      C 2472   1.111   1.910   3.399
  617ETH      H 2473   1.042   1.756   3.262
  618ETH      O 2474   1.417   5.113   1.149
  618ETH      C 2475   1.237   5.023   1.018
  618ETH      C 2476   1.300   5.147   1.079
  618ETH      H 2477   1.307   4.976   0.945
  619ETH      O 2478   6.993   3.818   3.322
  619ETH      C 2479   6.906   3.707   3.516
  619ETH      C 2480   6.892   3.732   3.367
  619ETH      H 2481   7.004   3.658   3.537
  620ETH      O 2482   4.969   5.423   7.094
  620ETH      C 2483   4.873   5.277   7.258
  620ETH      C 2484   4.863   5.336   7.119
  620ETH      H 2485   4.968   5.218   7.268
  621ETH      O 2486   4.683   3.739   7.156
  621ETH      C 2487   4.706   3.971   7.214
  621ETH      C 2488   4.634   3.840   7.240
  621ETH      H 2489   4.815   3.960   7.235
  622ETH      O 2490   7.489   2.892   0.342
  622ETH      C 2491   7.262   2.960   0.305
  622ETH      C 2492   7.406   3.004   0.329
  622ETH      H 2493   7.255   2.902   0.210
  623ETH      O 2494   2.141   6.395   6.735
  623ETH      C 2495   2.170   6.469   6.961
  623ETH      C 2496   2.214   6.373   6.852
  623ETH      H 2497   2.188   6.575   6.929
  624ETH      O 2498   5.579   4.105   4.467
  624ETH      C 2499   5.439   4.284   4.545
  624ETH      C 2500   5.447   4.153   4.467
  624ETH      H 2501   5.469   4.267   4.651
  625ETH      O 2502   2.094   3.577   0.824
  625ETH      C 2503   2.060   3.621   0.590
  625ETH      C 2504   2.002   3.566   0.719
  625ETH      H 2505   2.084   3.730   0.603
  626ETH      O 2506   5.665   6.301   0.832
  626ETH      C 2507   5.548   6.500   0.765
  626ETH      C 2508   5.586   6.356   0.730
  626ETH      H 2509   5.488   6.501   0.859
  627ETH      O 2510   5.445   5.712   2.300
  627ETH      C 2511   5.413   5.760   2.533
  627ETH      C 2512   5.449   5.814   2.395
  627ETH      H 2513   5.309   5.719   2.532
  628ETH      O 2514   2.214   3.285   1.046
  628ETH      C 2515   2.054   3.287   1.224
  628ETH      C 2516   2.084   3.248   1.081
  628ETH      H 2517   2.123   3.234   1.294
  629ETH      O 2518   6.585   0.628   0.161
  629ETH      C 2519   6.695   0.573   0.367
  629ETH      C 2520   6.563   0.603   0.297
  629ETH      H 2521   6.742   0.481   0.323
  630ETH      O 2522   4.287   6.571   2.788
  630ETH      C 2523   4.066   6.593   2.696
  630ETH      C 2524   4.185   6.663   2.760
  630ETH      H 2525   4.097   6.548   2.599
  631ETH      O 2526   1.719   5.449   4.068
  631ETH      C 2527   1.648   5.269   3.926
  631ETH      C 2528   1.763   5.334   4.001
  631ETH      H 2529   1.568   5.238   3.998
  632ETH      O 2530   0.392   1.500   4.273
  632ETH      C 2531   0.557   1.559   4.437
  632ETH      C 2532   0.444   1.465   4.398
  632ETH      H 2533   0.640   1.552   4.363
  633ETH      O 2534   7.000   7.877   2.844
  633ETH      C 2535   7.014   7.863   2.605
  633ETH      C 2536   7.078   7.828   2.738
  633ETH      H 2537   6.913   7.817   2.597
  634ETH      O 2538   3.718   7.191   5.492
  634ETH      C 2539   3.819   7.120   5.698
  634ETH      C 2540   3.696   7.176   5.629
  634ETH      H 2541   3.843   7.019   5.657
  635ETH      O 2542   2.989   3.311   5.677
  635ETH      C 2543   2.920   3.357   5.903
  635ETH      C 2544   3.021   3.289   5.812
  635ETH      H 2545   2.921   3.467   5.886
  636ETH      O 2546   2.192   3.547   1.906
  636ETH      C 2547   1.958   3.600   1.904
  636ETH      C 2548   2.064   3.493   1.924
  636ETH      H 2549   1.971   3.681   1.979
  637ETH      O 2550   4.902   6.464   2.939
  637ETH      C 2551   4.916   6.616   2.753
  637ETH      C 2552   4.827   6.548   2.856
  637ETH      H 2553   4.993   6.678   2.804
  638ETH      O 2554   1.042   1.962   0.780
  638ETH      C 2555   1.163   2.162   0.836
  638ETH      C 2556   1.153   2.011   0.850
  638ETH      H 2557   1.175   2.190   0.729
  639ETH      O 2558   4.796   4.105   3.380
  639ETH      C 2559   5.011   4.168   3.295
  639ETH      C 2560   4.932   4.113   3.412
  639ETH      H 2561   5.002   4.101   3.207
  640ETH      O 2562   1.572   3.802   4.132
  640ETH      C 2563   1.450   3.856   4.332
  640ETH      C 2564   1.465   3.878   4.182
  640ETH      H 2565   1.429   3.749   4.353
  641ETH      O 2566   5.616   0.350   3.659
  641ETH      C 2567   5.744   0.506   3.791
  641ETH      C 2568   5.725   0.361   3.747
  641ETH      H 2569   5.765   0.570   3.702
  642ETH      O 2570   4.968   6.646   3.342
  642ETH      C 2571   5.189   6.739   3.330
  642ETH      C 2572   5.040   6.759   3.304
  642ETH      H 2573   5.206   6.724   3.440
  643ETH      O 2574   4.090   2.886   4.276
  643ETH      C 2575   4.245   2.813   4.444
  643ETH      C 2576   4.207   2.921   4.344
  643ETH      H 2577   4.164   2.802   4.520
  644ETH      O 2578   7.892   6.566   7.110
  644ETH      C 2579   7.800   6.446   6.923
  644ETH      C 2580   7.782   6.491   7.067
  644ETH      H 2581   7.807   6.535   6.856
  645ETH      O 2582   3.069   7.218   4.160
  645ETH      C 2583   3.106   7.158   4.389
  645ETH      C 2584   3.139   7.130   4.243
  645ETH      H 2585   3.138   7.261   4.416
  646ETH      O 2586   2.000   0.687   5.635
  646ETH      C 2587   1.964   0.621   5.863
  646ETH      C 2588   1.978   0.576   5.719
  646ETH      H 2589   2.059   0.670   5.897
  647ETH      O 2590   3.594   0.735   0.282
  647ETH      C 2591   3.424   0.893   0.218
  647ETH      C 2592   3.566   0.842   0.196
  647ETH      H 2593   3.351   0.812   0.195
  648ETH      O 2594   2.681   4.623   6.261
  648ETH      C 2595   2.652   4.834   6.371
  648ETH      C 2596   2.721   4.757   6.259
  648ETH      H 2597   2.542   4.831   6.357
  649ETH      O 2598   0.911   4.672   5.664
  649ETH      C 2599   1.084   4.803   5.766
  649ETH      C 2600   0.954   4.803   5.687
  649ETH      H 2601   1.068   4.755   5.865
  650ETH      O 2602   2.234   5.978   6.753
  650ETH      C 2603   2.214   6.063   6.529
  650ETH      C 2604   2.152   6.052   6.667
  650ETH      H 2605   2.312   6.116   6.535
  651ETH      O 2606   6.672   6.101   4.470
  651ETH      C 2607   6.464   6.023   4.380
  651ETH      C 2608   6.606   5.988   4.420
  651ETH      H 2609   6.407   6.059   4.469
  652ETH      O 2610   7.217   5.684   0.565
  652ETH      C 2611   7.132   5.605   0.776
  652ETH      C 2612   7.121   5.600   0.624
  652ETH      H 2613   7.233   5.570   0.808
  653ETH      O 2614   0.595   3.071   0.538
  653ETH      C 2615   0.748   2.945   0.403
  653ETH      C 2616   0.724   3.016   0.535
  653ETH      H 2617   0.675   2.861   0.391
  654ETH      O 2618   7.934   4.192   7.716
  654ETH      C 2619   7.840   3.982   7.786
  654ETH      C 2620   7.965   4.067   7.771
  654ETH      H 2621   7.769   4.032   7.855
  655ETH      O 2622   6.125   1.960   0.217
  655ETH      C 2623   6.124   1.951  -0.022
  655ETH      C 2624   6.195   1.912   0.106
  655ETH      H 2625   6.022   1.907  -0.025
  656ETH      O 2626   3.695   5.178   6.761
  656ETH      C 2627   3.713   5.157   6.999
  656ETH      C 2628   3.781   5.198   6.870
  656ETH      H 2629   3.622   5.219   7.016
  657ETH      O 2630   6.628   7.270   4.812
  657ETH      C 2631   6.551   7.160   5.011
  657ETH      C 2632   6.539   7.173   4.860
  657ETH      H 2633   6.654   7.128   5.038
  658ETH      O 2634   6.909   0.240   6.575
  658ETH      C 2635   6.718   0.365   6.500
  658ETH      C 2636   6.770   0.250   6.586
  658ETH      H 2637   6.762   0.462   6.536
  659ETH      O 2638   4.379   0.472   3.448
  659ETH      C 2639   4.380   0.248   3.536
  659ETH      C 2640   4.335   0.341   3.424
  659ETH      H 2641   4.491   0.246   3.542
  660ETH      O 2642   3.335   2.797   2.759
  660ETH      C 2643   3.344   2.883   2.984
  660ETH      C 2644   3.273   2.885   2.849
  660ETH      H 2645   3.339   2.780   3.028
  661ETH      O 2646   1.759   5.536   0.132
  661ETH      C 2647   1.807   5.563   0.366
  661ETH      C 2648   1.854   5.585   0.223
  661ETH      H 2649   1.711   5.619   0.383
  662ETH      O 2650   1.952   2.089   4.421
  662ETH      C 2651   2.100   2.273   4.376
  662ETH      C 2652   2.022   2.196   4.481
  662ETH      H 2653   2.175   2.207   4.328
  663ETH      O 2654   6.752   3.808   3.658
  663ETH      C 2655   6.722   3.769   3.893
  663ETH      C 2656   6.742   3.707   3.755
  663ETH      H 2657   6.809   3.833   3.919
  664ETH      O 2658   1.806   5.835   1.630
  664ETH      C 2659   1.882   6.036   1.523
  664ETH      C 2660   1.812   5.902   1.507
  664ETH      H 2661   1.825   6.101   1.593
  665ETH      O 2662   1.364   1.122   5.642
  665ETH      C 2663   1.355   1.054   5.412
  665ETH      C 2664   1.377   1.168   5.511
  665ETH      H 2665   1.431   0.974   5.428
  666ETH      O 2666   5.529   0.717   0.908
  666ETH      C 2667   5.547   0.679   0.672
  666ETH      C 2668   5.608   0.657   0.809
  666ETH      H 2669   5.446   0.631   0.667
  667ETH      O 2670   6.087   2.648   2.627
  667ETH      C 2671   6.086   2.685   2.390
  667ETH      C 2672   6.024   2.719   2.524
  667ETH      H 2673   6.194   2.714   2.389
  668ETH      O 2674   0.614   4.245   6.446
  668ETH      C 2675   0.742   4.358   6.277
  668ETH      C 2676   0.605   4.312   6.323
  668ETH      H 2677   0.785   4.430   6.351
  669ETH      O 2678   4.353   1.503   4.698
  669ETH      C 2679   4.265   1.422   4.490
  669ETH      C 2680   4.317   1.541   4.568
  669ETH      H 2681   4.344   1.344   4.482
  670ETH      O 2682   0.936   5.971   2.598
  670ETH      C 2683   1.112   5.973   2.435
  670ETH      C 2684   1.076   5.967   2.582
  670ETH      H 2685   1.070   5.884   2.382
  671ETH      O 2686   5.477   1.043   3.456
  671ETH      C 2687   5.527   1.123   3.235
  671ETH      C 2688   5.547   1.013   3.338
  671ETH      H 2689   5.419   1.132   3.209
  672ETH      O 2690   0.112   2.534   7.502
  672ETH      C 2691   0.145   2.490   7.268
  672ETH      C 2692   0.194   2.467   7.410
  672ETH      H 2693   0.042   2.451   7.256
  673ETH      O 2694   4.833   2.939   6.756
  673ETH      C 2695   4.806   2.868   6.983
  673ETH      C 2696   4.836   2.983   6.888
  673ETH      H 2697   4.703   2.829   6.964
  674ETH      O 2698   4.681   4.291   4.745
  674ETH      C 2699   4.616   4.352   4.968
  674ETH      C 2700   4.670   4.243   4.876
  674ETH      H 2701   4.685   4.439   4.970
  675ETH      O 2702   0.351   7.077   2.180
  675ETH      C 2703   0.390   7.086   1.944
  675ETH      C 2704   0.346   7.002   2.062
  675ETH      H 2705   0.322   7.174   1.931
  676ETH      O 2706   2.412   3.644   7.381
  676ETH      C 2707   2.556   3.819   7.462
  676ETH      C 2708   2.415   3.762   7.457
  676ETH      H 2709   2.625   3.746   7.511
  677ETH      O 2710   4.024   3.656   3.686
  677ETH      C 2711   3.956   3.546   3.889
  677ETH      C 2712   3.965   3.539   3.737
  677ETH      H 2713   4.059   3.554   3.933
  678ETH      O 2714   6.852   7.046   7.649
  678ETH      C 2715   6.902   7.045   7.884
  678ETH      C 2716   6.951   7.014   7.743
  678ETH      H 2717   6.880   7.154   7.894
  679ETH      O 2718   1.597   0.162   5.741
  679ETH      C 2719   1.598  -0.029   5.596
  679ETH      C 2720   1.534   0.104   5.630
  679ETH      H 2721   1.705  -0.014   5.569
  680ETH      O 2722   3.198   5.427   7.928
  680ETH      C 2723   3.253   5.384   7.699
  680ETH      C 2724   3.304   5.407   7.840
  680ETH      H 2725   3.189   5.292   7.696
  681ETH      O 2726   5.515   3.514   1.183
  681ETH      C 2727   5.289   3.512   1.263
  681ETH      C 2728   5.387   3.463   1.157
  681ETH      H 2729   5.320   3.476   1.364
  682ETH      O 2730   5.900   1.441   2.652
  682ETH      C 2731   5.784   1.409   2.860
  682ETH      C 2732   5.774   1.448   2.714
  682ETH      H 2733   5.820   1.304   2.869
  683ETH      O 2734   5.933   5.417   6.151
  683ETH      C 2735   5.903   5.459   5.917
  683ETH      C 2736   5.859   5.379   6.038
  683ETH      H 2737   5.885   5.568   5.934
  684ETH      O 2738   7.133   5.356   5.926
  684ETH      C 2739   7.228   5.544   5.811
  684ETH      C 2740   7.235   5.452   5.932
  684ETH      H 2741   7.243   5.484   5.717
  685ETH      O 2742   3.357   3.275   6.118
  685ETH      C 2743   3.246   3.145   5.950
  685ETH      C 2744   3.233   3.250   6.059
  685ETH      H 2745   3.314   3.182   5.870
  686ETH      O 2746   7.057   2.396   4.442
  686ETH      C 2747   7.075   2.382   4.681
  686ETH      C 2748   7.146   2.369   4.547
  686ETH      H 2749   7.038   2.486   4.695
  687ETH      O 2750   3.049   6.121   4.572
  687ETH      C 2751   3.038   6.046   4.800
  687ETH      C 2752   2.981   6.036   4.660
  687ETH      H 2753   3.145   6.015   4.800
  688ETH      O 2754   5.049   5.413   1.269
  688ETH      C 2755   5.272   5.407   1.178
  688ETH      C 2756   5.183   5.387   1.301
  688ETH      H 2757   5.242   5.337   1.098
  689ETH      O 2758   2.698   3.619   1.912
  689ETH      C 2759   2.619   3.489   1.727
  689ETH      C 2760   2.612   3.621   1.801
  689ETH      H 2761   2.722   3.471   1.689
  690ETH      O 2762   6.637   7.632   2.331
  690ETH      C 2763   6.671   7.411   2.244
  690ETH      C 2764   6.614   7.497   2.356
  690ETH      H 2765   6.620   7.437   2.148
  691ETH      O 2766   6.606   4.558   6.715
  691ETH      C 2767   6.614   4.532   6.953
  691ETH      C 2768   6.609   4.463   6.818
  691ETH      H 2769   6.707   4.593   6.961
  692ETH      O 2770   1.804   1.514   4.665
  692ETH      C 2771   1.652   1.627   4.812
  692ETH      C 2772   1.796   1.608   4.769
  692ETH      H 2773   1.591   1.666   4.727
  693ETH      O 2774   1.575   5.742   0.599
  693ETH      C 2775   1.576   5.758   0.839
  693ETH      C 2776   1.543   5.673   0.717
  693ETH      H 2777   1.685   5.780   0.842
  694ETH      O 2778   2.919   6.614   0.372
  694ETH      C 2779   2.936   6.592   0.133
  694ETH      C 2780   2.955   6.526   0.269
  694ETH      H 2781   2.828   6.618   0.119
  695ETH      O 2782   4.028   2.099   4.413
  695ETH      C 2783   4.024   2.125   4.174
  695ETH      C 2784   3.946   2.133   4.305
  695ETH      H 2785   4.108   2.198   4.176
  696ETH      O 2786   2.366   1.590   4.771
  696ETH      C 2787   2.425   1.566   5.002
  696ETH      C 2788   2.474   1.573   4.858
  696ETH      H 2789   2.375   1.662   5.030
  697ETH      O 2790   2.182   0.262   2.714
  697ETH      C 2791   2.313   0.325   2.905
  697ETH      C 2792   2.226   0.372   2.789
  697ETH      H 2793   2.254   0.259   2.973
  698ETH      O 2794   2.173   3.845   3.932
  698ETH      C 2795   2.219   3.891   4.163
  698ETH      C 2796   2.270   3.897   4.020
  698ETH      H 2797   2.127   3.953   4.174
  699ETH      O 2798   4.937   5.138   4.994
  699ETH      C 2799   5.176   5.146   4.978
  699ETH      C 2800   5.055   5.117   5.065
  699ETH      H 2801   5.177   5.077   4.890
  700ETH      O 2802   2.537   5.903  -0.064
  700ETH      C 2803   2.602   5.855   0.162
  700ETH      C 2804   2.490   5.857   0.060
  700ETH      H 2805   2.682   5.785   0.128
  701ETH      O 2806   2.912   4.837   2.144
  701ETH      C 2807   2.901   4.767   1.915
  701ETH      C 2808   2.990   4.801   2.034
  701ETH      H 2809   2.836   4.680   1.940
  702ETH      O 2810   1.313   3.833   4.030
  702ETH      C 2811   1.268   3.675   4.206
  702ETH      C 2812   1.231   3.725   4.067
  702ETH      H 2813   1.374   3.639   4.206
  703ETH      O 2814   0.158   1.086   3.695
  703ETH      C 2815  -0.056   1.158   3.777
  703ETH      C 2816   0.021   1.057   3.693
  703ETH      H 2817  -0.022   1.153   3.883
  704ETH      O 2818   4.933   1.356   1.142
  704ETH      C 2819   4.954   1.495   1.337
  704ETH      C 2820   4.876   1.385   1.267
  704ETH      H 2821   5.059   1.461   1.355
  705ETH      O 2822   3.353   6.719   4.733
  705ETH      C 2823   3.584   6.770   4.691
  705ETH      C 2824   3.480   6.726   4.793
  705ETH      H 2825   3.590   6.696   4.608
  706ETH      O 2826   1.659   2.753   3.471
  706ETH      C 2827   1.611   2.856   3.682
  706ETH      C 2828   1.690   2.862   3.552
  706ETH      H 2829   1.502   2.860   3.660
  707ETH      O 2830   4.609   0.680   4.054
  707ETH      C 2831   4.497   0.872   4.144
  707ETH      C 2832   4.577   0.814   4.029
  707ETH      H 2833   4.401   0.816   4.156
  708ETH      O 2834   3.013   1.194   4.557
  708ETH      C 2835   2.994   1.153   4.792
  708ETH      C 2836   3.087   1.167   4.673
  708ETH      H 2837   2.938   1.248   4.809
  709ETH      O 2838   6.645   7.270   0.661
  709ETH      C 2839   6.630   7.059   0.775
  709ETH      C 2840   6.650   7.131   0.642
  709ETH      H 2841   6.712   7.087   0.846
  710ETH      O 2842   0.239   1.550   4.814
  710ETH      C 2843   0.255   1.460   5.036
  710ETH      C 2844   0.321   1.476   4.900
  710ETH      H 2845   0.238   1.560   5.083
  711ETH      O 2846   0.873   2.241   3.148
  711ETH      C 2847   0.991   2.449   3.159
  711ETH      C 2848   0.906   2.347   3.233
  711ETH      H 2849   1.087   2.402   3.125
  712ETH      O 2850   5.271   7.132   6.448
  712ETH      C 2851   5.037   7.187   6.456
  712ETH      C 2852   5.147   7.091   6.499
  712ETH      H 2853   5.058   7.289   6.495
  713ETH      O 2854   1.089   4.906   2.548
  713ETH      C 2855   1.135   4.671   2.535
  713ETH      C 2856   1.173   4.805   2.597
  713ETH      H 2857   1.031   4.644   2.563
  714ETH      O 2858   7.250   0.515   5.114
  714ETH      C 2859   7.185   0.509   4.883
  714ETH      C 2860   7.250   0.435   4.999
  714ETH      H 2861   7.079   0.533   4.907
  715ETH      O 2862   4.990   7.071   6.071
  715ETH      C 2863   5.050   7.049   5.840
  715ETH      C 2864   5.087   7.106   5.975
  715ETH      H 2865   5.046   6.937   5.845
  716ETH      O 2866   4.582   7.313   4.191
  716ETH      C 2867   4.668   7.360   4.410
  716ETH      C 2868   4.692   7.366   4.260
  716ETH      H 2869   4.578   7.421   4.437
  717ETH      O 2870   0.380   7.515   5.728
  717ETH      C 2871   0.495   7.316   5.799
  717ETH      C 2872   0.388   7.420   5.830
  717ETH      H 2873   0.469   7.263   5.705
  718ETH      O 2874   7.494   0.346   5.928
  718ETH      C 2875   7.530   0.371   6.164
  718ETH      C 2876   7.592   0.368   6.025
  718ETH      H 2877   7.457   0.455   6.171
  719ETH      O 2878   3.918   1.238   1.884
  719ETH      C 2879   3.900   1.284   2.119
  719ETH      C 2880   3.832   1.230   1.994
  719ETH      H 2881   3.990   1.222   2.142
  720ETH      O 2882   4.823   2.737   5.088
  720ETH      C 2883   4.648   2.726   5.252
  720ETH      C 2884   4.774   2.661   5.196
  720ETH      H 2885   4.672   2.828   5.291
  721ETH      O 2886   2.792   5.063   7.666
  721ETH      C 2887   2.715   5.054   7.438
  721ETH      C 2888   2.677   5.064   7.585
  721ETH      H 2889   2.778   5.142   7.409
  722ETH      O 2890   2.013   5.617   7.478
  722ETH      C 2891   1.991   5.777   7.300
  722ETH      C 2892   1.935   5.652   7.366
  722ETH      H 2893   1.987   5.863   7.371
  723ETH      O 2894   7.686   5.617   8.023
  723ETH      C 2895   7.718   5.577   7.789
  723ETH      C 2896   7.781   5.582   7.927
  723ETH      H 2897   7.637   5.501   7.786
  724ETH      O 2898   7.791   6.060   4.101
  724ETH      C 2899   7.797   6.099   4.338
  724ETH      C 2900   7.860   6.128   4.203
  724ETH      H 2901   7.691   6.135   4.339
  725ETH      O 2902   1.007   0.999   3.901
  725ETH      C 2903   1.115   1.141   4.061
  725ETH      C 2904   0.988   1.110   3.984
  725ETH      H 2905   1.142   1.055   4.127
  726ETH      O 2906   1.155   7.508   6.062
  726ETH      C 2907   1.293   7.692   5.992
  726ETH      C 2908   1.163   7.614   5.971
  726ETH      H 2909   1.295   7.735   6.095
  727ETH      O 2910   5.354   4.940   3.050
  727ETH      C 2911   5.310   5.106   3.219
  727ETH      C 2912   5.285   4.964   3.170
  727ETH      H 2913   5.418   5.120   3.240
  728ETH      O 2914   2.503   7.695   0.692
  728ETH      C 2915   2.333   7.788   0.551
  728ETH      C 2916   2.403   7.663   0.600
  728ETH      H 2917   2.284   7.840   0.636
  729ETH      O 2918   0.443   6.254   0.540
  729ETH      C 2919   0.304   6.219   0.732
  729ETH      C 2920   0.312   6.262   0.586
  729ETH      H 2921   0.337   6.113   0.742
  730ETH      O 2922   7.868   7.863   1.981
  730ETH      C 2923   7.687   7.758   2.099
  730ETH      C 2924   7.754   7.783   1.965
  730ETH      H 2925   7.757   7.704   2.167
  731ETH      O 2926   5.535   1.315   1.218
  731ETH      C 2927   5.476   1.385   0.996
  731ETH      C 2928   5.427   1.331   1.129
  731ETH      H 2929   5.523   1.485   1.010
  732ETH      O 2930   5.105   0.553   6.541
  732ETH      C 2931   5.058   0.403   6.722
  732ETH      C 2932   5.116   0.420   6.583
  732ETH      H 2933   5.115   0.466   6.795
  733ETH      O 2934   4.935   5.177   3.453
  733ETH      C 2935   5.064   4.989   3.527
  733ETH      C 2936   5.037   5.138   3.541
  733ETH      H 2937   4.972   4.931   3.554
  734ETH      O 2938   5.916   3.080   6.457
  734ETH      C 2939   5.766   3.104   6.271
  734ETH      C 2940   5.874   3.020   6.337
  734ETH      H 2941   5.677   3.112   6.338
  735ETH      O 2942   1.263   2.249   7.330
  735ETH      C 2943   1.149   2.296   7.537
  735ETH      C 2944   1.178   2.341   7.394
  735ETH      H 2945   1.097   2.197   7.536
  736ETH      O 2946   0.574   5.261   7.325
  736ETH      C 2947   0.612   5.161   7.109
  736ETH      C 2948   0.516   5.181   7.226
  736ETH      H 2949   0.635   5.260   7.063
  737ETH      O 2950   5.755   2.633   6.643
  737ETH      C 2951   5.598   2.691   6.471
  737ETH      C 2952   5.736   2.638   6.504
  737ETH      H 2953   5.520   2.623   6.513
  738ETH      O 2954   7.620   5.973   5.839
  738ETH      C 2955   7.717   5.957   5.620
  738ETH      C 2956   7.590   5.956   5.703
  738ETH      H 2957   7.769   6.055   5.631
  739ETH      O 2958   0.863   6.851   4.084
  739ETH      C 2959   0.666   6.946   3.986
  739ETH      C 2960   0.774   6.841   3.976
  739ETH      H 2961   0.606   6.931   4.079
  740ETH      O 2962   3.603   1.764   3.114
  740ETH      C 2963   3.658   1.704   2.889
  740ETH      C 2964   3.680   1.677   3.037
  740ETH      H 2965   3.551   1.687   2.862
  741ETH      O 2966   4.282   1.842   4.047
  741ETH      C 2967   4.240   1.670   4.210
  741ETH      C 2968   4.332   1.782   4.164
  741ETH      H 2969   4.139   1.711   4.233
  742ETH      O 2970   2.716   6.947   3.046
  742ETH      C 2971   2.802   6.887   3.261
  742ETH      C 2972   2.696   6.962   3.183
  742ETH      H 2973   2.796   6.778   3.238
  743ETH      O 2974   2.091   5.614   0.428
  743ETH      C 2975   1.917   5.487   0.533
  743ETH      C 2976   2.008   5.503   0.412
  743ETH      H 2977   1.979   5.470   0.625
  744ETH      O 2978   1.863   4.548   6.044
  744ETH      C 2979   1.829   4.316   6.097
  744ETH      C 2980   1.879   4.417   5.995
  744ETH      H 2981   1.888   4.324   6.191
  745ETH      O 2982   1.164   5.901   0.658
  745ETH      C 2983   0.965   6.035   0.663
  745ETH      C 2984   1.026   5.899   0.635
  745ETH      H 2985   0.980   6.062   0.770
  746ETH      O 2986   6.026   5.021   6.124
  746ETH      C 2987   6.042   5.115   6.344
  746ETH      C 2988   6.098   5.112   6.203
  746ETH      H 2989   5.935   5.148   6.342
  747ETH      O 2990   2.696   4.258   0.849
  747ETH      C 2991   2.784   4.056   0.754
  747ETH      C 2992   2.672   4.159   0.753
  747ETH      H 2993   2.881   4.105   0.728
  748ETH      O 2994   7.000   0.453   1.723
  748ETH      C 2995   7.023   0.546   1.502
  748ETH      C 2996   6.970   0.431   1.587
  748ETH      H 2997   6.973   0.641   1.532
  749ETH      O 2998   3.588   6.962   2.402
  749ETH      C 2999   3.566   6.735   2.478
  749ETH      C 3000   3.616   6.828   2.369
  749ETH      H 3001   3.617   6.758   2.574
  750ETH      O 3002   3.106   1.494   6.687
  750ETH      C 3003   3.097   1.710   6.582
  750ETH      C 3004   3.184   1.603   6.646
  750ETH      H 3005   3.046   1.669   6.492
  751ETH      O 3006   4.635   1.400   3.123
  751ETH      C 3007   4.765   1.515   2.957
  751ETH      C 3008   4.712   1.514   3.099
  751ETH      H 3009   4.831   1.426   2.941
  752ETH      O 3010   3.713   4.461   1.715
  752ETH      C 3011   3.840   4.492   1.916
  752ETH      C 3012   3.740   4.406   1.841
  752ETH      H 3013   3.937   4.495   1.860
  753ETH      O 3014   2.107   6.967  -0.028
  753ETH      C 3015   2.131   6.872   0.191
  753ETH      C 3016   2.036   6.916   0.081
  753ETH      H 3017   2.198   6.791   0.154
  754ETH      O 3018   3.115   4.234   5.043
  754ETH      C 3019   3.091   4.344   5.255
  754ETH      C 3020   3.097   4.359   5.104
  754ETH      H 3021   3.004   4.279   5.283
  755ETH      O 3022   6.423   4.666   2.706
  755ETH      C 3023   6.593   4.528   2.805
  755ETH      C 3024   6.445   4.548   2.777
  755ETH      H 3025   6.649   4.520   2.709
  756ETH      O 3026   7.388   3.498   6.412
  756ETH      C 3027   7.406   3.514   6.173
  756ETH      C 3028   7.470   3.544   6.308
  756ETH      H 3029   7.395   3.404   6.160
  757ETH      O 3030   7.674   6.077   0.786
  757ETH      C 3031   7.902   6.148   0.804
  757ETH      C 3032   7.802   6.059   0.733
  757ETH      H 3033   7.875   6.255   0.790
  758ETH      O 3034   3.106   7.553   3.052
  758ETH      C 3035   3.005   7.341   3.102
  758ETH      C 3036   2.999   7.468   3.019
  758ETH      H 3037   3.099   7.286   3.081
  759ETH      O 3038   1.788   2.607   2.441
  759ETH      C 3039   1.754   2.790   2.288
  759ETH      C 3040   1.701   2.658   2.343
  759ETH      H 3041   1.760   2.865   2.370
  760ETH      O 3042   7.666   7.437   1.476
  760ETH      C 3043   7.660   7.479   1.712
  760ETH      C 3044   7.744   7.476   1.585
  760ETH      H 3045   7.577   7.552   1.702
  761ETH      O 3046   7.469   7.556   7.742
  761ETH      C 3047   7.422   7.553   7.978
  761ETH      C 3048   7.421   7.476   7.847
  761ETH      H 3049   7.527   7.583   8.003
  762ETH      O 3050   5.710   2.845   2.395
  762ETH      C 3051   5.698   3.039   2.254
  762ETH      C 3052   5.703   2.985   2.396
  762ETH      H 3053   5.791   3.011   2.199
  763ETH      O 3054   4.831   3.207   3.004
  763ETH      C 3055   4.593   3.188   3.025
  763ETH      C 3056   4.719   3.138   2.957
  763ETH      H 3057   4.599   3.172   3.135
  764ETH      O 3058   3.013   1.960   5.879
  764ETH      C 3059   2.996   2.156   6.017
  764ETH      C 3060   3.033   2.009   6.009
  764ETH      H 3061   3.060   2.216   5.948
  765ETH      O 3062   3.322   2.895   4.341
  765ETH      C 3063   3.116   2.864   4.459
  765ETH      C 3064   3.226   2.960   4.419
  765ETH      H 3065   3.064   2.824   4.368
  766ETH      O 3066   5.983   5.821   4.013
  766ETH      C 3067   6.000   5.815   4.253
  766ETH      C 3068   6.074   5.818   4.120
  766ETH      H 3069   5.938   5.907   4.264
  767ETH      O 3070   1.091   4.393   0.620
  767ETH      C 3071   1.036   4.360   0.388
  767ETH      C 3072   1.044   4.299   0.527
  767ETH      H 3073   0.965   4.446   0.388
  768ETH      O 3074   6.806   6.147   2.197
  768ETH      C 3075   6.664   5.959   2.149
  768ETH      C 3076   6.745   6.075   2.093
  768ETH      H 3077   6.731   5.889   2.204
  769ETH      O 3078   3.728   7.520   6.234
  769ETH      C 3079   3.571   7.343   6.193
  769ETH      C 3080   3.618   7.452   6.288
  769ETH      H 3081   3.537   7.389   6.097
  770ETH      O 3082   4.912   2.832   0.505
  770ETH      C 3083   5.081   2.713   0.628
  770ETH      C 3084   4.946   2.707   0.558
  770ETH      H 3085   5.160   2.742   0.555
  771ETH      O 3086   3.660   6.221   0.279
  771ETH      C 3087   3.838   6.243   0.120
  771ETH      C 3088   3.799   6.236   0.267
  771ETH      H 3089   3.809   6.148   0.068
  772ETH      O 3090   3.920   5.152   7.782
  772ETH      C 3091   4.073   5.026   7.916
  772ETH      C 3092   4.034   5.071   7.777
  772ETH      H 3093   4.098   5.114   7.979
  773ETH      O 3094   7.254   2.032   5.951
  773ETH      C 3095   7.269   1.985   5.716
  773ETH      C 3096   7.344   2.018   5.844
  773ETH      H 3097   7.215   1.888   5.727
  774ETH      O 3098   2.457   4.447   6.562
  774ETH      C 3099   2.344   4.467   6.773
  774ETH      C 3100   2.375   4.379   6.653
  774ETH      H 3101   2.438   4.494   6.826
  775ETH      O 3102   5.223   7.038   6.928
  775ETH      C 3103   5.208   7.011   6.690
  775ETH      C 3104   5.296   7.044   6.809
  775ETH      H 3105   5.168   6.908   6.700
  776ETH      O 3106   6.517   1.136   0.527
  776ETH      C 3107   6.551   1.035   0.312
  776ETH      C 3108   6.472   1.135   0.395
  776ETH      H 3109   6.659   1.063   0.311
  777ETH      O 3110   4.377   1.189   6.263
  777ETH      C 3111   4.258   1.396   6.292
  777ETH      C 3112   4.345   1.311   6.201
  777ETH      H 3113   4.162   1.343   6.314
  778ETH      O 3114   0.822   7.397   3.805
  778ETH      C 3115   0.914   7.611   3.864
  778ETH      C 3116   0.806   7.535   3.789
  778ETH      H 3117   0.907   7.589   3.973
  779ETH      O 3118   7.638   3.436   1.570
  779ETH      C 3119   7.556   3.405   1.794
  779ETH      C 3120   7.523   3.408   1.645
  779ETH      H 3121   7.630   3.325   1.815
  780ETH      O 3122   2.415   7.296   5.053
  780ETH      C 3123   2.563   7.443   4.933
  780ETH      C 3124   2.421   7.390   4.950
  780ETH      H 3125   2.596   7.493   5.027
  781ETH      O 3126   6.284   0.935   0.442
  781ETH      C 3127   6.066   0.995   0.362
  781ETH      C 3128   6.198   1.043   0.420
  781ETH      H 3129   6.083   0.944   0.264
  782ETH      O 3130   2.439   7.186   4.425
  782ETH      C 3131   2.623   7.062   4.333
  782ETH      C 3132   2.540   7.093   4.456
  782ETH      H 3133   2.559   7.017   4.254
  783ETH      O 3134   5.634   3.049   4.428
  783ETH      C 3135   5.462   3.100   4.269
  783ETH      C 3136   5.518   3.125   4.408
  783ETH      H 3137   5.537   3.132   4.192
  784ETH      O 3138   2.693   2.779   0.411
  784ETH      C 3139   2.544   2.962   0.454
  784ETH      C 3140   2.688   2.915   0.444
  784ETH      H 3141   2.493   2.950   0.356
  785ETH      O 3142   2.028   1.116   2.016
  785ETH      C 3143   2.227   0.996   2.077
  785ETH      C 3144   2.145   1.059   1.965
  785ETH      H 3145   2.256   1.074   2.151
  786ETH      O 3146   7.543   6.854   4.725
  786ETH      C 3147   7.476   6.910   4.502
  786ETH      C 3148   7.440   6.839   4.631
  786ETH      H 3149   7.489   7.019   4.520
  787ETH      O 3150   6.505   0.895   2.647
  787ETH      C 3151   6.542   1.126   2.699
  787ETH      C 3152   6.515   0.986   2.753
  787ETH      H 3153   6.639   1.128   2.644
  788ETH      O 3154   4.328   7.360   6.545
  788ETH      C 3155   4.338   7.414   6.311
  788ETH      C 3156   4.337   7.304   6.417
  788ETH      H 3157   4.243   7.472   6.317
  789ETH      O 3158   7.797   0.822   4.783
  789ETH      C 3159   7.639   0.953   4.658
  789ETH      C 3160   7.675   0.816   4.714
  789ETH      H 3161   7.628   1.026   4.741
  790ETH      O 3162   6.815   5.384   3.992
  790ETH      C 3163   6.701   5.328   3.789
  790ETH      C 3164   6.772   5.277   3.913
  790ETH      H 3165   6.611   5.387   3.818
  791ETH      O 3166   6.779   3.503   4.120
  791ETH      C 3167   6.894   3.398   4.302
  791ETH      C 3168   6.849   3.387   4.158
  791ETH      H 3169   6.963   3.484   4.315
  792ETH      O 3170   4.309   2.923   5.772
  792ETH      C 3171   4.359   2.897   6.006
  792ETH      C 3172   4.380   2.844   5.864
  792ETH      H 3173   4.398   3.001   6.014
  793ETH      O 3174   0.536   0.384   6.272
  793ETH      C 3175   0.546   0.374   6.033
  793ETH      C 3176   0.495   0.310   6.161
  793ETH      H 3177   0.504   0.477   6.022
  794ETH      O 3178   6.803   4.204   4.611
  794ETH      C 3179   7.004   4.243   4.486
  794ETH      C 3180   6.934   4.158   4.592
  794ETH      H 3181   6.950   4.234   4.389
  795ETH      O 3182   3.240   3.404   3.972
  795ETH      C 3183   3.284   3.355   4.203
  795ETH      C 3184   3.194   3.425   4.103
  795ETH      H 3185   3.284   3.245   4.184
  796ETH      O 3186   4.919   7.718   1.366
  796ETH      C 3187   4.820   7.730   1.148
  796ETH      C 3188   4.942   7.693   1.231
  796ETH      H 3189   4.733   7.668   1.179
  797ETH      O 3190   3.934   5.678   4.822
  797ETH      C 3191   3.758   5.806   4.722
  797ETH      C 3192   3.906   5.771   4.721
  797ETH      H 3193   3.697   5.715   4.701
  798ETH      O 3194   4.624   7.552   6.423
  798ETH      C 3195   4.767   7.408   6.295
  798ETH      C 3196   4.631   7.474   6.306
  798ETH      H 3197   4.847   7.486   6.288
  799ETH      O 3198   3.809   1.669   1.490
  799ETH      C 3199   3.734   1.449   1.430
  799ETH      C 3200   3.853   1.541   1.454
  799ETH      H 3201   3.675   1.439   1.524
  800ETH      O 3202   0.177   5.326   1.137
  800ETH      C 3203   0.326   5.428   1.295
  800ETH      C 3204   0.284   5.301   1.224
  800ETH      H 3205   0.361   5.504   1.221
  801ETH      O 3206   1.873   7.363   6.385
  801ETH      C 3207   1.847   7.601   6.379
  801ETH      C 3208   1.920   7.480   6.324
  801ETH      H 3209   1.738   7.594   6.358
  802ETH      O 3210   5.509   1.016  -0.069
  802ETH      C 3211   5.360   0.937   0.101
  802ETH      C 3212   5.426   1.057   0.036
  802ETH      H 3213   5.296   0.884   0.027
  803ETH      O 3214   6.977   2.858   3.946
  803ETH      C 3215   7.058   3.029   4.093
  803ETH      C 3216   7.083   2.893   4.031
  803ETH      H 3217   7.051   3.107   4.013
  804ETH      O 3218   0.339   1.959   1.007
  804ETH      C 3219   0.287   1.949   0.772
  804ETH      C 3220   0.285   1.877   0.906
  804ETH      H 3221   0.225   2.042   0.778
  805ETH      O 3222   0.201   5.821   2.148
  805ETH      C 3223   0.231   6.059   2.153
  805ETH      C 3224   0.134   5.943   2.164
  805ETH      H 3225   0.308   6.052   2.234
  806ETH      O 3226   4.687   3.330   6.350
  806ETH      C 3227   4.741   3.106   6.419
  806ETH      C 3228   4.632   3.209   6.394
  806ETH      H 3229   4.796   3.086   6.325
  807ETH      O 3230   4.201   4.245   5.421
  807ETH      C 3231   4.114   4.385   5.246
  807ETH      C 3232   4.097   4.259   5.329
  807ETH      H 3233   4.112   4.474   5.313
  808ETH      O 3234   2.789   5.264   1.692
  808ETH      C 3235   2.923   5.360   1.866
  808ETH      C 3236   2.809   5.380   1.768
  808ETH      H 3237   2.899   5.277   1.937
  809ETH      O 3238   2.603   2.951   7.415
  809ETH      C 3239   2.672   2.725   7.460
  809ETH      C 3240   2.594   2.819   7.368
  809ETH      H 3241   2.779   2.753   7.461
  810ETH      O 3242   3.483   6.011   4.484
  810ETH      C 3243   3.582   6.167   4.330
  810ETH      C 3244   3.456   6.122   4.402
  810ETH      H 3245   3.660   6.198   4.404
  811ETH      O 3246   6.916   2.020   3.510
  811ETH      C 3247   7.057   2.145   3.361
  811ETH      C 3248   7.007   2.008   3.404
  811ETH      H 3249   6.972   2.207   3.325
  812ETH      O 3250   4.929   4.313   4.909
  812ETH      C 3251   4.870   4.341   5.140
  812ETH      C 3252   4.947   4.260   5.037
  812ETH      H 3253   4.907   4.446   5.142
  813ETH      O 3254   3.914   0.946   1.684
  813ETH      C 3255   3.861   0.944   1.918
  813ETH      C 3256   3.815   0.978   1.777
  813ETH      H 3257   3.880   0.834   1.926
  814ETH      O 3258   1.806   5.815   6.588
  814ETH      C 3259   1.836   5.981   6.417
  814ETH      C 3260   1.844   5.948   6.565
  814ETH      H 3261   1.906   5.915   6.360
  815ETH      O 3262   1.284   1.176   0.479
  815ETH      C 3263   1.222   1.238   0.703
  815ETH      C 3264   1.264   1.126   0.608
  815ETH      H 3265   1.303   1.315   0.708
  816ETH      O 3266   7.337   0.190   2.775
  816ETH      C 3267   7.385   0.088   2.563
  816ETH      C 3268   7.441   0.153   2.688
  816ETH      H 3269   7.329  -0.004   2.590
  817ETH      O 3270   0.966   3.470   2.910
  817ETH      C 3271   1.018   3.499   2.677
  817ETH      C 3272   1.039   3.548   2.819
  817ETH      H 3273   1.053   3.394   2.667
  818ETH      O 3274   5.820   2.592   5.940
  818ETH      C 3275   5.916   2.387   6.019
  818ETH      C 3276   5.803   2.453   5.943
  818ETH      H 3277   6.013   2.408   5.968
  819ETH      O 3278   7.054   2.759   5.731
  819ETH      C 3279   6.899   2.885   5.865
  819ETH      C 3280   6.988   2.761   5.854
  819ETH      H 3281   6.962   2.977   5.859
  820ETH      O 3282   4.600   1.483   5.976
  820ETH      C 3283   4.552   1.596   6.182
  820ETH      C 3284   4.497   1.538   6.053
  820ETH      H 3285   4.600   1.515   6.243
  821ETH      O 3286   4.586   5.081   7.570
  821ETH      C 3287   4.368   5.155   7.500
  821ETH      C 3288   4.452   5.094   7.611
  821ETH      H 3289   4.406   5.257   7.475
  822ETH      O 3290   5.085   3.559   3.762
  822ETH      C 3291   5.285   3.672   3.693
  822ETH      C 3292   5.215   3.593   3.802
  822ETH      H 3293   5.294   3.611   3.601
  823ETH      O 3294   0.634   4.181   5.200
  823ETH      C 3295   0.574   4.116   4.977
  823ETH      C 3296   0.573   4.080   5.125
  823ETH      H 3297   0.515   4.209   4.961
  824ETH      O 3298   7.457   1.886   7.761
  824ETH      C 3299   7.689   1.862   7.704
  824ETH      C 3300   7.551   1.908   7.659
  824ETH      H 3301   7.722   1.921   7.793
  825ETH      O 3302   0.012   5.351   4.778
  825ETH      C 3303   0.027   5.275   5.005
  825ETH      C 3304   0.102   5.321   4.881
  825ETH      H 3305  -0.040   5.357   5.041
  826ETH      O 3306   3.973   2.491   5.188
  826ETH      C 3307   3.877   2.372   5.373
  826ETH      C 3308   3.879   2.393   5.222
  826ETH      H 3309   3.977   2.336   5.408
  827ETH      O 3310   2.920   7.337   2.348
  827ETH      C 3311   3.026   7.423   2.151
  827ETH      C 3312   3.041   7.341   2.278
  827ETH      H 3313   2.951   7.376   2.084
  828ETH      O 3314   6.800   3.685   3.006
  828ETH      C 3315   6.663   3.612   3.190
  828ETH      C 3316   6.691   3.603   3.040
  828ETH      H 3317   6.751   3.577   3.247
  829ETH      O 3318   1.072   1.518   2.911
  829ETH      C 3319   1.221   1.424   2.747
  829ETH      C 3320   1.202   1.469   2.892
  829ETH      H 3321   1.150   1.342   2.723
  830ETH      O 3322   4.509   5.461   3.487
  830ETH      C 3323   4.520   5.475   3.247
  830ETH      C 3324   4.593   5.494   3.380
  830ETH      H 3325   4.490   5.368   3.235
  831ETH      O 3326   2.410   3.546   0.579
  831ETH      C 3327   2.381   3.522   0.816
  831ETH      C 3328   2.315   3.522   0.679
  831ETH      H 3329   2.457   3.440   0.821
  832ETH      O 3330   5.516   7.663   4.367
  832ETH      C 3331   5.728   7.758   4.307
  832ETH      C 3332   5.580   7.782   4.332
  832ETH      H 3333   5.776   7.720   4.400
  833ETH      O 3334   0.812   2.841   1.969
  833ETH      C 3335   0.608   2.853   1.843
  833ETH      C 3336   0.731   2.927   1.893
  833ETH      H 3337   0.639   2.769   1.776
  834ETH      O 3338   0.430   2.786   2.178
  834ETH      C 3339   0.531   2.899   2.364
  834ETH      C 3340   0.452   2.912   2.235
  834ETH      H 3341   0.474   2.838   2.438
  835ETH      O 3342   3.280   7.818   5.820
  835ETH      C 3343   3.133   7.710   5.975
  835ETH      C 3344   3.150   7.770   5.836
  835ETH      H 3345   3.202   7.624   5.988
  836ETH      O 3346   5.320   6.636   6.688
  836ETH      C 3347   5.395   6.440   6.804
  836ETH      C 3348   5.323   6.573   6.813
  836ETH      H 3349   5.341   6.372   6.734
  837ETH      O 3350   1.252   0.504   4.080
  837ETH      C 3351   1.300   0.469   4.313
  837ETH      C 3352   1.323   0.423   4.170
  837ETH      H 3353   1.338   0.574   4.325
  838ETH      O 3354   6.900   3.400   3.636
  838ETH      C 3355   6.969   3.489   3.424
  838ETH      C 3356   6.898   3.515   3.556
  838ETH      H 3357   7.076   3.464   3.444
  839ETH      O 3358   0.025   0.737   1.412
  839ETH      C 3359  -0.010   0.834   1.195
  839ETH      C 3360   0.078   0.827   1.319
  839ETH      H 3361  -0.015   0.734   1.146
  840ETH      O 3362   3.882   6.159   6.881
  840ETH      C 3363   3.893   6.083   6.654
  840ETH      C 3364   3.964   6.094   6.788
  840ETH      H 3365   3.800   6.023   6.664
  841ETH      O 3366   4.217   2.486   4.233
  841ETH      C 3367   4.156   2.456   4.003
  841ETH      C 3368   4.114   2.443   4.149
  841ETH      H 3369   4.178   2.563   3.979
  842ETH      O 3370   7.057   1.619   3.376
  842ETH      C 3371   7.160   1.619   3.593
  842ETH      C 3372   7.089   1.700   3.485
  842ETH      H 3373   7.092   1.538   3.629
  843ETH      O 3374   7.655   6.324   7.335
  843ETH      C 3375   7.682   6.105   7.429
  843ETH      C 3376   7.748   6.221   7.357
  843ETH      H 3377   7.643   6.138   7.529
  844ETH      O 3378   4.434   1.821   5.241
  844ETH      C 3379   4.353   1.607   5.170
  844ETH      C 3380   4.384   1.698   5.287
  844ETH      H 3381   4.275   1.653   5.105
  845ETH      O 3382   5.052   4.971   5.388
  845ETH      C 3383   5.137   4.912   5.171
  845ETH      C 3384   5.095   5.024   5.265
  845ETH      H 3385   5.223   4.855   5.216
  846ETH      O 3386   6.863   7.289   2.175
  846ETH      C 3387   6.788   7.278   1.947
  846ETH      C 3388   6.749   7.278   2.094
  846ETH      H 3389   6.839   7.374   1.921
  847ETH      O 3390   4.679   4.009   4.453
  847ETH      C 3391   4.745   4.040   4.224
  847ETH      C 3392   4.639   4.064   4.330
  847ETH      H 3393   4.840   4.090   4.254
  848ETH      O 3394   0.559   7.720   2.201
  848ETH      C 3395   0.765   7.830   2.256
  848ETH      C 3396   0.627   7.789   2.303
  848ETH      H 3397   0.825   7.740   2.230
  849ETH      O 3398   6.176   1.153   7.660
  849ETH      C 3399   5.967   1.075   7.571
  849ETH      C 3400   6.037   1.169   7.667
  849ETH      H 3401   5.998   1.097   7.466
  850ETH      O 3402   1.728   5.566   5.812
  850ETH      C 3403   1.697   5.605   6.047
  850ETH      C 3404   1.688   5.661   5.906
  850ETH      H 3405   1.629   5.517   6.057
  851ETH      O 3406   2.184   6.232   2.403
  851ETH      C 3407   2.004   6.380   2.460
  851ETH      C 3408   2.111   6.343   2.359
  851ETH      H 3409   1.932   6.296   2.472
  852ETH      O 3410   7.031   0.340   6.738
  852ETH      C 3411   7.086   0.123   6.651
  852ETH      C 3412   7.013   0.203   6.758
  852ETH      H 3413   7.045   0.148   6.550
  853ETH      O 3414   5.099   3.232   2.550
  853ETH      C 3415   5.177   3.457   2.519
  853ETH      C 3416   5.202   3.309   2.493
  853ETH      H 3417   5.081   3.488   2.471
  854ETH      O 3418   6.737   4.826   5.339
  854ETH      C 3419   6.778   4.681   5.152
  854ETH      C 3420   6.837   4.776   5.255
  854ETH      H 3421   6.730   4.594   5.203
  855ETH      O 3422   2.590   2.619   4.613
  855ETH      C 3423   2.466   2.808   4.694
  855ETH      C 3424   2.493   2.713   4.578
  855ETH      H 3425   2.428   2.750   4.782
  856ETH      O 3426   1.941   4.675   5.347
  856ETH      C 3427   1.926   4.564   5.135
  856ETH      C 3428   1.934   4.549   5.286
  856ETH      H 3429   1.834   4.620   5.107
  857ETH      O 3430   5.096   1.765   0.889
  857ETH      C 3431   5.128   1.553   0.780
  857ETH      C 3432   5.058   1.688   0.778
  857ETH      H 3433   5.238   1.568   0.774
  858ETH      O 3434   2.933   7.041   6.265
  858ETH      C 3435   2.922   6.878   6.440
  858ETH      C 3436   2.845   6.967   6.345
  858ETH      H 3437   2.984   6.805   6.383
  859ETH      O 3438   3.143   6.524   0.471
  859ETH      C 3439   3.336   6.666   0.484
  859ETH      C 3440   3.205   6.623   0.548
  859ETH      H 3441   3.406   6.579   0.478
  860ETH      O 3442   7.329   6.298   2.417
  860ETH      C 3443   7.244   6.454   2.579
  860ETH      C 3444   7.212   6.356   2.467
  860ETH      H 3445   7.294   6.400   2.663
  861ETH      O 3446   7.707   1.364   7.133
  861ETH      C 3447   7.587   1.219   7.282
  861ETH      C 3448   7.719   1.288   7.250
  861ETH      H 3449   7.507   1.294   7.299
  862ETH      O 3450   3.115   1.263   7.062
  862ETH      C 3451   3.140   1.178   7.285
  862ETH      C 3452   3.117   1.299   7.197
  862ETH      H 3453   3.058   1.104   7.272
  863ETH      O 3454   7.732   6.264   0.854
  863ETH      C 3455   7.744   6.255   1.094
  863ETH      C 3456   7.817   6.282   0.964
  863ETH      H 3457   7.659   6.327   1.105
  864ETH      O 3458   6.736   7.601   1.185
  864ETH      C 3459   6.680   7.669   0.962
  864ETH      C 3460   6.646   7.580   1.080
  864ETH      H 3461   6.672   7.776   0.991
  865ETH      O 3462   1.724   0.831   0.691
  865ETH      C 3463   1.560   0.674   0.767
  865ETH      C 3464   1.699   0.695   0.709
  865ETH      H 3465   1.552   0.723   0.867
  866ETH      O 3466   0.927   7.781   1.567
  866ETH      C 3467   0.847   7.826   1.788
  866ETH      C 3468   0.924   7.732   1.698
  866ETH      H 3469   0.897   7.926   1.791
  867ETH      O 3470   2.476   4.380   0.480
  867ETH      C 3471   2.438   4.614   0.522
  867ETH      C 3472   2.521   4.490   0.555
  867ETH      H 3473   2.450   4.640   0.414
  868ETH      O 3474   0.680   0.749   0.951
  868ETH      C 3475   0.575   0.915   0.813
  868ETH      C 3476   0.625   0.878   0.952
  868ETH      H 3477   0.660   0.916   0.741
  869ETH      O 3478   3.749   3.273   4.091
  869ETH      C 3479   3.851   3.163   4.278
  869ETH      C 3480   3.782   3.147   4.143
  869ETH      H 3481   3.946   3.220   4.266
  870ETH      O 3482   6.429   5.030   2.642
  870ETH      C 3483   6.634   5.012   2.766
  870ETH      C 3484   6.568   5.013   2.629
  870ETH      H 3485   6.617   5.109   2.817
  871ETH      O 3486   1.322   7.675   7.561
  871ETH      C 3487   1.380   7.634   7.790
  871ETH      C 3488   1.360   7.575   7.651
  871ETH      H 3489   1.461   7.710   7.788
  872ETH      O 3490   1.174   3.711   5.494
  872ETH      C 3491   1.193   3.605   5.279
  872ETH      C 3492   1.185   3.736   5.357
  872ETH      H 3493   1.283   3.548   5.310
  873ETH      O 3494   2.138   4.959   0.126
  873ETH      C 3495   2.271   5.150   0.185
  873ETH      C 3496   2.154   5.061   0.221
  873ETH      H 3497   2.365   5.091   0.183
  874ETH      O 3498   5.434   5.124   6.212
  874ETH      C 3499   5.663   5.126   6.284
  874ETH      C 3500   5.562   5.169   6.178
  874ETH      H 3501   5.636   5.171   6.383
  875ETH      O 3502   5.789   3.734   1.878
  875ETH      C 3503   5.767   3.962   1.805
  875ETH      C 3504   5.735   3.859   1.912
  875ETH      H 3505   5.877   3.975   1.796
  876ETH      O 3506   6.202   1.290   4.035
  876ETH      C 3507   6.289   1.069   4.072
  876ETH      C 3508   6.176   1.167   4.098
  876ETH      H 3509   6.299   1.050   3.963
  877ETH      O 3510   7.264   5.475   3.060
  877ETH      C 3511   7.405   5.582   2.898
  877ETH      C 3512   7.265   5.536   2.933
  877ETH      H 3513   7.440   5.658   2.972
  878ETH      O 3514   7.176   5.230   6.946
  878ETH      C 3515   7.260   5.197   6.724
  878ETH      C 3516   7.173   5.281   6.816
  878ETH      H 3517   7.366   5.200   6.759
  879ETH      O 3518   7.538   3.720   5.012
  879ETH      C 3519   7.746   3.616   4.951
  879ETH      C 3520   7.594   3.611   4.944
  879ETH      H 3521   7.784   3.709   4.902
  880ETH      O 3522   0.701   5.373   5.204
  880ETH      C 3523   0.627   5.447   4.988
  880ETH      C 3524   0.588   5.385   5.121
  880ETH      H 3525   0.668   5.550   5.004
  881ETH      O 3526   7.358   0.983   1.997
  881ETH      C 3527   7.428   0.883   2.203
  881ETH      C 3528   7.467   0.925   2.063
  881ETH      H 3529   7.396   0.972   2.263
  882ETH      O 3530   5.607   4.078   1.500
  882ETH      C 3531   5.489   4.036   1.705
  882ETH      C 3532   5.572   3.978   1.591
  882ETH      H 3533   5.549   4.112   1.760
  883ETH      O 3534   6.879   6.071   0.872
  883ETH      C 3535   7.042   5.918   0.959
  883ETH      C 3536   6.904   5.979   0.975
  883ETH      H 3537   7.049   5.862   0.863
  884ETH      O 3538   5.825   4.711   7.138
  884ETH      C 3539   5.853   4.754   7.373
  884ETH      C 3540   5.788   4.797   7.243
  884ETH      H 3541   5.819   4.651   7.400
  885ETH      O 3542   7.180   6.741   4.502
  885ETH      C 3543   7.124   6.868   4.697
  885ETH      C 3544   7.231   6.791   4.622
  885ETH      H 3545   7.089   6.955   4.637
  886ETH      O 3546   4.875   2.066   3.831
  886ETH      C 3547   4.752   2.173   4.008
  886ETH      C 3548   4.827   2.049   3.962
  886ETH      H 3549   4.821   2.261   4.009
  887ETH      O 3550   6.576   7.422   5.713
  887ETH      C 3551   6.507   7.290   5.525
  887ETH      C 3552   6.609   7.310   5.636
  887ETH      H 3553   6.406   7.273   5.568
  888ETH      O 3554   1.694   6.214   2.660
  888ETH      C 3555   1.903   6.099   2.634
  888ETH      C 3556   1.808   6.204   2.580
  888ETH      H 3557   1.936   6.127   2.737
  889ETH      O 3558   5.848   4.960   3.734
  889ETH      C 3559   5.710   4.947   3.538
  889ETH      C 3560   5.729   5.007   3.677
  889ETH      H 3561   5.793   4.977   3.472
  890ETH      O 3562   5.071   1.945   1.027
  890ETH      C 3563   5.216   2.059   0.873
  890ETH      C 3564   5.203   1.952   0.980
  890ETH      H 3565   5.150   2.036   0.786
  891ETH      O 3566   7.415   0.540   6.560
  891ETH      C 3567   7.631   0.627   6.617
  891ETH      C 3568   7.541   0.571   6.508
  891ETH      H 3569   7.588   0.722   6.657
  892ETH      O 3570   0.677   0.251   3.303
  892ETH      C 3571   0.772   0.040   3.239
  892ETH      C 3572   0.660   0.140   3.219
  892ETH      H 3573   0.870   0.086   3.213
  893ETH      O 3574   5.046   4.269   2.825
  893ETH      C 3575   5.098   4.208   3.051
  893ETH      C 3576   4.996   4.203   2.938
  893ETH      H 3577   5.191   4.156   3.020
  894ETH      O 3578   2.590   0.701   4.834
  894ETH      C 3579   2.627   0.640   4.605
  894ETH      C 3580   2.688   0.693   4.734
  894ETH      H 3581   2.587   0.538   4.620
  895ETH      O 3582  -0.096   7.758   5.263
  895ETH      C 3583   0.086   7.895   5.339
  895ETH      C 3584  -0.065   7.877   5.330
  895ETH      H 3585   0.131   7.811   5.396
  896ETH      O 3586   4.051   5.861   5.587
  896ETH      C 3587   3.983   5.807   5.811
  896ETH      C 3588   3.984   5.766   5.665
  896ETH      H 3589   4.088   5.815   5.849
  897ETH      O 3590   2.174   5.416   5.144
  897ETH      C 3591   1.969   5.453   5.024
  897ETH      C 3592   2.112   5.499   5.050
  897ETH      H 3593   1.970   5.349   4.982
  898ETH      O 3594   6.339   0.425   6.563
  898ETH      C 3595   6.434   0.333   6.363
  898ETH      C 3596   6.315   0.337   6.457
  898ETH      H 3597   6.451   0.434   6.319
  899ETH      O 3598   1.185   4.977   3.292
  899ETH      C 3599   1.168   5.068   3.513
  899ETH      C 3600   1.169   4.943   3.427
  899ETH      H 3601   1.265   5.122   3.503
  900ETH      O 3602   4.621   2.342   0.295
  900ETH      C 3603   4.685   2.312   0.066
  900ETH      C 3604   4.635   2.247   0.194
  900ETH      H 3605   4.612   2.388   0.030
  901ETH      O 3606   3.365   3.588   7.101
  901ETH      C 3607   3.563   3.576   6.966
  901ETH      C 3608   3.431   3.512   7.004
  901ETH      H 3609   3.545   3.677   6.923
  902ETH      O 3610   7.809   7.819   5.976
  902ETH      C 3611   7.854   7.835   5.740
  902ETH      C 3612   7.885   7.887   5.880
  902ETH      H 3613   7.880   7.726   5.734
  903ETH      O 3614   2.289   4.108   1.288
  903ETH      C 3615   2.099   4.055   1.425
  903ETH      C 3616   2.216   4.002   1.344
  903ETH      H 3617   2.136   4.118   1.509
  904ETH      O 3618   5.931   5.318   5.076
  904ETH      C 3619   5.891   5.293   5.312
  904ETH      C 3620   5.831   5.318   5.175
  904ETH      H 3621   5.941   5.193   5.314
  905ETH      O 3622   2.588   4.296   4.275
  905ETH      C 3623   2.498   4.200   4.074
  905ETH      C 3624   2.580   4.178   4.201
  905ETH      H 3625   2.394   4.230   4.101
  906ETH      O 3626   1.800   2.189   3.132
  906ETH      C 3627   1.815   1.963   3.054
  906ETH      C 3628   1.819   2.110   3.018
  906ETH      H 3629   1.898   1.939   3.125
  907ETH      O 3630   3.204   6.828   3.593
  907ETH      C 3631   3.145   6.803   3.362
  907ETH      C 3632   3.220   6.746   3.481
  907ETH      H 3633   3.036   6.808   3.385
  908ETH      O 3634   6.380   5.452   1.321
  908ETH      C 3635   6.326   5.286   1.156
  908ETH      C 3636   6.434   5.349   1.243
  908ETH      H 3637   6.246   5.242   1.221
  909ETH      O 3638   4.715   1.084   7.672
  909ETH      C 3639   4.799   1.018   7.886
  909ETH      C 3640   4.832   1.064   7.745
  909ETH      H 3641   4.739   1.096   7.939
  910ETH      O 3642   7.388   0.252   3.546
  910ETH      C 3643   7.289   0.034   3.567
  910ETH      C 3644   7.416   0.116   3.569
  910ETH      H 3645   7.221   0.068   3.649
  911ETH      O 3646   7.382   5.317   0.787
  911ETH      C 3647   7.368   5.305   0.547
  911ETH      C 3648   7.324   5.377   0.674
  911ETH      H 3649   7.478   5.313   0.536
  912ETH      O 3650   7.584   5.425   7.458
  912ETH      C 3651   7.505   5.552   7.645
  912ETH      C 3652   7.623   5.517   7.556
  912ETH      H 3653   7.424   5.599   7.584
  913ETH      O 3654   3.485   5.565   1.013
  913ETH      C 3655   3.453   5.391   0.851
  913ETH      C 3656   3.540   5.506   0.899
  913ETH      H 3657   3.447   5.312   0.930
  914ETH      O 3658   5.930   3.236   0.294
  914ETH      C 3659   5.746   3.084   0.267
  914ETH      C 3660   5.791   3.223   0.307
  914ETH      H 3661   5.771   3.066   0.159
  915ETH      O 3662   7.394   4.982   0.290
  915ETH      C 3663   7.359   4.954   0.054
  915ETH      C 3664   7.424   4.901   0.180
  915ETH      H 3665   7.248   4.954   0.066
  916ETH      O 3666   3.258   5.219   5.393
  916ETH      C 3667   3.204   5.236   5.626
  916ETH      C 3668   3.183   5.292   5.486
  916ETH      H 3669   3.170   5.130   5.631
  917ETH      O 3670   3.481   7.241   3.768
  917ETH      C 3671   3.629   7.221   3.956
  917ETH      C 3672   3.550   7.314   3.865
  917ETH      H 3673   3.559   7.152   4.009
  918ETH      O 3674   1.004   2.100   7.763
  918ETH      C 3675   1.219   2.025   7.686
  918ETH      C 3676   1.128   2.144   7.714
  918ETH      H 3677   1.238   1.969   7.780
  919ETH      O 3678   7.357   0.106   5.496
  919ETH      C 3679   7.588   0.080   5.559
  919ETH      C 3680   7.452   0.139   5.595
  919ETH      H 3681   7.581  -0.031   5.554
  920ETH      O 3682   7.072   7.250  -0.019
  920ETH      C 3683   7.103   7.432   0.135
  920ETH      C 3684   7.169   7.326   0.048
  920ETH      H 3685   7.044   7.502   0.071
  921ETH      O 3686   1.287   7.750   4.526
  921ETH      C 3687   1.153   7.943   4.477
  921ETH      C 3688   1.188   7.800   4.440
  921ETH      H 3689   1.112   7.946   4.581
  922ETH      O 3690   4.036   5.773   7.456
  922ETH      C 3691   3.918   5.594   7.563
  922ETH      C 3692   4.006   5.637   7.447
  922ETH      H 3693   3.971   5.610   7.659
  923ETH      O 3694   7.478   7.127   0.122
  923ETH      C 3695   7.536   7.351   0.058
  923ETH      C 3696   7.536   7.246   0.168
  923ETH      H 3697   7.596   7.315  -0.029
  924ETH      O 3698   2.105   5.316   3.383
  924ETH      C 3699   2.123   5.326   3.622
  924ETH      C 3700   2.154   5.248   3.495
  924ETH      H 3701   2.172   5.426   3.618
  925ETH      O 3702   2.270   2.366   7.501
  925ETH      C 3703   2.068   2.294   7.394
  925ETH      C 3704   2.166   2.407   7.417
  925ETH      H 3705   2.119   2.208   7.344
  926ETH      O 3706   0.935   1.529   7.455
  926ETH      C 3707   1.107   1.525   7.287
  926ETH      C 3708   0.958   1.533   7.317
  926ETH      H 3709   1.159   1.612   7.333
  927ETH      O 3710   4.749   1.546   5.060
  927ETH      C 3711   4.775   1.661   5.270
  927ETH      C 3712   4.682   1.627   5.154
  927ETH      H 3713   4.805   1.567   5.322
  928ETH      O 3714   6.053   1.939   3.478
  928ETH      C 3715   6.079   1.966   3.715
  928ETH      C 3716   6.144   1.975   3.578
  928ETH      H 3717   5.992   2.036   3.721
  929ETH      O 3718   1.753   6.428   5.254
  929ETH      C 3719   1.663   6.401   5.475
  929ETH      C 3720   1.635   6.434   5.329
  929ETH      H 3721   1.703   6.297   5.483
  930ETH      O 3722   4.991   2.653   0.889
  930ETH      C 3723   4.772   2.711   0.809
  930ETH      C 3724   4.854   2.634   0.911
  930ETH      H 3725   4.793   2.820   0.818
  931ETH      O 3726   6.467   4.065   3.193
  931ETH      C 3727   6.384   3.901   3.348
  931ETH      C 3728   6.358   3.982   3.222
  931ETH      H 3729   6.474   3.836   3.333
  932ETH      O 3730   5.361   0.218   0.471
  932ETH      C 3731   5.541   0.352   0.556
  932ETH      C 3732   5.407   0.350   0.485
  932ETH      H 3733   5.530   0.309   0.659
  933ETH      O 3734   4.841   7.611   7.558
  933ETH      C 3735   4.701   7.559   7.370
  933ETH      C 3736   4.817   7.516   7.458
  933ETH      H 3737   4.608   7.567   7.432
  934ETH      O 3738   2.197   3.432   7.623
  934ETH      C 3739   2.278   3.207   7.603
  934ETH      C 3740   2.312   3.355   7.604
  934ETH      H 3741   2.234   3.178   7.701
  935ETH      O 3742   5.534   0.014   1.527
  935ETH      C 3743   5.532   0.008   1.287
  935ETH      C 3744   5.567   0.088   1.412
  935ETH      H 3745   5.592  -0.086   1.285
  936ETH      O 3746   4.214   4.130   7.444
  936ETH      C 3747   4.014   4.177   7.569
  936ETH      C 3748   4.085   4.185   7.434
  936ETH      H 3749   4.003   4.071   7.600
  937ETH      O 3750   7.615   6.516   0.269
  937ETH      C 3751   7.567   6.434   0.049
  937ETH      C 3752   7.601   6.400   0.193
  937ETH      H 3753   7.469   6.488   0.045
  938ETH      O 3754   6.594   6.827   3.669
  938ETH      C 3755   6.506   6.709   3.859
  938ETH      C 3756   6.480   6.811   3.749
  938ETH      H 3757   6.530   6.610   3.814
  939ETH      O 3758   4.662   0.877   2.352
  939ETH      C 3759   4.554   0.942   2.557
  939ETH      C 3760   4.626   0.988   2.431
  939ETH      H 3761   4.461   0.887   2.530
  940ETH      O 3762   6.140   5.971   0.553
  940ETH      C 3763   6.044   5.924   0.768
  940ETH      C 3764   6.060   6.024   0.654
  940ETH      H 3765   5.995   5.831   0.731
  941ETH      O 3766   7.357   7.543   7.124
  941ETH      C 3767   7.356   7.444   6.905
  941ETH      C 3768   7.273   7.499   7.020
  941ETH      H 3769   7.421   7.524   6.863
  942ETH      O 3770   6.401   2.697   1.564
  942ETH      C 3771   6.466   2.467   1.539
  942ETH      C 3772   6.486   2.598   1.614
  942ETH      H 3773   6.361   2.432   1.553
  943ETH      O 3774   1.123   7.061   0.140
  943ETH      C 3775   1.099   6.897  -0.035
  943ETH      C 3776   1.044   6.954   0.095
  943ETH      H 3777   1.098   6.976  -0.114
  944ETH      O 3778   7.462   0.489   4.488
  944ETH      C 3779   7.608   0.461   4.299
  944ETH      C 3780   7.533   0.394   4.413
  944ETH      H 3781   7.536   0.511   4.230
  945ETH      O 3782   0.231   0.089   3.774
  945ETH      C 3783   0.404   0.218   3.668
  945ETH      C 3784   0.255   0.195   3.685
  945ETH      H 3785   0.450   0.245   3.766
  946ETH      O 3786   7.409   3.422   5.522
  946ETH      C 3787   7.390   3.306   5.732
  946ETH      C 3788   7.347   3.314   5.586
  946ETH      H 3789   7.500   3.290   5.738
  947ETH      O 3790   6.650   1.921   3.256
  947ETH      C 3791   6.643   1.968   3.021
  947ETH      C 3792   6.590   1.884   3.136
  947ETH      H 3793   6.619   2.075   3.038
  948ETH      O 3794   1.785   0.258   1.119
  948ETH      C 3795   1.803   0.283   0.881
  948ETH      C 3796   1.795   0.352   1.016
  948ETH      H 3797   1.894   0.218   0.876
  949ETH      O 3798   3.216   5.901   4.542
  949ETH      C 3799   3.400   5.769   4.462
  949ETH      C 3800   3.324   5.900   4.453
  949ETH      H 3801   3.441   5.756   4.565
  950ETH      O 3802   5.063   5.127   3.797
  950ETH      C 3803   4.987   5.175   4.019
  950ETH      C 3804   4.984   5.079   3.902
  950ETH      H 3805   5.091   5.184   4.058
  951ETH      O 3806   1.820   4.465   3.836
  951ETH      C 3807   1.596   4.532   3.782
  951ETH      C 3808   1.693   4.417   3.802
  951ETH      H 3809   1.586   4.590   3.877
  952ETH      O 3810   3.135   0.741   0.048
  952ETH      C 3811   2.926   0.806   0.147
  952ETH      C 3812   3.053   0.724   0.160
  952ETH      H 3813   2.952   0.915   0.141
  953ETH      O 3814   3.545   0.348   0.757
  953ETH      C 3815   3.596   0.453   0.967
  953ETH      C 3816   3.646   0.367   0.852
  953ETH      H 3817   3.566   0.553   0.930
  954ETH      O 3818   3.608   6.498   7.197
  954ETH      C 3819   3.583   6.682   7.044
  954ETH      C 3820   3.674   6.573   7.098
  954ETH      H 3821   3.492   6.637   6.998
  955ETH      O 3822   3.504   7.733   4.789
  955ETH      C 3823   3.638   7.748   4.591
  955ETH      C 3824   3.524   7.807   4.672
  955ETH      H 3825   3.733   7.753   4.650
  956ETH      O 3826   4.232   2.804   0.114
  956ETH      C 3827   4.319   2.814   0.338
  956ETH      C 3828   4.346   2.832   0.189
  956ETH      H 3829   4.239   2.884   0.371
  957ETH      O 3830   1.396   6.744   3.215
  957ETH      C 3831   1.392   6.534   3.332
  957ETH      C 3832   1.350   6.611   3.208
  957ETH      H 3833   1.504   6.532   3.340
  958ETH      O 3834   5.861   2.313   7.076
  958ETH      C 3835   5.894   2.238   7.302
  958ETH      C 3836   5.851   2.202   7.160
  958ETH      H 3837   6.000   2.271   7.302
  959ETH      O 3838   5.186   0.502   2.147
  959ETH      C 3839   5.053   0.441   1.956
  959ETH      C 3840   5.190   0.438   2.022
  959ETH      H 3841   4.979   0.387   2.019
  960ETH      O 3842   4.142   0.664   1.376
  960ETH      C 3843   4.290   0.786   1.522
  960ETH      C 3844   4.273   0.714   1.389
  960ETH      H 3845   4.220   0.872   1.528
  961ETH      O 3846   5.529   4.258   6.075
  961ETH      C 3847   5.574   4.064   5.940
  961ETH      C 3848   5.567   4.123   6.080
  961ETH      H 3849   5.473   4.069   5.892
  962ETH      O 3850   1.896   0.159   2.372
  962ETH      C 3851   1.793   0.233   2.577
  962ETH      C 3852   1.920   0.226   2.493
  962ETH      H 3853   1.715   0.291   2.522
  963ETH      O 3854   1.518   2.703   1.443
  963ETH      C 3855   1.425   2.520   1.319
  963ETH      C 3856   1.525   2.564   1.425
  963ETH      H 3857   1.322   2.545   1.351
  964ETH      O 3858   4.193   3.388   5.670
  964ETH      C 3859   4.364   3.329   5.829
  964ETH      C 3860   4.296   3.440   5.750
  964ETH      H 3861   4.290   3.279   5.896
  965ETH      O 3862   0.899   6.573   3.744
  965ETH      C 3863   0.898   6.497   3.516
  965ETH      C 3864   0.868   6.611   3.612
  965ETH      H 3865   1.007   6.473   3.519
  966ETH      O 3866   6.960   0.029   2.382
  966ETH      C 3867   6.918   0.025   2.146
  966ETH      C 3868   6.869  -0.015   2.284
  966ETH      H 3869   6.925   0.136   2.138
  967ETH      O 3870   3.312   2.452   2.693
  967ETH      C 3871   3.472   2.545   2.540
  967ETH      C 3872   3.447   2.484   2.677
  967ETH      H 3873   3.446   2.472   2.460
  968ETH      O 3874   5.479   6.945   3.434
  968ETH      C 3875   5.674   6.816   3.380
  968ETH      C 3876   5.603   6.950   3.369
  968ETH      H 3877   5.693   6.791   3.487
  969ETH      O 3878   2.632   1.217   5.234
  969ETH      C 3879   2.609   0.979   5.243
  969ETH      C 3880   2.596   1.104   5.159
  969ETH      H 3881   2.715   0.965   5.276
  970ETH      O 3882   4.379   1.221   0.945
  970ETH      C 3883   4.257   1.419   1.005
  970ETH      C 3884   4.369   1.358   0.921
  970ETH      H 3885   4.160   1.373   0.977
  971ETH      O 3886   3.213   1.868   4.061
  971ETH      C 3887   3.068   1.993   3.916
  971ETH      C 3888   3.185   1.997   4.014
  971ETH      H 3889   3.095   1.930   3.828
  972ETH      O 3890   1.667   6.900   4.122
  972ETH      C 3891   1.825   6.986   4.281
  972ETH      C 3892   1.680   6.950   4.252
  972ETH      H 3893   1.889   6.895   4.273
  973ETH      O 3894   4.511   3.827   2.460
  973ETH      C 3895   4.291   3.911   2.505
  973ETH      C 3896   4.404   3.821   2.551
  973ETH      H 3897   4.325   4.017   2.502
  974ETH      O 3898   2.255   4.839   3.317
  974ETH      C 3899   2.458   4.799   3.195
  974ETH      C 3900   2.314   4.848   3.190
  974ETH      H 3901   2.518   4.863   3.264
  975ETH      O 3902   5.108   0.985   6.394
  975ETH      C 3903   5.338   0.924   6.362
  975ETH      C 3904   5.211   0.905   6.444
  975ETH      H 3905   5.320   0.893   6.256
  976ETH      O 3906   1.291   6.049   7.416
  976ETH      C 3907   1.121   5.963   7.564
  976ETH      C 3908   1.236   5.931   7.469
  976ETH      H 3909   1.158   6.025   7.649
  977ETH      O 3910   0.943   1.173   2.466
  977ETH      C 3911   0.832   1.294   2.291
  977ETH      C 3912   0.959   1.277   2.373
  977ETH      H 3913   0.811   1.201   2.233
  978ETH      O 3914   1.427   6.900   2.954
  978ETH      C 3915   1.255   6.795   2.824
  978ETH      C 3916   1.401   6.794   2.865
  978ETH      H 3917   1.190   6.780   2.913
  979ETH      O 3918   0.955   0.314   5.767
  979ETH      C 3919   1.057   0.162   5.922
  979ETH      C 3920   1.060   0.300   5.859
  979ETH      H 3921   0.962   0.148   5.978
  980ETH      O 3922   5.172   7.557   2.147
  980ETH      C 3923   5.023   7.473   1.979
  980ETH      C 3924   5.166   7.507   2.017
  980ETH      H 3925   4.983   7.394   2.048
  981ETH      O 3926   2.022   7.230   0.176
  981ETH      C 3927   2.030   7.320   0.399
  981ETH      C 3928   2.041   7.348   0.250
  981ETH      H 3929   1.929   7.281   0.423
  982ETH      O 3930   5.066   5.689   5.723
  982ETH      C 3931   5.211   5.770   5.550
  982ETH      C 3932   5.140   5.650   5.610
  982ETH      H 3933   5.137   5.846   5.517
  983ETH      O 3934   7.148   1.438   4.576
  983ETH      C 3935   7.187   1.427   4.813
  983ETH      C 3936   7.192   1.354   4.679
  983ETH      H 3937   7.255   1.516   4.810
  984ETH      O 3938   7.418   1.699   0.816
  984ETH      C 3939   7.397   1.667   0.579
  984ETH      C 3940   7.407   1.602   0.716
  984ETH      H 3941   7.307   1.732   0.574
  985ETH      O 3942   1.945   2.554   2.151
  985ETH      C 3943   1.994   2.772   2.062
  985ETH      C 3944   2.033   2.663   2.161
  985ETH      H 3945   2.000   2.733   1.958
  986ETH      O 3946   3.526   0.876   1.145
  986ETH      C 3947   3.454   0.950   0.929
  986ETH      C 3948   3.528   0.984   1.057
  986ETH      H 3949   3.503   0.864   0.878
  987ETH      O 3950   3.721   6.471   3.073
  987ETH      C 3951   3.894   6.597   2.964
  987ETH      C 3952   3.757   6.599   3.032
  987ETH      H 3953   3.971   6.561   3.037
  988ETH      O 3954   1.513   0.109   2.908
  988ETH      C 3955   1.487   0.255   2.719
  988ETH      C 3956   1.451   0.226   2.864
  988ETH      H 3957   1.597   0.270   2.710
  989ETH      O 3958   0.916   5.123   1.387
  989ETH      C 3959   0.921   5.275   1.201
  989ETH      C 3960   0.849   5.160   1.269
  989ETH      H 3961   0.923   5.364   1.268
  990ETH      O 3962   5.988   1.981   2.201
  990ETH      C 3963   5.784   1.953   2.324
  990ETH      C 3964   5.935   1.963   2.329
  990ETH      H 3965   5.741   2.047   2.283
  991ETH      O 3966   6.097   1.317   1.175
  991ETH      C 3967   6.300   1.237   1.075
  991ETH      C 3968   6.163   1.202   1.129
  991ETH      H 3969   6.291   1.307   0.989
  992ETH      O 3970   1.311   0.264   1.082
  992ETH      C 3971   1.218   0.186   0.875
  992ETH      C 3972   1.192   0.222   1.021
  992ETH      H 3973   1.254   0.275   0.820
  993ETH      O 3974   2.678   4.931   5.944
  993ETH      C 3975   2.504   5.015   5.802
  993ETH      C 3976   2.607   4.906   5.826
  993ETH      H 3977   2.430   5.016   5.885
  994ETH      O 3978   4.216   3.768   0.215
  994ETH      C 3979   4.376   3.939   0.165
  994ETH      C 3980   4.264   3.851   0.113
  994ETH      H 3981   4.338   4.005   0.247
  995ETH      O 3982   2.649   7.630   6.457
  995ETH      C 3983   2.678   7.549   6.681
  995ETH      C 3984   2.608   7.649   6.590
  995ETH      H 3985   2.651   7.445   6.652
  996ETH      O 3986   7.278   4.289   3.417
  996ETH      C 3987   7.266   4.178   3.205
  996ETH      C 3988   7.253   4.309   3.281
  996ETH      H 3989   7.370   4.139   3.214
  997ETH      O 3990   7.572   3.763   7.169
  997ETH      C 3991   7.718   3.677   6.999
  997ETH      C 3992   7.684   3.682   7.147
  997ETH      H 3993   7.633   3.634   6.942
  998ETH      O 3994   2.604   2.352   1.126
  998ETH      C 3995   2.581   2.327   0.888
  998ETH      C 3996   2.518   2.374   1.018
  998ETH      H 3997   2.675   2.385   0.868
  999ETH      O 3998   6.698   2.492   1.600
  999ETH      C 3999   6.867   2.332   1.541
  999ETH      C 4000   6.781   2.449   1.496
  999ETH      H 4001   6.933   2.363   1.625
 1000ETH      O 4002   7.256   0.231   0.762
 1000ETH      C 4003   7.282   0.335   0.547
 1000ETH      C 4004   7.334   0.322   0.689
 1000ETH      H 4005   7.288   0.237   0.495
 1001ETH      O 4006   6.051   4.630   2.373
 1001ETH      C 4007   5.950   4.644   2.155
 1001ETH      C 4008   6.002   4.719   2.277
 1001ETH      H 4009   6.033   4.587   2.108
 1002ETH      O 4010   2.361   5.288   6.315
 1002ETH      C 4011   2.321   5.373   6.094
 1002ETH      C 4012   2.384   5.264   6.178
 1002ETH      H 4013   2.210   5.375   6.109
 1003ETH      O 4014   0.865   1.814   4.185
 1003ETH      C 4015   0.901   1.881   4.413
 1003ETH      C 4016   0.955   1.879   4.271
 1003ETH      H 4017   0.804   1.936   4.417
 1004ETH      O 4018   4.864   0.807   4.624
 1004ETH      C 4019   4.787   0.983   4.480
 1004ETH      C 4020   4.759   0.846   4.539
 1004ETH      H 4021   4.795   1.059   4.561
 1005ETH      O 4022   6.625   1.040   7.519
 1005ETH      C 4023   6.771   1.088   7.704
 1005ETH      C 4024   6.760   1.046   7.558
 1005ETH      H 4025   6.728   1.191   7.717
 1006ETH      O 4026   5.026   0.683   1.526
 1006ETH      C 4027   5.233   0.678   1.648
 1006ETH      C 4028   5.165   0.695   1.513
 1006ETH      H 4029   5.199   0.758   1.718
 1007ETH      O 4030   1.123   7.177   1.913
 1007ETH      C 4031   1.171   7.187   1.678
 1007ETH      C 4032   1.197   7.246   1.816
 1007ETH      H 4033   1.204   7.080   1.675
 1008ETH      O 4034   6.137   1.670   8.043
 1008ETH      C 4035   6.136   1.701   7.805
 1008ETH      C 4036   6.058   1.711   7.934
 1008ETH      H 4037   6.226   1.768   7.808
 1009ETH      O 4038   1.293   1.299   5.327
 1009ETH      C 4039   1.297   1.381   5.101
 1009ETH      C 4040   1.271   1.412   5.248
 1009ETH      H 4041   1.403   1.350   5.087
 1010ETH      O 4042   2.561   6.059   2.550
 1010ETH      C 4043   2.536   5.923   2.354
 1010ETH      C 4044   2.487   5.954   2.495
 1010ETH      H 4045   2.521   6.012   2.289
 1011ETH      O 4046   2.374   6.771   3.448
 1011ETH      C 4047   2.217   6.885   3.589
 1011ETH      C 4048   2.314   6.769   3.574
 1011ETH      H 4049   2.272   6.982   3.580
 1012ETH      O 4050   2.102   1.589   0.462
 1012ETH      C 4051   2.319   1.544   0.371
 1012ETH      C 4052   2.195   1.487   0.437
 1012ETH      H 4053   2.293   1.590   0.273
 1013ETH      O 4054   4.065   0.413   3.335
 1013ETH      C 4055   4.169   0.293   3.155
 1013ETH      C 4056   4.111   0.425   3.203
 1013ETH      H 4057   4.256   0.264   3.219
 1014ETH      O 4058   1.867   4.529   5.587
 1014ETH      C 4059   1.649   4.470   5.670
 1014ETH      C 4060   1.794   4.429   5.653
 1014ETH      H 4061   1.643   4.562   5.732
 1015ETH      O 4062   6.586   4.965   5.872
 1015ETH      C 4063   6.520   4.995   5.643
 1015ETH      C 4064   6.511   4.909   5.768
 1015ETH      H 4065   6.479   5.096   5.663
 1016ETH      O 4066   2.164   5.475   3.210
 1016ETH      C 4067   2.168   5.520   3.446
 1016ETH      C 4068   2.218   5.560   3.308
 1016ETH      H 4069   2.057   5.529   3.451
 1017ETH      O 4070   3.479   4.904   4.354
 1017ETH      C 4071   3.287   4.907   4.210
 1017ETH      C 4072   3.416   4.976   4.252
 1017ETH      H 4073   3.309   4.805   4.170
 1018ETH      O 4074   7.776   0.954   6.930
 1018ETH      C 4075   7.841   0.935   6.700
 1018ETH      C 4076   7.843   0.872   6.839
 1018ETH      H 4077   7.736   0.946   6.665
 1019ETH      O 4078   4.532   5.655   4.239
 1019ETH      C 4079   4.365   5.826   4.217
 1019ETH      C 4080   4.513   5.791   4.210
 1019ETH      H 4081   4.308   5.767   4.142
 1020ETH      O 4082   3.007   3.713   6.777
 1020ETH      C 4083   2.990   3.938   6.858
 1020ETH      C 4084   2.917   3.812   6.816
 1020ETH      H 4085   3.057   3.916   6.945
 1021ETH      O 4086   1.062   2.140   1.567
 1021ETH      C 4087   1.257   2.053   1.457
 1021ETH      C 4088   1.200   2.158   1.551
 1021ETH      H 4089   1.242   1.951   1.500
 1022ETH      O 4090   7.262   2.829   2.510
 1022ETH      C 4091   7.235   3.034   2.632
 1022ETH      C 4092   7.213   2.884   2.630
 1022ETH      H 4093   7.344   3.057   2.627
 1023ETH      O 4094   5.660   0.892   7.169
 1023ETH      C 4095   5.591   1.061   7.325
 1023ETH      C 4096   5.594   1.015   7.180
 1023ETH      H 4097   5.535   0.987   7.387
 1024ETH      O 4098   1.140   1.547   0.142
 1024ETH      C 4099   1.271   1.663  -0.022
 1024ETH      C 4100   1.262   1.545   0.073
 1024ETH      H 4101   1.189   1.656  -0.098
 1025ETH      O 4102   7.139  -0.017   4.259
 1025ETH      C 4103   7.029   0.061   4.457
 1025ETH      C 4104   7.148   0.075   4.364
 1025ETH      H 4105   6.934   0.082   4.402
 1026ETH      O 4106   1.829   6.505   1.130
 1026ETH      C 4107   1.835   6.401   0.914
 1026ETH      C 4108   1.889   6.510   1.004
 1026ETH      H 4109   1.858   6.301   0.958
 1027ETH      O 4110   6.995   5.469   4.444
 1027ETH      C 4111   6.937   5.641   4.602
 1027ETH      C 4112   6.906   5.502   4.547
 1027ETH      H 4113   7.040   5.642   4.645
 1028ETH      O 4114   2.790   3.030   6.429
 1028ETH      C 4115   2.788   2.978   6.195
 1028ETH      C 4116   2.851   2.952   6.330
 1028ETH      H 4117   2.680   2.951   6.197
 1029ETH      O 4118   0.241   2.234   5.736
 1029ETH      C 4119   0.026   2.303   5.819
 1029ETH      C 4120   0.145   2.336   5.729
 1029ETH      H 4121  -0.022   2.209   5.785
 1030ETH      O 4122   1.312   5.248   1.782
 1030ETH      C 4123   1.321   5.161   1.558
 1030ETH      C 4124   1.266   5.144   1.699
 1030ETH      H 4125   1.285   5.258   1.515
 1031ETH      O 4126   3.657   5.167   7.453
 1031ETH      C 4127   3.661   5.206   7.216
 1031ETH      C 4128   3.590   5.139   7.333
 1031ETH      H 4129   3.661   5.316   7.230
 1032ETH      O 4130   0.150   7.202   6.967
 1032ETH      C 4131   0.145   6.963   6.942
 1032ETH      C 4132   0.221   7.084   6.993
 1032ETH      H 4133   0.047   6.955   6.994
 1033ETH      O 4134   6.838   5.835   7.732
 1033ETH      C 4135   6.804   5.672   7.559
 1033ETH      C 4136   6.901   5.766   7.627
 1033ETH      H 4137   6.766   5.596   7.632
 1034ETH      O 4138   6.591   0.377   4.829
 1034ETH      C 4139   6.560   0.321   5.060
 1034ETH      C 4140   6.542   0.279   4.915
 1034ETH      H 4141   6.669   0.335   5.082
 1035ETH      O 4142   6.764   0.701   2.071
 1035ETH      C 4143   6.730   0.652   2.303
 1035ETH      C 4144   6.704   0.611   2.159
 1035ETH      H 4145   6.840   0.651   2.324
 1036ETH      O 4146   5.748   1.209   2.050
 1036ETH      C 4147   5.842   1.176   2.268
 1036ETH      C 4148   5.716   1.188   2.184
 1036ETH      H 4149   5.901   1.088   2.234
 1037ETH      O 4150  -0.045   0.854   0.872
 1037ETH      C 4151   0.054   1.073   0.866
 1037ETH      C 4152   0.074   0.924   0.846
 1037ETH      H 4153  -0.023   1.111   0.795
 1038ETH      O 4154   3.959   3.498   2.610
 1038ETH      C 4155   4.163   3.595   2.690
 1038ETH      C 4156   4.090   3.530   2.574
 1038ETH      H 4157   4.112   3.690   2.719
 1039ETH      O 4158   0.457   5.623   1.506
 1039ETH      C 4159   0.536   5.565   1.725
 1039ETH      C 4160   0.427   5.547   1.620
 1039ETH      H 4161   0.634   5.529   1.685
 1040ETH      O 4162   0.247   0.942   6.428
 1040ETH      C 4163   0.235   0.993   6.663
 1040ETH      C 4164   0.251   0.885   6.557
 1040ETH      H 4165   0.319   1.067   6.655
 1041ETH      O 4166   3.333   4.868   6.504
 1041ETH      C 4167   3.333   4.873   6.264
 1041ETH      C 4168   3.406   4.911   6.392
 1041ETH      H 4169   3.323   4.762   6.257
 1042ETH      O 4170   6.140   1.755   4.828
 1042ETH      C 4171   6.030   1.541   4.838
 1042ETH      C 4172   6.032   1.686   4.886
 1042ETH      H 4173   6.017   1.538   4.727
 1043ETH      O 4174   4.813   2.262   0.425
 1043ETH      C 4175   4.690   2.466   0.462
 1043ETH      C 4176   4.725   2.327   0.513
 1043ETH      H 4177   4.782   2.528   0.454
 1044ETH      O 4178   0.768   3.236   2.893
 1044ETH      C 4179   0.955   3.179   2.754
 1044ETH      C 4180   0.908   3.224   2.891
 1044ETH      H 4181   0.913   3.078   2.730
 1045ETH      O 4182   5.836   4.158   3.783
 1045ETH      C 4183   5.660   4.067   3.918
 1045ETH      C 4184   5.807   4.062   3.881
 1045ETH      H 4185   5.635   4.167   3.961
 1046ETH      O 4186   1.166   0.792   1.628
 1046ETH      C 4187   1.202   0.764   1.864
 1046ETH      C 4188   1.106   0.748   1.747
 1046ETH      H 4189   1.294   0.702   1.847
 1047ETH      O 4190   2.620  -0.042   7.740
 1047ETH      C 4191   2.598   0.050   7.519
 1047ETH      C 4192   2.532   0.024   7.653
 1047ETH      H 4193   2.686   0.116   7.533
 1048ETH      O 4194   7.077   4.465   2.442
 1048ETH      C 4195   6.906   4.608   2.532
 1048ETH      C 4196   7.016   4.507   2.561
 1048ETH      H 4197   6.950   4.698   2.482
 1049ETH      O 4198   5.466   0.238   2.491
 1049ETH      C 4199   5.461   0.194   2.255
 1049ETH      C 4200   5.504   0.146   2.392
 1049ETH      H 4201   5.350   0.204   2.251
 1050ETH      O 4202   0.468   1.610   1.557
 1050ETH      C 4203   0.416   1.661   1.328
 1050ETH      C 4204   0.471   1.712   1.460
 1050ETH      H 4205   0.479   1.577   1.290
 1051ETH      O 4206   4.268   3.404   6.089
 1051ETH      C 4207   4.240   3.293   6.300
 1051ETH      C 4208   4.259   3.278   6.150
 1051ETH      H 4209   4.327   3.345   6.344
 1052ETH      O 4210   6.260   5.710   1.685
 1052ETH      C 4211   6.128   5.657   1.879
 1052ETH      C 4212   6.237   5.745   1.819
 1052ETH      H 4213   6.033   5.671   1.823
 1053ETH      O 4214   1.522   6.196   3.217
 1053ETH      C 4215   1.392   6.083   3.050
 1053ETH      C 4216   1.391   6.162   3.180
 1053ETH      H 4217   1.435   6.145   2.968
 1054ETH      O 4218   3.400   0.443   0.467
 1054ETH      C 4219   3.601   0.371   0.356
 1054ETH      C 4220   3.526   0.386   0.488
 1054ETH      H 4221   3.544   0.303   0.288
 1055ETH      O 4222   0.971   2.535   3.560
 1055ETH      C 4223   0.840   2.598   3.751
 1055ETH      C 4224   0.863   2.497   3.640
 1055ETH      H 4225   0.930   2.603   3.817
 1056ETH      O 4226   6.927   0.430   6.121
 1056ETH      C 4227   6.811   0.404   6.330
 1056ETH      C 4228   6.840   0.346   6.193
 1056ETH      H 4229   6.906   0.412   6.389
 1057ETH      O 4230  -0.040   3.987   3.970
 1057ETH      C 4231   0.158   4.091   4.056
 1057ETH      C 4232   0.100   3.980   3.970
 1057ETH      H 4233   0.130   4.190   4.014
 1058ETH      O 4234   7.093   0.226   2.961
 1058ETH      C 4235   7.150   0.154   3.183
 1058ETH      C 4236   7.044   0.213   3.092
 1058ETH      H 4237   7.178   0.052   3.148
 1059ETH      O 4238   5.202   2.096   2.211
 1059ETH      C 4239   5.268   2.225   2.402
 1059ETH      C 4240   5.257   2.219   2.250
 1059ETH      H 4241   5.167   2.217   2.448
 1060ETH      O 4242   6.809   1.118   3.616
 1060ETH      C 4243   6.810   1.083   3.378
 1060ETH      C 4244   6.836   1.023   3.516
 1060ETH      H 4245   6.703   1.112   3.369
 1061ETH      O 4246   4.025   5.086   1.776
 1061ETH      C 4247   4.207   4.979   1.662
 1061ETH      C 4248   4.137   5.003   1.794
 1061ETH      H 4249   4.139   4.927   1.591
 1062ETH      O 4250   5.445   1.182   5.325
 1062ETH      C 4251   5.626   1.034   5.383
 1062ETH      C 4252   5.484   1.080   5.413
 1062ETH      H 4253   5.631   0.993   5.279
 1063ETH      O 4254   3.003   3.782   1.018
 1063ETH      C 4255   2.835   3.945   1.072
 1063ETH      C 4256   2.946   3.854   1.123
 1063ETH      H 4257   2.877   4.019   1.000
 1064ETH      O 4258   3.476   5.119   0.362
 1064ETH      C 4259   3.534   4.917   0.246
 1064ETH      C 4260   3.424   5.014   0.285
 1064ETH      H 4261   3.611   4.970   0.183
 1065ETH      O 4262   2.863   2.707   4.002
 1065ETH      C 4263   3.088   2.695   3.919
 1065ETH      C 4264   2.974   2.784   3.964
 1065ETH      H 4265   3.120   2.628   4.003
 1066ETH      O 4266   2.506   0.871   1.362
 1066ETH      C 4267   2.505   0.922   1.597
 1066ETH      C 4268   2.457   0.828   1.487
 1066ETH      H 4269   2.617   0.921   1.602
 1067ETH      O 4270   0.656   1.416   6.008
 1067ETH      C 4271   0.432   1.468   6.076
 1067ETH      C 4272   0.521   1.408   5.970
 1067ETH      H 4273   0.442   1.412   6.172
 1068ETH      O 4274   5.701   1.117   4.181
 1068ETH      C 4275   5.544   0.997   4.043
 1068ETH      C 4276   5.687   1.046   4.061
 1068ETH      H 4277   5.517   0.928   4.127
 1069ETH      O 4278   6.019   3.529   0.200
 1069ETH      C 4279   6.038   3.550   0.438
 1069ETH      C 4280   6.103   3.574   0.303
 1069ETH      H 4281   5.942   3.606   0.445
 1070ETH      O 4282   3.037   2.180   4.926
 1070ETH      C 4283   3.024   2.415   4.974
 1070ETH      C 4284   3.031   2.274   5.030
 1070ETH      H 4285   3.116   2.437   4.914
 1071ETH      O 4286   2.379   3.807   6.659
 1071ETH      C 4287   2.381   3.804   6.419
 1071ETH      C 4288   2.373   3.722   6.547
 1071ETH      H 4289   2.295   3.874   6.413
 1072ETH      O 4290   6.499   1.429   3.452
 1072ETH      C 4291   6.553   1.525   3.665
 1072ETH      C 4292   6.572   1.408   3.570
 1072ETH      H 4293   6.591   1.619   3.619
 1073ETH      O 4294   6.532   7.391   6.883
 1073ETH      C 4295   6.433   7.191   6.972
 1073ETH      C 4296   6.557   7.257   6.914
 1073ETH      H 4297   6.403   7.242   7.066
 1074ETH      O 4298   6.030   0.448   1.497
 1074ETH      C 4299   5.830   0.474   1.367
 1074ETH      C 4300   5.947   0.543   1.436
 1074ETH      H 4301   5.868   0.406   1.287
 1075ETH      O 4302   4.785   5.729   4.618
 1075ETH      C 4303   4.829   5.802   4.393
 1075ETH      C 4304   4.728   5.792   4.507
 1075ETH      H 4305   4.917   5.863   4.425
 1076ETH      O 4306   2.380   4.260   0.344
 1076ETH      C 4307   2.587   4.241   0.225
 1076ETH      C 4308   2.456   4.316   0.240
 1076ETH      H 4309   2.647   4.249   0.319
 1077ETH      O 4310   6.800   1.030   3.871
 1077ETH      C 4311   6.880   0.813   3.936
 1077ETH      C 4312   6.766   0.894   3.875
 1077ETH      H 4313   6.972   0.824   3.874
 1078ETH      O 4314   3.243   6.045   5.821
 1078ETH      C 4315   3.239   6.008   6.058
 1078ETH      C 4316   3.196   5.959   5.921
 1078ETH      H 4317   3.350   6.010   6.065
 1079ETH      O 4318   5.760   7.156   7.343
 1079ETH      C 4319   5.871   7.167   7.130
 1079ETH      C 4320   5.877   7.120   7.275
 1079ETH      H 4321   5.785   7.118   7.078
 1080ETH      O 4322   4.883   5.112   4.383
 1080ETH      C 4323   4.892   5.064   4.618
 1080ETH      C 4324   4.935   5.157   4.505
 1080ETH      H 4325   4.781   5.063   4.627
 1081ETH      O 4326   1.683   0.313   4.040
 1081ETH      C 4327   1.705   0.357   3.805
 1081ETH      C 4328   1.719   0.411   3.946
 1081ETH      H 4329   1.774   0.271   3.791
 1082ETH      O 4330   6.272   7.048   2.484
 1082ETH      C 4331   6.457   6.975   2.618
 1082ETH      C 4332   6.403   7.079   2.520
 1082ETH      H 4333   6.396   6.975   2.711
 1083ETH      O 4334   2.212   0.119   5.209
 1083ETH      C 4335   1.996   0.152   5.109
 1083ETH      C 4336   2.125   0.217   5.159
 1083ETH      H 4337   2.019   0.081   5.026
 1084ETH      O 4338   0.462   3.190   2.488
 1084ETH      C 4339   0.504   3.175   2.724
 1084ETH      C 4340   0.531   3.118   2.586
 1084ETH      H 4341   0.539   3.281   2.729
 1085ETH      O 4342   3.020   0.626   1.802
 1085ETH      C 4343   3.055   0.650   2.038
 1085ETH      C 4344   3.112   0.602   1.906
 1085ETH      H 4345   3.037   0.760   2.035
 1086ETH      O 4346   7.598   3.521   0.784
 1086ETH      C 4347   7.627   3.545   0.547
 1086ETH      C 4348   7.672   3.475   0.674
 1086ETH      H 4349   7.519   3.522   0.527
 1087ETH      O 4350   3.649   2.019   2.038
 1087ETH      C 4351   3.622   2.112   1.818
 1087ETH      C 4352   3.561   2.028   1.929
 1087ETH      H 4353   3.642   2.216   1.855
 1088ETH      O 4354   4.773   0.815   3.319
 1088ETH      C 4355   4.692   0.777   3.096
 1088ETH      C 4356   4.672   0.752   3.245
 1088ETH      H 4357   4.687   0.886   3.074
 1089ETH      O 4358   2.860   0.965   2.825
 1089ETH      C 4359   2.832   0.762   2.700
 1089ETH      C 4360   2.903   0.832   2.815
 1089ETH      H 4361   2.722   0.760   2.717
 1090ETH      O 4362   3.577   7.863   4.008
 1090ETH      C 4363   3.714   7.894   4.202
 1090ETH      C 4364   3.657   7.956   4.076
 1090ETH      H 4365   3.632   7.865   4.271
 1091ETH      O 4366   4.611   5.093   4.700
 1091ETH      C 4367   4.468   5.127   4.890
 1091ETH      C 4368   4.523   5.029   4.788
 1091ETH      H 4369   4.551   5.170   4.951
 1092ETH      O 4370   2.362   4.933   4.952
 1092ETH      C 4371   2.161   4.811   5.003
 1092ETH      C 4372   2.222   4.934   4.937
 1092ETH      H 4373   2.199   4.718   4.955
 1093ETH      O 4374   7.217   2.205   4.263
 1093ETH      C 4375   7.326   2.265   4.468
 1093ETH      C 4376   7.270   2.153   4.382
 1093ETH      H 4377   7.409   2.317   4.414
 1094ETH      O 4378   4.415   0.143   5.777
 1094ETH      C 4379   4.180   0.140   5.727
 1094ETH      C 4380   4.321   0.108   5.680
 1094ETH      H 4381   4.157   0.081   5.819
 1095ETH      O 4382   6.491   5.945   5.656
 1095ETH      C 4383   6.600   5.746   5.737
 1095ETH      C 4384   6.569   5.893   5.761
 1095ETH      H 4385   6.505   5.688   5.734
 1096ETH      O 4386   3.778   2.981   5.133
 1096ETH      C 4387   3.681   3.200   5.115
 1096ETH      C 4388   3.807   3.118   5.137
 1096ETH      H 4389   3.639   3.178   5.014
 1097ETH      O 4390   7.412   7.956   0.657
 1097ETH      C 4391   7.373   7.843   0.449
 1097ETH      C 4392   7.471   7.874   0.561
 1097ETH      H 4393   7.284   7.789   0.490
 1098ETH      O 4394   1.345   0.395   5.097
 1098ETH      C 4395   1.135   0.495   5.155
 1098ETH      C 4396   1.284   0.487   5.184
 1098ETH      H 4397   1.118   0.530   5.051
 1099ETH      O 4398   2.355   4.285   2.926
 1099ETH      C 4399   2.201   4.456   2.994
 1099ETH      C 4400   2.271   4.386   2.879
 1099ETH      H 4401   2.138   4.384   3.050
 1100ETH      O 4402   1.849   0.295   6.703
 1100ETH      C 4403   1.951   0.299   6.921
 1100ETH      C 4404   1.836   0.347   6.833
 1100ETH      H 4405   1.948   0.187   6.929
 1101ETH      O 4406   5.347   3.061   3.650
 1101ETH      C 4407   5.303   3.165   3.862
 1101ETH      C 4408   5.376   3.173   3.729
 1101ETH      H 4409   5.193   3.163   3.846
 1102ETH      O 4410   4.549   0.259   2.491
 1102ETH      C 4411   4.655   0.304   2.701
 1102ETH      C 4412   4.645   0.211   2.581
 1102ETH      H 4413   4.687   0.405   2.669
 1103ETH      O 4414   1.121   5.095   5.360
 1103ETH      C 4415   1.158   5.153   5.590
 1103ETH      C 4416   1.217   5.097   5.461
 1103ETH      H 4417   1.125   5.258   5.573
 1104ETH      O 4418   6.764   6.838   0.234
 1104ETH      C 4419   6.564   6.765   0.122
 1104ETH      C 4420   6.666   6.876   0.141
 1104ETH      H 4421   6.615   6.673   0.083
 1105ETH      O 4422   1.687   6.395   4.967
 1105ETH      C 4423   1.674   6.328   4.737
 1105ETH      C 4424   1.748   6.315   4.869
 1105ETH      H 4425   1.569   6.293   4.748
 1106ETH      O 4426   4.092   5.437   1.633
 1106ETH      C 4427   4.015   5.259   1.490
 1106ETH      C 4428   4.134   5.341   1.539
 1106ETH      H 4429   3.969   5.204   1.576
 1107ETH      O 4430   4.717   7.135   2.734
 1107ETH      C 4431   4.737   7.143   2.495
 1107ETH      C 4432   4.729   7.221   2.625
 1107ETH      H 4433   4.828   7.078   2.496
 1108ETH      O 4434   1.893   3.824   4.923
 1108ETH      C 4435   1.762   3.965   5.067
 1108ETH      C 4436   1.801   3.823   5.029
 1108ETH      H 4437   1.853   4.021   5.101
 1109ETH      O 4438  -0.073   0.321   0.397
 1109ETH      C 4439   0.085   0.197   0.266
 1109ETH      C 4440  -0.047   0.195   0.341
 1109ETH      H 4441   0.080   0.270   0.182
 1110ETH      O 4442   4.269   5.194   2.763
 1110ETH      C 4443   4.296   5.221   2.526
 1110ETH      C 4444   4.320   5.279   2.664
 1110ETH      H 4445   4.348   5.123   2.517
 1111ETH      O 4446   2.838   2.812   7.629
 1111ETH      C 4447   3.051   2.703   7.658
 1111ETH      C 4448   2.915   2.735   7.718
 1111ETH      H 4449   3.038   2.644   7.564
 1112ETH      O 4450   3.047   5.325   0.819
 1112ETH      C 4451   2.826   5.407   0.865
 1112ETH      C 4452   2.911   5.294   0.808
 1112ETH      H 4453   2.849   5.421   0.973
 1113ETH      O 4454   2.759   7.128   3.385
 1113ETH      C 4455   2.753   7.173   3.149
 1113ETH      C 4456   2.707   7.215   3.287
 1113ETH      H 4457   2.864   7.177   3.142
 1114ETH      O 4458   7.654   0.113   4.986
 1114ETH      C 4459   7.784   0.099   4.785
 1114ETH      C 4460   7.663   0.159   4.854
 1114ETH      H 4461   7.877   0.129   4.838
 1115ETH      O 4462   6.824   2.144   6.212
 1115ETH      C 4463   6.904   2.097   5.990
 1115ETH      C 4464   6.939   2.117   6.137
 1115ETH      H 4465   6.835   2.011   5.979
 1116ETH      O 4466   5.788   4.800   2.969
 1116ETH      C 4467   5.662   4.920   3.135
 1116ETH      C 4468   5.709   4.915   2.991
 1116ETH      H 4469   5.598   4.831   3.157
 1117ETH      O 4470   0.420   5.021   6.939
 1117ETH      C 4471   0.504   4.802   6.887
 1117ETH      C 4472   0.382   4.893   6.898
 1117ETH      H 4473   0.575   4.843   6.811
 1118ETH      O 4474   4.148   4.948   2.052
 1118ETH      C 4475   4.194   4.988   2.284
 1118ETH      C 4476   4.250   4.975   2.143
 1118ETH      H 4477   4.122   5.072   2.289
 1119ETH      O 4478   1.254   1.599   1.248
 1119ETH      C 4479   1.144   1.770   1.375
 1119ETH      C 4480   1.138   1.628   1.322
 1119ETH      H 4481   1.231   1.782   1.443
 1120ETH      O 4482   2.551   1.451   3.039
 1120ETH      C 4483   2.469   1.391   2.821
 1120ETH      C 4484   2.472   1.358   2.970
 1120ETH      H 4485   2.424   1.491   2.806
 1121ETH      O 4486   1.949   4.788   7.244
 1121ETH      C 4487   1.907   4.623   7.074
 1121ETH      C 4488   2.011   4.703   7.151
 1121ETH      H 4489   1.848   4.559   7.144
 1122ETH      O 4490   3.753   4.468   4.284
 1122ETH      C 4491   3.710   4.259   4.395
 1122ETH      C 4492   3.751   4.405   4.410
 1122ETH      H 4493   3.607   4.253   4.352
 1123ETH      O 4494   0.030   6.812   3.331
 1123ETH      C 4495   0.049   6.892   3.556
 1123ETH      C 4496   0.120   6.864   3.425
 1123ETH      H 4497  -0.032   6.968   3.541
 1124ETH      O 4498   1.100   7.702   7.681
 1124ETH      C 4499   1.052   7.721   7.916
 1124ETH      C 4500   1.052   7.632   7.792
 1124ETH      H 4501   1.156   7.754   7.939
 1125ETH      O 4502   0.579   0.689   0.051
 1125ETH      C 4503   0.654   0.490   0.162
 1125ETH      C 4504   0.671   0.584   0.043
 1125ETH      H 4505   0.674   0.544   0.257
 1126ETH      O 4506   2.162   4.855   2.473
 1126ETH      C 4507   2.324   4.913   2.641
 1126ETH      C 4508   2.246   4.958   2.518
 1126ETH      H 4509   2.253   4.888   2.724
 1127ETH      O 4510  -0.009   1.358   2.921
 1127ETH      C 4511   0.112   1.453   3.105
 1127ETH      C 4512   0.087   1.455   2.956
 1127ETH      H 4513   0.019   1.477   3.160
 1128ETH      O 4514   7.260   0.681   1.241
 1128ETH      C 4515   7.193   0.830   1.065
 1128ETH      C 4516   7.173   0.695   1.132
 1128ETH      H 4517   7.171   0.912   1.137
 1129ETH      O 4518   5.656   5.591   5.953
 1129ETH      C 4519   5.613   5.629   5.720
 1129ETH      C 4520   5.554   5.610   5.858
 1129ETH      H 4521   5.678   5.720   5.718
 1130ETH      O 4522   2.499   4.951   4.592
 1130ETH      C 4523   2.677   4.795   4.636
 1130ETH      C 4524   2.625   4.937   4.652
 1130ETH      H 4525   2.608   4.724   4.686
 1131ETH      O 4526   5.022   4.377   7.741
 1131ETH      C 4527   5.021   4.285   7.963
 1131ETH      C 4528   5.017   4.257   7.814
 1131ETH      H 4529   5.116   4.337   7.990
 1132ETH      O 4530   1.185   7.543   2.756
 1132ETH      C 4531   1.132   7.768   2.819
 1132ETH      C 4532   1.222   7.677   2.738
 1132ETH      H 4533   1.026   7.758   2.784
 1133ETH      O 4534   6.629   2.803   6.974
 1133ETH      C 4535   6.725   2.860   7.187
 1133ETH      C 4536   6.721   2.888   7.037
 1133ETH      H 4537   6.625   2.881   7.232
 1134ETH      O 4538   4.270   0.989   4.727
 1134ETH      C 4539   4.477   0.946   4.841
 1134ETH      C 4540   4.350   0.887   4.782
 1134ETH      H 4541   4.537   0.996   4.762
 1135ETH      O 4542   5.063   7.404   3.998
 1135ETH      C 4543   4.845   7.477   3.928
 1135ETH      C 4544   4.934   7.435   4.044
 1135ETH      H 4545   4.887   7.568   3.879
 1136ETH      O 4546   4.049   2.068   7.412
 1136ETH      C 4547   4.119   2.186   7.609
 1136ETH      C 4548   4.160   2.099   7.490
 1136ETH      H 4549   4.075   2.282   7.572
 1137ETH      O 4550   5.380   1.237   7.076
 1137ETH      C 4551   5.365   1.133   7.291
 1137ETH      C 4552   5.364   1.114   7.140
 1137ETH      H 4553   5.463   1.175   7.323
 1138ETH      O 4554   2.109   4.852   1.800
 1138ETH      C 4555   1.904   4.728   1.806
 1138ETH      C 4556   2.049   4.735   1.849
 1138ETH      H 4557   1.847   4.815   1.849
 1139ETH      O 4558   3.699   5.930   1.028
 1139ETH      C 4559   3.697   5.733   1.165
 1139ETH      C 4560   3.686   5.791   1.025
 1139ETH      H 4561   3.798   5.756   1.207
 1140ETH      O 4562   6.567   0.405   2.925
 1140ETH      C 4563   6.634   0.538   3.113
 1140ETH      C 4564   6.668   0.422   3.021
 1140ETH      H 4565   6.627   0.633   3.055
 1141ETH      O 4566   2.216   5.429   1.073
 1141ETH      C 4567   2.392   5.350   0.930
 1141ETH      C 4568   2.285   5.455   0.954
 1141ETH      H 4569   2.466   5.352   1.013
 1142ETH      O 4570   2.292   0.332   5.096
 1142ETH      C 4571   2.216   0.365   4.871
 1142ETH      C 4572   2.218   0.417   5.014
 1142ETH      H 4573   2.320   0.361   4.831
 1143ETH      O 4574   4.648   6.042   1.835
 1143ETH      C 4575   4.716   6.147   2.040
 1143ETH      C 4576   4.727   6.026   1.949
 1143ETH      H 4577   4.752   6.238   1.987
 1144ETH      O 4578   5.593   3.730   5.151
 1144ETH      C 4579   5.684   3.508   5.143
 1144ETH      C 4580   5.662   3.639   5.069
 1144ETH      H 4581   5.745   3.525   5.234
 1145ETH      O 4582   4.889   3.726   3.924
 1145ETH      C 4583   4.663   3.657   3.883
 1145ETH      C 4584   4.780   3.742   3.837
 1145ETH      H 4585   4.691   3.549   3.883
 1146ETH      O 4586   5.634   3.292   7.847
 1146ETH      C 4587   5.674   3.069   7.766
 1146ETH      C 4588   5.587   3.194   7.759
 1146ETH      H 4589   5.779   3.094   7.737
 1147ETH      O 4590   6.887   2.769   1.022
 1147ETH      C 4591   6.935   2.538   1.063
 1147ETH      C 4592   6.953   2.657   0.971
 1147ETH      H 4593   6.979   2.560   1.163
 1148ETH      O 4594   2.665   3.877   3.647
 1148ETH      C 4595   2.837   4.021   3.732
 1148ETH      C 4596   2.733   3.997   3.624
 1148ETH      H 4597   2.787   4.029   3.832
 1149ETH      O 4598   0.027   0.621   7.890
 1149ETH      C 4599   0.027   0.695   7.662
 1149ETH      C 4600   0.069   0.724   7.805
 1149ETH      H 4601   0.075   0.600   7.627
 1150ETH      O 4602   5.575   6.381   3.733
 1150ETH      C 4603   5.614   6.580   3.604
 1150ETH      C 4604   5.655   6.496   3.724
 1150ETH      H 4605   5.629   6.521   3.510
 1151ETH      O 4606   3.850   7.747   5.683
 1151ETH      C 4607   4.061   7.672   5.770
 1151ETH      C 4608   3.963   7.787   5.757
 1151ETH      H 4609   4.013   7.587   5.825
 1152ETH      O 4610   4.206   3.693   7.144
 1152ETH      C 4611   4.062   3.610   7.318
 1152ETH      C 4612   4.073   3.657   7.174
 1152ETH      H 4613   4.126   3.520   7.334
 1153ETH      O 4614   3.453   5.718   5.839
 1153ETH      C 4615   3.351   5.661   5.628
 1153ETH      C 4616   3.480   5.683   5.706
 1153ETH      H 4617   3.293   5.577   5.674
 1154ETH      O 4618   5.167   7.466   3.425
 1154ETH      C 4619   5.197   7.250   3.525
 1154ETH      C 4620   5.258   7.361   3.441
 1154ETH      H 4621   5.173   7.289   3.627
 1155ETH      O 4622   4.570   3.737   7.592
 1155ETH      C 4623   4.781   3.628   7.627
 1155ETH      C 4624   4.663   3.650   7.534
 1155ETH      H 4625   4.834   3.725   7.646
 1156ETH      O 4626   5.394   5.557   1.949
 1156ETH      C 4627   5.596   5.681   1.912
 1156ETH      C 4628   5.467   5.627   1.853
 1156ETH      H 4629   5.573   5.751   1.995
 1157ETH      O 4630   7.296   0.873   6.585
 1157ETH      C 4631   7.353   1.028   6.410
 1157ETH      C 4632   7.400   0.952   6.533
 1157ETH      H 4633   7.322   0.957   6.330
 1158ETH      O 4634   7.120   2.638   1.984
 1158ETH      C 4635   7.168   2.585   2.213
 1158ETH      C 4636   7.121   2.534   2.078
 1158ETH      H 4637   7.272   2.624   2.206
 1159ETH      O 4638   1.126   3.384   6.420
 1159ETH      C 4639   1.151   3.622   6.400
 1159ETH      C 4640   1.128   3.490   6.329
 1159ETH      H 4641   1.068   3.641   6.473
 1160ETH      O 4642   0.153   4.645   4.486
 1160ETH      C 4643   0.353   4.667   4.354
 1160ETH      C 4644   0.207   4.624   4.358
 1160ETH      H 4645   0.361   4.776   4.377
 1161ETH      O 4646   7.326   0.457   1.402
 1161ETH      C 4647   7.502   0.464   1.565
 1161ETH      C 4648   7.463   0.479   1.419
 1161ETH      H 4649   7.447   0.539   1.627
 1162ETH      O 4650   0.085   1.617   2.287
 1162ETH      C 4651   0.159   1.723   2.084
 1162ETH      C 4652   0.101   1.598   2.149
 1162ETH      H 4653   0.089   1.809   2.099
 1163ETH      O 4654   7.523   3.100   3.851
 1163ETH      C 4655   7.310   3.011   3.916
 1163ETH      C 4656   7.393   3.077   3.806
 1163ETH      H 4657   7.354   2.913   3.944
 1164ETH      O 4658   5.619   3.229   2.327
 1164ETH      C 4659   5.728   3.303   2.127
 1164ETH      C 4660   5.623   3.212   2.188
 1164ETH      H 4661   5.703   3.410   2.147
 1165ETH      O 4662   1.282   5.534   2.401
 1165ETH      C 4663   1.383   5.677   2.565
 1165ETH      C 4664   1.254   5.624   2.504
 1165ETH      H 4665   1.441   5.592   2.609
 1166ETH      O 4666   4.123   5.594   6.463
 1166ETH      C 4667   4.293   5.440   6.532
 1166ETH      C 4668   4.178   5.530   6.575
 1166ETH      H 4669   4.256   5.361   6.463
 1167ETH      O 4670   3.999   1.657   1.206
 1167ETH      C 4671   4.143   1.783   1.352
 1167ETH      C 4672   4.000   1.747   1.314
 1167ETH      H 4673   4.198   1.691   1.384
 1168ETH      O 4674   4.556   6.523   2.653
 1168ETH      C 4675   4.392   6.349   2.630
 1168ETH      C 4676   4.491   6.420   2.722
 1168ETH      H 4677   4.314   6.421   2.595
 1169ETH      O 4678   2.523   6.805   0.494
 1169ETH      C 4679   2.459   6.990   0.634
 1169ETH      C 4680   2.447   6.923   0.498
 1169ETH      H 4681   2.420   6.922   0.713
 1170ETH      O 4682   4.548   5.315   6.317
 1170ETH      C 4683   4.642   5.532   6.273
 1170ETH      C 4684   4.667   5.389   6.320
 1170ETH      H 4685   4.606   5.531   6.168
 1171ETH      O 4686   4.737   1.818   5.951
 1171ETH      C 4687   4.593   2.002   5.893
 1171ETH      C 4688   4.729   1.958   5.945
 1171ETH      H 4689   4.577   1.963   5.790
 1172ETH      O 4690   6.257   4.027   3.905
 1172ETH      C 4691   6.158   3.830   3.999
 1172ETH      C 4692   6.135   3.968   3.939
 1172ETH      H 4693   6.208   3.764   3.924
 1173ETH      O 4694   3.420   1.776   5.279
 1173ETH      C 4695   3.642   1.868   5.280
 1173ETH      C 4696   3.550   1.758   5.229
 1173ETH      H 4697   3.606   1.967   5.245
 1174ETH      O 4698   7.115   7.576   7.212
 1174ETH      C 4699   7.063   7.357   7.298
 1174ETH      C 4700   7.095   7.442   7.175
 1174ETH      H 4701   7.148   7.360   7.369
 1175ETH      O 4702   6.170   6.248   5.275
 1175ETH      C 4703   6.393   6.324   5.322
 1175ETH      C 4704   6.302   6.205   5.296
 1175ETH      H 4705   6.393   6.392   5.233
 1176ETH      O 4706   1.445   3.125   1.096
 1176ETH      C 4707   1.644   3.254   1.060
 1176ETH      C 4708   1.507   3.215   1.008
 1176ETH      H 4709   1.634   3.305   1.159
 1177ETH      O 4710   0.677   2.890   5.028
 1177ETH      C 4711   0.601   2.835   4.807
 1177ETH      C 4712   0.645   2.783   4.943
 1177ETH      H 4713   0.509   2.898   4.818
 1178ETH      O 4714   3.164   0.774   4.800
 1178ETH      C 4715   3.112   0.588   4.943
 1178ETH      C 4716   3.109   0.645   4.802
 1178ETH      H 4717   3.217   0.580   4.978
 1179ETH      O 4718   4.625   3.691   6.484
 1179ETH      C 4719   4.519   3.735   6.273
 1179ETH      C 4720   4.507   3.673   6.411
 1179ETH      H 4721   4.536   3.845   6.283
 1180ETH      O 4722   0.272   2.849   1.013
 1180ETH      C 4723   0.297   2.853   0.774
 1180ETH      C 4724   0.243   2.923   0.898
 1180ETH      H 4725   0.407   2.844   0.781
 1181ETH      O 4726   5.835   6.456   1.320
 1181ETH      C 4727   5.868   6.439   1.083
 1181ETH      C 4728   5.928   6.478   1.217
 1181ETH      H 4729   5.842   6.331   1.082
 1182ETH      O 4730   4.067   0.332   5.434
 1182ETH      C 4731   4.051   0.112   5.340
 1182ETH      C 4732   4.060   0.196   5.466
 1182ETH      H 4733   3.958   0.138   5.284
 1183ETH      O 4734   6.123   6.307   6.314
 1183ETH      C 4735   5.962   6.322   6.136
 1183ETH      C 4736   6.036   6.232   6.234
 1183ETH      H 4737   5.900   6.396   6.192
 1184ETH      O 4738   6.545   6.505   0.826
 1184ETH      C 4739   6.705   6.522   0.648
 1184ETH      C 4740   6.682   6.496   0.796
 1184ETH      H 4741   6.651   6.446   0.587
 1185ETH      O 4742   0.900   3.794   6.093
 1185ETH      C 4743   0.676   3.783   6.181
 1185ETH      C 4744   0.772   3.850   6.083
 1185ETH      H 4745   0.668   3.675   6.157
 1186ETH      O 4746   2.385   7.679   2.393
 1186ETH      C 4747   2.344   7.650   2.628
 1186ETH      C 4748   2.430   7.715   2.520
 1186ETH      H 4749   2.239   7.685   2.619
 1187ETH      O 4750   3.016   5.311   7.190
 1187ETH      C 4751   2.834   5.403   7.063
 1187ETH      C 4752   2.985   5.393   7.081
 1187ETH      H 4753   2.791   5.302   7.041
 1188ETH      O 4754   5.127   6.817   3.586
 1188ETH      C 4755   5.299   6.976   3.636
 1188ETH      C 4756   5.228   6.894   3.529
 1188ETH      H 4757   5.227   7.046   3.685
 1189ETH      O 4758   5.321   2.876   4.166
 1189ETH      C 4759   5.099   2.892   4.256
 1189ETH      C 4760   5.228   2.811   4.248
 1189ETH      H 4761   5.120   2.992   4.301
 1190ETH      O 4762   0.893   7.861   0.624
 1190ETH      C 4763   0.818   7.682   0.483
 1190ETH      C 4764   0.889   7.816   0.492
 1190ETH      H 4765   0.874   7.605   0.543
 1191ETH      O 4766   2.473   4.131   5.878
 1191ETH      C 4767   2.472   4.267   6.076
 1191ETH      C 4768   2.522   4.250   5.934
 1191ETH      H 4769   2.361   4.272   6.078
 1192ETH      O 4770   7.478   7.019   1.785
 1192ETH      C 4771   7.302   6.906   1.667
 1192ETH      C 4772   7.350   7.036   1.730
 1192ETH      H 4773   7.371   6.876   1.585
 1193ETH      O 4774   7.544   5.264   3.554
 1193ETH      C 4775   7.655   5.051   3.555
 1193ETH      C 4776   7.600   5.165   3.472
 1193ETH      H 4777   7.736   5.088   3.622
 1194ETH      O 4778   7.452   0.147   6.160
 1194ETH      C 4779   7.689   0.159   6.193
 1194ETH      C 4780   7.551   0.161   6.257
 1194ETH      H 4781   7.706   0.061   6.143
 1195ETH      O 4782   0.260   4.848   7.458
 1195ETH      C 4783   0.249   4.893   7.694
 1195ETH      C 4784   0.316   4.814   7.582
 1195ETH      H 4785   0.265   5.002   7.678
 1196ETH      O 4786   2.876   1.741   3.324
 1196ETH      C 4787   3.065   1.889   3.335
 1196ETH      C 4788   2.934   1.844   3.399
 1196ETH      H 4789   3.137   1.804   3.333
 1197ETH      O 4790   4.491   0.182   2.314
 1197ETH      C 4791   4.463   0.275   2.094
 1197ETH      C 4792   4.395   0.226   2.221
 1197ETH      H 4793   4.529   0.361   2.117
 1198ETH      O 4794   6.249   4.042   6.634
 1198ETH      C 4795   6.374   4.187   6.779
 1198ETH      C 4796   6.262   4.174   6.676
 1198ETH      H 4797   6.350   4.125   6.869
 1199ETH      O 4798   3.323   6.073   0.470
 1199ETH      C 4799   3.201   5.995   0.662
 1199ETH      C 4800   3.203   6.088   0.542
 1199ETH      H 4801   3.207   5.889   0.628
 1200ETH      O 4802   4.843   0.194   0.253
 1200ETH      C 4803   4.758   0.197   0.028
 1200ETH      C 4804   4.728   0.216   0.176
 1200ETH      H 4805   4.835   0.271  -0.005
 1201ETH      O 4806   6.679   7.535   5.201
 1201ETH      C 4807   6.457   7.449   5.235
 1201ETH      C 4808   6.606   7.430   5.258
 1201ETH      H 4809   6.423   7.544   5.283
 1202ETH      O 4810   3.843   0.185   6.021
 1202ETH      C 4811   3.984   0.234   5.833
 1202ETH      C 4812   3.975   0.179   5.975
 1202ETH      H 4813   3.922   0.172   5.765
 1203ETH      O 4814   6.468   3.829   1.076
 1203ETH      C 4815   6.572   3.881   0.866
 1203ETH      C 4816   6.591   3.838   1.010
 1203ETH      H 4817   6.511   3.806   0.811
 1204ETH      O 4818   5.597   6.668   6.323
 1204ETH      C 4819   5.414   6.819   6.285
 1204ETH      C 4820   5.458   6.674   6.305
 1204ETH      H 4821   5.439   6.879   6.375
 1205ETH      O 4822   1.702   1.623   0.005
 1205ETH      C 4823   1.790   1.419   0.094
 1205ETH      C 4824   1.701   1.539   0.117
 1205ETH      H 4825   1.753   1.359   0.008
 1206ETH      O 4826   7.200   3.450   1.371
 1206ETH      C 4827   7.243   3.686   1.378
 1206ETH      C 4828   7.299   3.546   1.394
 1206ETH      H 4829   7.206   3.700   1.273
 1207ETH      O 4830   0.709   6.373   4.665
 1207ETH      C 4831   0.563   6.183   4.676
 1207ETH      C 4832   0.621   6.295   4.590
 1207ETH      H 4833   0.645   6.117   4.712
 1208ETH      O 4834   7.418   4.811   0.428
 1208ETH      C 4835   7.504   4.878   0.642
 1208ETH      C 4836   7.527   4.797   0.515
 1208ETH      H 4837   7.494   4.986   0.616
 1209ETH      O 4838   1.826   1.992   1.632
 1209ETH      C 4839   1.821   2.018   1.393
 1209ETH      C 4840   1.824   2.087   1.529
 1209ETH      H 4841   1.912   1.955   1.380
 1210ETH      O 4842   2.869   0.075   6.381
 1210ETH      C 4843   3.029   0.198   6.509
 1210ETH      C 4844   2.883   0.166   6.486
 1210ETH      H 4845   3.085   0.106   6.537
 1211ETH      O 4846   7.250   3.952   7.827
 1211ETH      C 4847   7.322   4.143   7.953
 1211ETH      C 4848   7.334   3.993   7.931
 1211ETH      H 4849   7.353   4.198   7.861
 1212ETH      O 4850   5.740   7.425   3.930
 1212ETH      C 4851   5.622   7.373   4.132
 1212ETH      C 4852   5.691   7.320   4.008
 1212ETH      H 4853   5.695   7.430   4.195
 1213ETH      O 4854   4.388   6.341   5.147
 1213ETH      C 4855   4.384   6.403   4.915
 1213ETH      C 4856   4.329   6.312   5.024
 1213ETH      H 4857   4.361   6.509   4.939
 1214ETH      O 4858   2.011   0.294   5.770
 1214ETH      C 4859   1.850   0.150   5.876
 1214ETH      C 4860   1.894   0.293   5.848
 1214ETH      H 4861   1.827   0.098   5.780
 1215ETH      O 4862   4.789   4.476   3.990
 1215ETH      C 4863   4.853   4.539   4.213
 1215ETH      C 4864   4.796   4.430   4.122
 1215ETH      H 4865   4.956   4.565   4.180
 1216ETH      O 4866   4.579   1.325   5.114
 1216ETH      C 4867   4.451   1.234   4.932
 1216ETH      C 4868   4.451   1.282   5.077
 1216ETH      H 4869   4.479   1.317   4.864
 1217ETH      O 4870   3.694   7.607   7.085
 1217ETH      C 4871   3.783   7.493   7.276
 1217ETH      C 4872   3.689   7.600   7.224
 1217ETH      H 4873   3.753   7.393   7.237
 1218ETH      O 4874   5.901   3.950   4.977
 1218ETH      C 4875   6.002   3.997   5.189
 1218ETH      C 4876   5.993   3.902   5.071
 1218ETH      H 4877   6.037   4.097   5.156
 1219ETH      O 4878   0.142   2.834   1.896
 1219ETH      C 4879   0.107   2.905   1.670
 1219ETH      C 4880   0.051   2.897   1.811
 1219ETH      H 4881   0.201   2.966   1.669
 1220ETH      O 4882   0.483   5.535   2.218
 1220ETH      C 4883   0.496   5.481   1.984
 1220ETH      C 4884   0.572   5.516   2.111
 1220ETH      H 4885   0.439   5.386   1.999
 1221ETH      O 4886   3.203   7.632   2.357
 1221ETH      C 4887   3.073   7.542   2.537
 1221ETH      C 4888   3.177   7.643   2.494
 1221ETH      H 4889   2.977   7.561   2.484
 1222ETH      O 4890   5.090   4.717   4.336
 1222ETH      C 4891   5.268   4.612   4.212
 1222ETH      C 4892   5.150   4.594   4.307
 1222ETH      H 4893   5.232   4.656   4.116
 1223ETH      O 4894   4.686   4.741   3.814
 1223ETH      C 4895   4.863   4.753   3.975
 1223ETH      C 4896   4.806   4.682   3.853
 1223ETH      H 4897   4.885   4.859   3.950
 1224ETH      O 4898   3.237   2.592   3.718
 1224ETH      C 4899   3.223   2.662   3.489
 1224ETH      C 4900   3.164   2.576   3.600
 1224ETH      H 4901   3.218   2.770   3.517
 1225ETH      O 4902   2.131   7.784   3.924
 1225ETH      C 4903   2.216   7.878   4.128
 1225ETH      C 4904   2.215   7.883   3.976
 1225ETH      H 4905   2.114   7.897   4.167
 1226ETH      O 4906   5.920   4.195   3.265
 1226ETH      C 4907   5.788   4.062   3.415
 1226ETH      C 4908   5.818   4.099   3.271
 1226ETH      H 4909   5.878   4.018   3.463
 1227ETH      O 4910   5.067   4.041   0.290
 1227ETH      C 4911   5.103   3.966   0.515
 1227ETH      C 4912   5.019   3.954   0.388
 1227ETH      H 4913   5.209   3.938   0.493
 1228ETH      O 4914   6.174   3.056   0.018
 1228ETH      C 4915   6.142   3.241   0.168
 1228ETH      C 4916   6.200   3.102   0.148
 1228ETH      H 4917   6.189   3.312   0.097
 1229ETH      O 4918   6.183   4.682   3.302
 1229ETH      C 4919   6.187   4.899   3.199
 1229ETH      C 4920   6.154   4.817   3.323
 1229ETH      H 4921   6.296   4.892   3.177
 1230ETH      O 4922   4.570   5.948   6.352
 1230ETH      C 4923   4.738   6.093   6.443
 1230ETH      C 4924   4.707   5.975   6.352
 1230ETH      H 4925   4.686   6.184   6.405
 1231ETH      O 4926   2.411   5.308   7.631
 1231ETH      C 4927   2.419   5.462   7.815
 1231ETH      C 4928   2.353   5.339   7.755
 1231ETH      H 4929   2.527   5.442   7.833
 1232ETH      O 4930   6.631   1.369   1.976
 1232ETH      C 4931   6.757   1.505   2.128
 1232ETH      C 4932   6.741   1.456   1.985
 1232ETH      H 4933   6.667   1.563   2.159
 1233ETH      O 4934   2.733   6.985   0.288
 1233ETH      C 4935   2.755   6.747   0.308
 1233ETH      C 4936   2.819   6.877   0.263
 1233ETH      H 4937   2.735   6.750   0.417
 1234ETH      O 4938   0.380   4.746   2.121
 1234ETH      C 4939   0.300   4.699   1.900
 1234ETH      C 4940   0.267   4.751   2.039
 1234ETH      H 4941   0.379   4.762   1.853
 1235ETH      O 4942   6.792   6.010   1.210
 1235ETH      C 4943   6.582   6.011   1.326
 1235ETH      C 4944   6.730   5.979   1.332
 1235ETH      H 4945   6.567   6.120   1.307
 1236ETH      O 4946   3.941   7.014   1.652
 1236ETH      C 4947   3.917   7.090   1.878
 1236ETH      C 4948   4.009   7.076   1.758
 1236ETH      H 4949   3.830   7.154   1.852
 1237ETH      O 4950   5.033   5.615   2.366
 1237ETH      C 4951   5.117   5.669   2.584
 1237ETH      C 4952   5.147   5.657   2.435
 1237ETH      H 4953   5.038   5.746   2.601
 1238ETH      O 4954   0.449   0.063   7.438
 1238ETH      C 4955   0.307  -0.025   7.266
 1238ETH      C 4956   0.316   0.031   7.407
 1238ETH      H 4957   0.341   0.052   7.192
 1239ETH      O 4958   6.077   2.020   4.413
 1239ETH      C 4959   5.848   1.976   4.357
 1239ETH      C 4960   5.955   1.973   4.464
 1239ETH      H 4961   5.832   2.080   4.321
 1240ETH      O 4962   0.023   0.369   4.439
 1240ETH      C 4963   0.045   0.166   4.312
 1240ETH      C 4964   0.056   0.318   4.313
 1240ETH      H 4965   0.116   0.123   4.386
 1241ETH      O 4966   1.604   7.556   4.956
 1241ETH      C 4967   1.616   7.599   4.720
 1241ETH      C 4968   1.564   7.645   4.855
 1241ETH      H 4969   1.728   7.596   4.721
 1242ETH      O 4970   4.275   6.727   6.703
 1242ETH      C 4971   4.513   6.757   6.691
 1242ETH      C 4972   4.396   6.661   6.677
 1242ETH      H 4973   4.503   6.840   6.617
 1243ETH      O 4974   4.417   6.902   7.429
 1243ETH      C 4975   4.526   6.898   7.216
 1243ETH      C 4976   4.479   6.818   7.336
 1243ETH      H 4977   4.440   6.946   7.165
 1244ETH      O 4978   6.099   1.614   5.895
 1244ETH      C 4979   6.066   1.809   6.030
 1244ETH      C 4980   6.155   1.690   5.999
 1244ETH      H 4981   6.057   1.875   5.941
 1245ETH      O 4982   7.469   7.476   3.473
 1245ETH      C 4983   7.528   7.513   3.243
 1245ETH      C 4984   7.575   7.507   3.388
 1245ETH      H 4985   7.489   7.413   3.213
 1246ETH      O 4986   7.488   1.147   2.803
 1246ETH      C 4987   7.544   1.151   2.569
 1246ETH      C 4988   7.436   1.128   2.674
 1246ETH      H 4989   7.581   1.256   2.575
 1247ETH      O 4990   7.814   4.831   5.877
 1247ETH      C 4991   7.894   4.608   5.841
 1247ETH      C 4992   7.859   4.716   5.942
 1247ETH      H 4993   7.803   4.580   5.783
 1248ETH      O 4994   1.760   0.124   0.500
 1248ETH      C 4995   1.659   0.020   0.309
 1248ETH      C 4996   1.761   0.121   0.360
 1248ETH      H 4997   1.686  -0.082   0.344
 1249ETH      O 4998   4.423   7.536   7.298
 1249ETH      C 4999   4.228   7.676   7.316
 1249ETH      C 5000   4.289   7.548   7.259
 1249ETH      H 5001   4.231   7.673   7.427
 1250ETH      O 5002   2.095   3.846   6.695
 1250ETH      C 5003   2.079   3.865   6.934
 1250ETH      C 5004   2.169   3.869   6.811
 1250ETH      H 5005   2.001   3.945   6.926
 1251ETH      O 5006   3.149   3.070   4.972
 1251ETH      C 5007   3.274   2.917   4.835
 1251ETH      C 5008   3.241   3.062   4.867
 1251ETH      H 5009   3.320   2.869   4.925
 1252ETH      O 5010   3.837   4.947   3.197
 1252ETH      C 5011   3.927   4.959   3.420
 1252ETH      C 5012   3.857   4.874   3.315
 1252ETH      H 5013   4.027   4.991   3.382
 1253ETH      O 5014   6.986   1.739   0.867
 1253ETH      C 5015   6.915   1.799   1.088
 1253ETH      C 5016   6.899   1.822   0.939
 1253ETH      H 5017   6.890   1.693   1.114
 1254ETH      O 5018   2.556   4.544   4.299
 1254ETH      C 5019   2.417   4.493   4.488
 1254ETH      C 5020   2.535   4.451   4.402
 1254ETH      H 5021   2.438   4.592   4.535
 1255ETH      O 5022   2.059   2.485   1.876
 1255ETH      C 5023   1.889   2.561   1.724
 1255ETH      C 5024   2.010   2.471   1.745
 1255ETH      H 5025   1.807   2.532   1.794
 1256ETH      O 5026   3.002   7.866   6.136
 1256ETH      C 5027   2.880   7.663   6.095
 1256ETH      C 5028   2.958   7.747   6.195
 1256ETH      H 5029   2.790   7.719   6.061
 1257ETH      O 5030   5.427   0.074   1.798
 1257ETH      C 5031   5.624   0.107   1.664
 1257ETH      C 5032   5.556   0.130   1.798
 1257ETH      H 5033   5.635  -0.002   1.644
 1258ETH      O 5034   6.130   1.138   4.806
 1258ETH      C 5035   6.142   1.342   4.932
 1258ETH      C 5036   6.086   1.201   4.923
 1258ETH      H 5037   6.253   1.339   4.936
 1259ETH      O 5038   5.334   0.078   7.188
 1259ETH      C 5039   5.152   0.217   7.258
 1259ETH      C 5040   5.194   0.089   7.187
 1259ETH      H 5041   5.185   0.215   7.364
 1260ETH      O 5042   2.298   7.393   2.393
 1260ETH      C 5043   2.222   7.275   2.198
 1260ETH      C 5044   2.273   7.406   2.256
 1260ETH      H 5045   2.300   7.196   2.210
 1261ETH      O 5046   1.658   6.744   5.894
 1261ETH      C 5047   1.746   6.609   6.073
 1261ETH      C 5048   1.631   6.694   6.023
 1261ETH      H 5049   1.761   6.521   6.005
 1262ETH      O 5050   1.290   7.510   5.560
 1262ETH      C 5051   1.158   7.366   5.421
 1262ETH      C 5052   1.194   7.408   5.562
 1262ETH      H 5053   1.114   7.453   5.366
 1263ETH      O 5054   4.452   3.532   4.107
 1263ETH      C 5055   4.262   3.523   4.254
 1263ETH      C 5056   4.314   3.557   4.115
 1263ETH      H 5057   4.279   3.414   4.276
 1264ETH      O 5058   4.125   4.920   5.951
 1264ETH      C 5059   4.018   4.762   5.806
 1264ETH      C 5060   4.137   4.792   5.895
 1264ETH      H 5061   3.924   4.763   5.866
 1265ETH      O 5062   5.169   5.471  -0.067
 1265ETH      C 5063   5.285   5.468   0.144
 1265ETH      C 5064   5.263   5.541   0.012
 1265ETH      H 5065   5.189   5.464   0.201
 1266ETH      O 5066   0.705   6.479   7.649
 1266ETH      C 5067   0.782   6.257   7.700
 1266ETH      C 5068   0.769   6.402   7.747
 1266ETH      H 5069   0.682   6.213   7.683
 1267ETH      O 5070   0.244   4.311   4.576
 1267ETH      C 5071   0.136   4.191   4.755
 1267ETH      C 5072   0.246   4.288   4.715
 1267ETH      H 5073   0.037   4.235   4.730
 1268ETH      O 5074   1.207   2.034   5.926
 1268ETH      C 5075   1.007   1.903   5.946
 1268ETH      C 5076   1.157   1.910   5.968
 1268ETH      H 5077   0.956   1.982   6.006
 1269ETH      O 5078   0.623   0.762   6.811
 1269ETH      C 5079   0.478   0.572   6.833
 1269ETH      C 5080   0.621   0.622   6.821
 1269ETH      H 5081   0.431   0.613   6.926
 1270ETH      O 5082   0.525   1.956   3.842
 1270ETH      C 5083   0.296   1.926   3.909
 1270ETH      C 5084   0.394   2.000   3.818
 1270ETH      H 5085   0.300   1.817   3.888
 1271ETH      O 5086   2.723   4.741   2.613
 1271ETH      C 5087   2.582   4.853   2.454
 1271ETH      C 5088   2.703   4.763   2.476
 1271ETH      H 5089   2.490   4.804   2.494
 1272ETH      O 5090   3.473   7.219   6.503
 1272ETH      C 5091   3.692   7.316   6.513
 1272ETH      C 5092   3.559   7.294   6.584
 1272ETH      H 5093   3.741   7.218   6.492
 1273ETH      O 5094   6.341   4.428   3.704
 1273ETH      C 5095   6.406   4.343   3.919
 1273ETH      C 5096   6.427   4.338   3.769
 1273ETH      H 5097   6.428   4.445   3.958
 1274ETH      O 5098   2.376   5.474   7.049
 1274ETH      C 5099   2.263   5.421   6.844
 1274ETH      C 5100   2.257   5.494   6.978
 1274ETH      H 5101   2.347   5.462   6.782
 1275ETH      O 5102   4.605   4.084   3.813
 1275ETH      C 5103   4.452   4.012   3.983
 1275ETH      C 5104   4.590   3.997   3.922
 1275ETH      H 5105   4.438   4.116   4.021
 1276ETH      O 5106   2.620   5.225   0.118
 1276ETH      C 5107   2.659   5.204   0.354
 1276ETH      C 5108   2.679   5.144   0.216
 1276ETH      H 5109   2.709   5.304   0.359
 1277ETH      O 5110   1.732   7.595   1.179
 1277ETH      C 5111   1.574   7.740   1.286
 1277ETH      C 5112   1.598   7.634   1.180
 1277ETH      H 5113   1.598   7.699   1.387
 1278ETH      O 5114   1.642  -0.016   6.885
 1278ETH      C 5115   1.726   0.074   6.679
 1278ETH      C 5116   1.752   0.048   6.826
 1278ETH      H 5117   1.710  -0.023   6.625
 1279ETH      O 5118   7.052   5.717   1.979
 1279ETH      C 5119   7.082   5.794   2.205
 1279ETH      C 5120   7.141   5.782   2.065
 1279ETH      H 5121   6.988   5.854   2.202
 1280ETH      O 5122   6.745   0.544   7.000
 1280ETH      C 5123   6.684   0.334   6.900
 1280ETH      C 5124   6.773   0.457   6.893
 1280ETH      H 5125   6.704   0.278   6.994
 1281ETH      O 5126   3.885   4.629   6.800
 1281ETH      C 5127   3.884   4.615   6.560
 1281ETH      C 5128   3.966   4.606   6.688
 1281ETH      H 5129   3.805   4.537   6.561
 1282ETH      O 5130   0.351   1.173   2.990
 1282ETH      C 5131   0.307   1.281   3.200
 1282ETH      C 5132   0.366   1.294   3.061
 1282ETH      H 5133   0.198   1.260   3.194
 1283ETH      O 5134   6.106   5.811   6.488
 1283ETH      C 5135   6.182   5.594   6.558
 1283ETH      C 5136   6.195   5.707   6.457
 1283ETH      H 5137   6.207   5.630   6.660
 1284ETH      O 5138   6.272   5.810   3.365
 1284ETH      C 5139   6.096   5.908   3.496
 1284ETH      C 5140   6.194   5.793   3.480
 1284ETH      H 5141   6.151   6.004   3.506
 1285ETH      O 5142   0.615   5.028   1.537
 1285ETH      C 5143   0.726   4.988   1.746
 1285ETH      C 5144   0.594   5.013   1.675
 1285ETH      H 5145   0.772   4.893   1.708
 1286ETH      O 5146   7.568   2.316   1.686
 1286ETH      C 5147   7.747   2.298   1.845
 1286ETH      C 5148   7.650   2.225   1.754
 1286ETH      H 5149   7.814   2.364   1.784
 1287ETH      O 5150   7.152   2.623   0.193
 1287ETH      C 5151   7.160   2.679   0.426
 1287ETH      C 5152   7.219   2.701   0.288
 1287ETH      H 5153   7.052   2.710   0.427
 1288ETH      O 5154   6.830   3.542   7.042
 1288ETH      C 5155   6.780   3.545   7.276
 1288ETH      C 5156   6.831   3.464   7.159
 1288ETH      H 5157   6.845   3.634   7.294
 1289ETH      O 5158   0.095   3.442   1.611
 1289ETH      C 5159   0.101   3.476   1.849
 1289ETH      C 5160   0.046   3.522   1.715
 1289ETH      H 5161   0.068   3.371   1.869
 1290ETH      O 5162   5.884   5.582   6.475
 1290ETH      C 5163   5.807   5.508   6.259
 1290ETH      C 5164   5.861   5.468   6.396
 1290ETH      H 5165   5.710   5.561   6.271
 1291ETH      O 5166   7.071   0.778   3.210
 1291ETH      C 5167   7.073   0.795   2.970
 1291ETH      C 5168   7.074   0.703   3.091
 1291ETH      H 5169   6.979   0.856   2.970
 1292ETH      O 5170   2.000   6.800   1.475
 1292ETH      C 5171   2.074   6.813   1.703
 1292ETH      C 5172   2.114   6.800   1.557
 1292ETH      H 5173   2.021   6.909   1.720
 1293ETH      O 5174   4.108   0.801   3.704
 1293ETH      C 5175   4.275   0.774   3.874
 1293ETH      C 5176   4.227   0.735   3.735
 1293ETH      H 5177   4.295   0.884   3.878
 1294ETH      O 5178   6.484   7.347   7.778
 1294ETH      C 5179   6.389   7.515   7.635
 1294ETH      C 5180   6.444   7.374   7.647
 1294ETH      H 5181   6.299   7.526   7.701
 1295ETH      O 5182   2.694   2.751   5.797
 1295ETH      C 5183   2.647   2.694   5.568
 1295ETH      C 5184   2.727   2.663   5.693
 1295ETH      H 5185   2.538   2.682   5.589
 1296ETH      O 5186   4.022   6.096   6.986
 1296ETH      C 5187   3.957   6.165   7.206
 1296ETH      C 5188   3.955   6.196   7.058
 1296ETH      H 5189   3.905   6.069   7.226
 1297ETH      O 5190   3.255   1.468   5.128
 1297ETH      C 5191   3.401   1.506   5.315
 1297ETH      C 5192   3.371   1.536   5.169
 1297ETH      H 5193   3.317   1.542   5.379
 1298ETH      O 5194   5.924   6.482   3.774
 1298ETH      C 5195   5.979   6.248   3.764
 1298ETH      C 5196   6.007   6.388   3.711
 1298ETH      H 5197   5.999   6.244   3.874
 1299ETH      O 5198   4.272   4.193   1.724
 1299ETH      C 5199   4.189   4.323   1.541
 1299ETH      C 5200   4.226   4.320   1.688
 1299ETH      H 5201   4.278   4.301   1.478
 1300ETH      O 5202   3.490   3.447   0.134
 1300ETH      C 5203   3.412   3.612   0.291
 1300ETH      C 5204   3.509   3.579   0.178
 1300ETH      H 5205   3.307   3.603   0.255
 1301ETH      O 5206   5.387   7.868   6.836
 1301ETH      C 5207   5.267   7.660   6.838
 1301ETH      C 5208   5.301   7.788   6.913
 1301ETH      H 5209   5.215   7.684   6.742
 1302ETH      O 5210   5.822   4.126   2.936
 1302ETH      C 5211   5.927   4.164   2.723
 1302ETH      C 5212   5.804   4.184   2.810
 1302ETH      H 5213   6.015   4.213   2.770
 1303ETH      O 5214   6.111   7.402   3.156
 1303ETH      C 5215   6.215   7.197   3.225
 1303ETH      C 5216   6.234   7.338   3.173
 1303ETH      H 5217   6.164   7.199   3.324
 1304ETH      O 5218   1.161   5.366   2.858
 1304ETH      C 5219   1.322   5.542   2.825
 1304ETH      C 5220   1.276   5.426   2.912
 1304ETH      H 5221   1.348   5.505   2.723
 1305ETH      O 5222   3.059   3.919   1.986
 1305ETH      C 5223   3.142   3.786   1.804
 1305ETH      C 5224   3.158   3.826   1.949
 1305ETH      H 5225   3.043   3.737   1.788
 1306ETH      O 5226   6.799   5.720   3.078
 1306ETH      C 5227   6.814   5.497   3.166
 1306ETH      C 5228   6.724   5.609   3.120
 1306ETH      H 5229   6.880   5.463   3.083
 1307ETH      O 5230   1.640   2.974   3.872
 1307ETH      C 5231   1.738   3.193   3.879
 1307ETH      C 5232   1.611   3.111   3.866
 1307ETH      H 5233   1.786   3.173   3.978
 1308ETH      O 5234   6.377   4.752   1.582
 1308ETH      C 5235   6.283   4.631   1.397
 1308ETH      C 5236   6.270   4.750   1.491
 1308ETH      H 5237   6.378   4.638   1.338
 1309ETH      O 5238   1.629   6.576   5.824
 1309ETH      C 5239   1.504   6.575   5.619
 1309ETH      C 5240   1.557   6.494   5.736
 1309ETH      H 5241   1.434   6.654   5.656
 1310ETH      O 5242   6.749   3.907   4.320
 1310ETH      C 5243   6.648   3.847   4.529
 1310ETH      C 5244   6.627   3.873   4.381
 1310ETH      H 5245   6.718   3.761   4.543
 1311ETH      O 5246   1.303   2.258   5.548
 1311ETH      C 5247   1.297   2.229   5.787
 1311ETH      C 5248   1.224   2.275   5.662
 1311ETH      H 5249   1.321   2.120   5.778
 1312ETH      O 5250   0.107   3.900   6.703
 1312ETH      C 5251   0.111   3.876   6.942
 1312ETH      C 5252   0.128   3.808   6.807
 1312ETH      H 5253   0.187   3.958   6.954
 1313ETH      O 5254   5.136   3.024   2.004
 1313ETH      C 5255   5.086   2.865   1.831
 1313ETH      C 5256   5.114   2.888   1.978
 1313ETH      H 5257   4.993   2.921   1.801
 1314ETH      O 5258   5.953   4.456   5.524
 1314ETH      C 5259   5.917   4.482   5.288
 1314ETH      C 5260   5.854   4.472   5.426
 1314ETH      H 5261   5.985   4.571   5.283
 1315ETH      O 5262   6.186   4.844   3.735
 1315ETH      C 5263   6.318   4.874   3.537
 1315ETH      C 5264   6.255   4.939   3.659
 1315ETH      H 5265   6.391   4.796   3.568
 1316ETH      O 5266   6.743   3.644   6.459
 1316ETH      C 5267   6.834   3.667   6.238
 1316ETH      C 5268   6.820   3.727   6.376
 1316ETH      H 5269   6.886   3.568   6.244
 1317ETH      O 5270   4.824   3.498   5.750
 1317ETH      C 5271   4.995   3.649   5.676
 1317ETH      C 5272   4.963   3.520   5.749
 1317ETH      H 5273   4.961   3.642   5.570
 1318ETH      O 5274   4.673   3.581   2.944
 1318ETH      C 5275   4.695   3.716   2.747
 1318ETH      C 5276   4.637   3.704   2.887
 1318ETH      H 5277   4.806   3.713   2.751
 1319ETH      O 5278   0.242   4.030   1.168
 1319ETH      C 5279   0.293   3.959   0.944
 1319ETH      C 5280   0.347   4.007   1.078
 1319ETH      H 5281   0.238   3.863   0.957
 1320ETH      O 5282   3.951   4.094   5.775
 1320ETH      C 5283   4.076   3.899   5.711
 1320ETH      C 5284   4.028   3.988   5.825
 1320ETH      H 5285   3.989   3.855   5.659
 1321ETH      O 5286   5.105   0.539   5.507
 1321ETH      C 5287   5.326   0.479   5.577
 1321ETH      C 5288   5.211   0.577   5.590
 1321ETH      H 5289   5.293   0.377   5.610
 1322ETH      O 5290   4.181   3.462   6.817
 1322ETH      C 5291   4.278   3.379   6.614
 1322ETH      C 5292   4.251   3.355   6.762
 1322ETH      H 5293   4.181   3.389   6.559
 1323ETH      O 5294   5.797   2.089   0.619
 1323ETH      C 5295   5.916   1.962   0.784
 1323ETH      C 5296   5.825   2.080   0.756
 1323ETH      H 5297   5.866   1.867   0.754
 1324ETH      O 5298   5.064   6.473   7.170
 1324ETH      C 5299   5.004   6.577   6.962
 1324ETH      C 5300   5.105   6.569   7.076
 1324ETH      H 5301   4.997   6.479   6.910
 1325ETH      O 5302   6.019   3.598   1.443
 1325ETH      C 5303   6.088   3.820   1.383
 1325ETH      C 5304   6.000   3.733   1.472
 1325ETH      H 5305   6.195   3.797   1.403
 1326ETH      O 5306   7.826   7.636   2.404
 1326ETH      C 5307   7.677   7.565   2.578
 1326ETH      C 5308   7.792   7.656   2.538
 1326ETH      H 5309   7.587   7.589   2.516
 1327ETH      O 5310   0.671   7.496   4.769
 1327ETH      C 5311   0.779   7.399   4.960
 1327ETH      C 5312   0.663   7.391   4.861
 1327ETH      H 5313   0.876   7.390   4.906
 1328ETH      O 5314   5.304   5.900   5.009
 1328ETH      C 5315   5.411   5.860   5.221
 1328ETH      C 5316   5.283   5.852   5.139
 1328ETH      H 5317   5.489   5.796   5.174
 1329ETH      O 5318   5.828   1.117   0.075
 1329ETH      C 5319   5.931   1.214   0.269
 1329ETH      C 5320   5.949   1.165   0.127
 1329ETH      H 5321   5.859   1.299   0.271
 1330ETH      O 5322   4.921   1.714   3.264
 1330ETH      C 5323   4.958   1.660   3.495
 1330ETH      C 5324   4.977   1.619   3.350
 1330ETH      H 5325   5.010   1.756   3.514
 1331ETH      O 5326   6.423   2.331   3.635
 1331ETH      C 5327   6.494   2.156   3.486
 1331ETH      C 5328   6.390   2.203   3.587
 1331ETH      H 5329   6.496   2.226   3.399
 1332ETH      O 5330   7.276   5.949   1.543
 1332ETH      C 5331   7.304   5.718   1.485
 1332ETH      C 5332   7.240   5.851   1.449
 1332ETH      H 5333   7.415   5.727   1.484
 1333ETH      O 5334   3.404   1.967   2.429
 1333ETH      C 5335   3.166   1.970   2.460
 1333ETH      C 5336   3.294   1.887   2.462
 1333ETH      H 5337   3.173   2.051   2.536
 1334ETH      O 5338   3.944   0.681   4.303
 1334ETH      C 5339   3.970   0.641   4.538
 1334ETH      C 5340   3.971   0.582   4.398
 1334ETH      H 5341   4.049   0.718   4.548
 1335ETH      O 5342   0.403   3.929   2.569
 1335ETH      C 5343   0.244   3.975   2.395
 1335ETH      C 5344   0.266   3.938   2.541
 1335ETH      H 5345   0.290   4.075   2.374
 1336ETH      O 5346   2.287   6.225   7.076
 1336ETH      C 5347   2.150   6.358   7.221
 1336ETH      C 5348   2.272   6.268   7.209
 1336ETH      H 5349   2.163   6.449   7.158
 1337ETH      O 5350   7.561   2.551   3.807
 1337ETH      C 5351   7.607   2.354   3.935
 1337ETH      C 5352   7.534   2.414   3.817
 1337ETH      H 5353   7.717   2.365   3.922
 1338ETH      O 5354   2.888   4.147   4.038
 1338ETH      C 5355   2.734   4.050   4.194
 1338ETH      C 5356   2.761   4.162   4.096
 1338ETH      H 5357   2.736   3.951   4.141
 1339ETH      O 5358   1.438   6.219   6.311
 1339ETH      C 5359   1.532   6.432   6.368
 1339ETH      C 5360   1.477   6.300   6.418
 1339ETH      H 5361   1.622   6.415   6.305
 1340ETH      O 5362   5.342   2.088   6.151
 1340ETH      C 5363   5.229   1.879   6.185
 1340ETH      C 5364   5.227   2.015   6.116
 1340ETH      H 5365   5.318   1.820   6.152
 1341ETH      O 5366   4.420   1.157   2.332
 1341ETH      C 5367   4.365   1.322   2.165
 1341ETH      C 5368   4.320   1.247   2.290
 1341ETH      H 5369   4.457   1.381   2.187
 1342ETH      O 5370   4.641   2.849   4.419
 1342ETH      C 5371   4.746   2.720   4.245
 1342ETH      C 5372   4.763   2.793   4.378
 1342ETH      H 5373   4.673   2.637   4.257
 1343ETH      O 5374   4.261   7.033   3.275
 1343ETH      C 5375   4.148   7.011   3.064
 1343ETH      C 5376   4.203   6.940   3.187
 1343ETH      H 5377   4.069   7.083   3.094
 1344ETH      O 5378   6.124   2.049   6.783
 1344ETH      C 5379   6.106   1.909   6.589
 1344ETH      C 5380   6.122   1.916   6.740
 1344ETH      H 5381   6.009   1.956   6.559
 1345ETH      O 5382   4.969   5.561   7.486
 1345ETH      C 5383   4.998   5.621   7.255
 1345ETH      C 5384   4.922   5.646   7.385
 1345ETH      H 5385   5.106   5.642   7.270
 1346ETH      O 5386   0.568   2.878   0.989
 1346ETH      C 5387   0.731   2.717   0.918
 1346ETH      C 5388   0.657   2.845   0.886
 1346ETH      H 5389   0.791   2.730   1.011
 1347ETH      O 5390   7.603   0.830   5.923
 1347ETH      C 5391   7.615   0.725   5.708
 1347ETH      C 5392   7.550   0.833   5.793
 1347ETH      H 5393   7.724   0.744   5.700
 1348ETH      O 5394   3.379   5.324   6.644
 1348ETH      C 5395   3.233   5.380   6.825
 1348ETH      C 5396   3.346   5.425   6.735
 1348ETH      H 5397   3.142   5.357   6.765
 1349ETH      O 5398   1.770   0.929   5.196
 1349ETH      C 5399   1.593   0.799   5.295
 1349ETH      C 5400   1.667   0.837   5.168
 1349ETH      H 5401   1.662   0.750   5.367
 1350ETH      O 5402   1.706   4.210   1.324
 1350ETH      C 5403   1.600   4.251   1.113
 1350ETH      C 5404   1.581   4.217   1.260
 1350ETH      H 5405   1.649   4.350   1.102
 1351ETH      O 5406   4.376   1.543   6.492
 1351ETH      C 5407   4.449   1.760   6.562
 1351ETH      C 5408   4.428   1.614   6.600
 1351ETH      H 5409   4.522   1.767   6.479
 1352ETH      O 5410   0.839   1.197   1.002
 1352ETH      C 5411   0.956   1.000   1.075
 1352ETH      C 5412   0.935   1.103   0.964
 1352ETH      H 5413   0.993   1.051   1.167
 1353ETH      O 5414   2.726   6.841   4.657
 1353ETH      C 5415   2.522   6.899   4.769
 1353ETH      C 5416   2.605   6.789   4.706
 1353ETH      H 5417   2.576   6.944   4.855
 1354ETH      O 5418   0.854   1.528   0.496
 1354ETH      C 5419   0.896   1.544   0.732
 1354ETH      C 5420   0.868   1.618   0.602
 1354ETH      H 5421   0.811   1.477   0.756
 1355ETH      O 5422   0.875   6.664   5.200
 1355ETH      C 5423   0.914   6.722   4.970
 1355ETH      C 5424   0.968   6.723   5.113
 1355ETH      H 5425   0.898   6.617   4.936
 1356ETH      O 5426   7.616  -0.009   1.733
 1356ETH      C 5427   7.439   0.086   1.601
 1356ETH      C 5428   7.479   0.023   1.733
 1356ETH      H 5429   7.495   0.181   1.586
 1357ETH      O 5430   2.257   1.097   3.425
 1357ETH      C 5431   2.348   1.164   3.213
 1357ETH      C 5432   2.330   1.198   3.360
 1357ETH      H 5433   2.406   1.069   3.203
 1358ETH      O 5434   3.676   4.801   1.545
 1358ETH      C 5435   3.588   4.793   1.322
 1358ETH      C 5436   3.562   4.768   1.470
 1358ETH      H 5437   3.610   4.901   1.305
 1359ETH      O 5438   6.726   0.842   1.093
 1359ETH      C 5439   6.713   0.885   1.328
 1359ETH      C 5440   6.743   0.941   1.190
 1359ETH      H 5441   6.607   0.851   1.333
 1360ETH      O 5442   5.405   7.168   3.977
 1360ETH      C 5443   5.345   6.940   4.022
 1360ETH      C 5444   5.439   7.055   4.053
 1360ETH      H 5445   5.240   6.968   4.047
 1361ETH      O 5446   1.018   0.431   3.914
 1361ETH      C 5447   1.023   0.245   4.066
 1361ETH      C 5448   0.950   0.314   3.951
 1361ETH      H 5449   1.125   0.216   4.034
 1362ETH      O 5450   0.292   0.235   6.101
 1362ETH      C 5451   0.222   0.120   5.902
 1362ETH      C 5452   0.234   0.253   5.975
 1362ETH      H 5453   0.323   0.076   5.887
 1363ETH      O 5454   3.667   2.032   4.713
 1363ETH      C 5455   3.644   2.078   4.479
 1363ETH      C 5456   3.708   1.991   4.586
 1363ETH      H 5457   3.533   2.070   4.484
 1364ETH      O 5458   5.007   6.631   3.520
 1364ETH      C 5459   5.107   6.565   3.728
 1364ETH      C 5460   5.059   6.521   3.590
 1364ETH      H 5461   5.189   6.639   3.718
 1365ETH      O 5462   2.316   4.371   4.082
 1365ETH      C 5463   2.417   4.587   4.107
 1365ETH      C 5464   2.377   4.475   4.012
 1365ETH      H 5465   2.326   4.629   4.156
 1366ETH      O 5466   1.704   5.874   4.014
 1366ETH      C 5467   1.883   5.832   3.861
 1366ETH      C 5468   1.770   5.925   3.902
 1366ETH      H 5469   1.958   5.824   3.943
 1367ETH      O 5470   1.895   3.807   2.836
 1367ETH      C 5471   2.068   3.826   2.671
 1367ETH      C 5472   2.015   3.750   2.791
 1367ETH      H 5473   1.995   3.820   2.587
 1368ETH      O 5474   6.662   3.654   5.341
 1368ETH      C 5475   6.672   3.636   5.580
 1368ETH      C 5476   6.750   3.643   5.450
 1368ETH      H 5477   6.613   3.730   5.594
 1369ETH      O 5478   1.259   3.749   3.617
 1369ETH      C 5479   1.220   3.917   3.784
 1369ETH      C 5480   1.220   3.882   3.636
 1369ETH      H 5481   1.147   3.853   3.838
 1370ETH      O 5482   7.658   2.055   3.761
 1370ETH      C 5483   7.758   2.213   3.610
 1370ETH      C 5484   7.712   2.070   3.632
 1370ETH      H 5485   7.671   2.283   3.618
 1371ETH      O 5486   5.463   7.197   1.908
 1371ETH      C 5487   5.482   7.323   1.704
 1371ETH      C 5488   5.394   7.284   1.822
 1371ETH      H 5489   5.573   7.376   1.740
 1372ETH      O 5490   6.713   0.222   1.146
 1372ETH      C 5491   6.739   0.132   0.925
 1372ETH      C 5492   6.692   0.249   1.011
 1372ETH      H 5493   6.849   0.116   0.940
 1373ETH      O 5494   1.070   2.059   5.414
 1373ETH      C 5495   1.126   1.970   5.630
 1373ETH      C 5496   1.042   1.955   5.504
 1373ETH      H 5497   1.235   1.965   5.604
 1374ETH      O 5498   0.414   2.969   5.550
 1374ETH      C 5499   0.430   3.058   5.773
 1374ETH      C 5500   0.490   3.053   5.633
 1374ETH      H 5501   0.326   3.099   5.768
 1375ETH      O 5502   5.416   6.687   0.408
 1375ETH      C 5503   5.378   6.667   0.644
 1375ETH      C 5504   5.316   6.680   0.506
 1375ETH      H 5505   5.438   6.574   0.650
 1376ETH      O 5506   0.164   4.577   5.712
 1376ETH      C 5507   0.050   4.513   5.510
 1376ETH      C 5508   0.039   4.542   5.659
 1376ETH      H 5509   0.086   4.603   5.456
 1377ETH      O 5510   6.327   2.410   7.170
 1377ETH      C 5511   6.255   2.185   7.212
 1377ETH      C 5512   6.323   2.281   7.116
 1377ETH      H 5513   6.312   2.179   7.307
 1378ETH      O 5514   0.385   4.870   3.045
 1378ETH      C 5515   0.374   5.041   3.213
 1378ETH      C 5516   0.442   4.991   3.086
 1378ETH      H 5517   0.265   5.059   3.193
 1379ETH      O 5518   2.605   5.736   6.667
 1379ETH      C 5519   2.560   5.688   6.436
 1379ETH      C 5520   2.557   5.638   6.579
 1379ETH      H 5521   2.493   5.777   6.426
 1380ETH      O 5522   4.678   4.339   0.073
 1380ETH      C 5523   4.683   4.415   0.301
 1380ETH      C 5524   4.650   4.301   0.205
 1380ETH      H 5525   4.791   4.439   0.295
 1381ETH      O 5526   6.338   0.235   3.268
 1381ETH      C 5527   6.153   0.108   3.353
 1381ETH      C 5528   6.290   0.105   3.287
 1381ETH      H 5529   6.160   0.155   3.453
 1382ETH      O 5530   5.425   4.777   4.821
 1382ETH      C 5531   5.357   4.826   4.596
 1382ETH      C 5532   5.433   4.873   4.719
 1382ETH      H 5533   5.402   4.731   4.557
 1383ETH      O 5534   4.935   2.194   5.728
 1383ETH      C 5535   4.770   2.369   5.719
 1383ETH      C 5536   4.845   2.260   5.643
 1383ETH      H 5537   4.712   2.324   5.802
 1384ETH      O 5538   7.792   7.457   0.188
 1384ETH      C 5539   7.923   7.348   0.018
 1384ETH      C 5540   7.904   7.472   0.105
 1384ETH      H 5541   7.940   7.259   0.083
 1385ETH      O 5542   2.136   0.329   4.362
 1385ETH      C 5543   2.362   0.260   4.321
 1385ETH      C 5544   2.257   0.296   4.424
 1385ETH      H 5545   2.329   0.171   4.262
 1386ETH      O 5546   4.798   5.382   0.167
 1386ETH      C 5547   4.761   5.352   0.402
 1386ETH      C 5548   4.702   5.394   0.268
 1386ETH      H 5549   4.793   5.246   0.399
 1387ETH      O 5550   1.122   7.861   5.066
 1387ETH      C 5551   0.960   7.747   5.203
 1387ETH      C 5552   1.055   7.739   5.084
 1387ETH      H 5553   1.017   7.769   5.296
 1388ETH      O 5554   1.117   2.838   6.623
 1388ETH      C 5555   1.286   2.768   6.779
 1388ETH      C 5556   1.227   2.882   6.698
 1388ETH      H 5557   1.210   2.728   6.850
 1389ETH      O 5558   0.035   1.859   4.153
 1389ETH      C 5559   0.032   1.815   3.917
 1389ETH      C 5560   0.060   1.916   4.028
 1389ETH      H 5561   0.099   1.727   3.929
 1390ETH      O 5562   2.757   0.804   5.872
 1390ETH      C 5563   2.830   0.772   5.645
 1390ETH      C 5564   2.790   0.871   5.753
 1390ETH      H 5565   2.920   0.715   5.677
 1391ETH      O 5566   5.617   7.833   1.898
 1391ETH      C 5567   5.829   7.945   1.908
 1391ETH      C 5568   5.680   7.952   1.937
 1391ETH      H 5569   5.875   7.862   1.967
 1392ETH      O 5570   6.510   6.998   0.910
 1392ETH      C 5571   6.567   6.892   1.118
 1392ETH      C 5572   6.464   6.971   1.039
 1392ETH      H 5573   6.586   6.794   1.068
 1393ETH      O 5574   7.477   3.705   0.849
 1393ETH      C 5575   7.268   3.737   0.964
 1393ETH      C 5576   7.338   3.692   0.836
 1393ETH      H 5577   7.300   3.673   1.049
 1394ETH      O 5578   1.483   4.332   5.635
 1394ETH      C 5579   1.331   4.196   5.762
 1394ETH      C 5580   1.352   4.281   5.638
 1394ETH      H 5581   1.400   4.109   5.761
 1395ETH      O 5582   4.630   4.613   7.864
 1395ETH      C 5583   4.435   4.680   7.740
 1395ETH      C 5584   4.494   4.586   7.844
 1395ETH      H 5585   4.444   4.785   7.775
 1396ETH      O 5586   7.364   5.998   4.998
 1396ETH      C 5587   7.202   5.946   4.829
 1396ETH      C 5588   7.278   6.055   4.902
 1396ETH      H 5589   7.273   5.879   4.775
 1397ETH      O 5590   5.913   3.106   1.771
 1397ETH      C 5591   5.958   3.279   1.611
 1397ETH      C 5592   5.927   3.245   1.755
 1397ETH      H 5593   6.055   3.232   1.581
 1398ETH      O 5594   3.982   6.146   2.155
 1398ETH      C 5595   4.201   6.094   2.238
 1398ETH      C 5596   4.117   6.137   2.119
 1398ETH      H 5597   4.193   6.170   2.320
 1399ETH      O 5598   5.550   2.702   4.010
 1399ETH      C 5599   5.758   2.815   4.044
 1399ETH      C 5600   5.621   2.818   3.978
 1399ETH      H 5601   5.747   2.812   4.155
 1400ETH      O 5602   0.863   5.445   3.978
 1400ETH      C 5603   0.786   5.428   4.205
 1400ETH      C 5604   0.894   5.391   4.104
 1400ETH      H 5605   0.780   5.539   4.216
 1401ETH      O 5606   2.179   5.245   5.408
 1401ETH      C 5607   2.097   5.463   5.468
 1401ETH      C 5608   2.107   5.356   5.361
 1401ETH      H 5609   2.044   5.423   5.557
 1402ETH      O 5610   3.631   4.684   4.030
 1402ETH      C 5611   3.712   4.905   4.078
 1402ETH      C 5612   3.671   4.805   3.971
 1402ETH      H 5613   3.624   4.928   4.144
 1403ETH      O 5614   6.653   6.345   0.371
 1403ETH      C 5615   6.752   6.426   0.168
 1403ETH      C 5616   6.770   6.343   0.295
 1403ETH      H 5617   6.671   6.383   0.106
 1404ETH      O 5618   4.681   7.440   2.289
 1404ETH      C 5619   4.504   7.311   2.387
 1404ETH      C 5620   4.648   7.358   2.398
 1404ETH      H 5621   4.435   7.399   2.390
 1405ETH      O 5622   5.862   5.008   0.796
 1405ETH      C 5623   5.654   5.110   0.731
 1405ETH      C 5624   5.799   5.080   0.694
 1405ETH      H 5625   5.598   5.015   0.745
 1406ETH      O 5626   2.930   0.441   0.632
 1406ETH      C 5627   3.039   0.339   0.820
 1406ETH      C 5628   3.027   0.347   0.669
 1406ETH      H 5629   3.071   0.438   0.861
 1407ETH      O 5630   2.110   1.727   5.967
 1407ETH      C 5631   2.157   1.564   5.797
 1407ETH      C 5632   2.210   1.678   5.883
 1407ETH      H 5633   2.123   1.480   5.862
 1408ETH      O 5634   7.591   5.500   2.253
 1408ETH      C 5635   7.594   5.671   2.421
 1408ETH      C 5636   7.534   5.539   2.375
 1408ETH      H 5637   7.703   5.661   2.437
 1409ETH      O 5638   1.685   1.175   1.519
 1409ETH      C 5639   1.634   1.219   1.289
 1409ETH      C 5640   1.580   1.198   1.429
 1409ETH      H 5641   1.701   1.308   1.286
 1410ETH      O 5642   1.657   7.074   1.610
 1410ETH      C 5643   1.883   7.149   1.585
 1410ETH      C 5644   1.750   7.167   1.657
 1410ETH      H 5645   1.924   7.047   1.606
 1411ETH      O 5646   7.764   6.851   6.019
 1411ETH      C 5647   7.836   6.970   6.214
 1411ETH      C 5648   7.850   6.845   6.128
 1411ETH      H 5649   7.862   7.060   6.155
 1412ETH      O 5650   0.303   2.961   3.224
 1412ETH      C 5651   0.513   3.003   3.116
 1412ETH      C 5652   0.382   2.926   3.114
 1412ETH      H 5653   0.493   3.113   3.109
 1413ETH      O 5654   4.672   1.486   4.200
 1413ETH      C 5655   4.523   1.299   4.183
 1413ETH      C 5656   4.667   1.346   4.190
 1413ETH      H 5657   4.468   1.328   4.275
 1414ETH      O 5658   3.306   3.866   3.189
 1414ETH      C 5659   3.493   3.754   3.291
 1414ETH      C 5660   3.434   3.886   3.243
 1414ETH      H 5661   3.429   3.711   3.372
 1415ETH      O 5662   1.919   4.697   0.510
 1415ETH      C 5663   2.054   4.839   0.649
 1415ETH      C 5664   1.998   4.812   0.510
 1415ETH      H 5665   1.971   4.855   0.721
 1416ETH      O 5666   1.434   1.432   1.942
 1416ETH      C 5667   1.399   1.629   2.074
 1416ETH      C 5668   1.426   1.572   1.936
 1416ETH      H 5669   1.301   1.591   2.112
 1417ETH      O 5670   3.530   7.314   5.099
 1417ETH      C 5671   3.603   7.486   5.249
 1417ETH      C 5672   3.598   7.436   5.106
 1417ETH      H 5673   3.499   7.504   5.286
 1418ETH      O 5674   2.869   6.164   5.426
 1418ETH      C 5675   2.778   6.285   5.612
 1418ETH      C 5676   2.857   6.292   5.482
 1418ETH      H 5677   2.675   6.247   5.593
 1419ETH      O 5678   3.299   6.429   0.798
 1419ETH      C 5679   3.258   6.418   1.035
 1419ETH      C 5680   3.203   6.453   0.897
 1419ETH      H 5681   3.284   6.309   1.039
 1420ETH      O 5682   1.361   7.899   3.241
 1420ETH      C 5683   1.141   7.831   3.307
 1420ETH      C 5684   1.225   7.929   3.228
 1420ETH      H 5685   1.156   7.727   3.269
 1421ETH      O 5686   0.066   2.864   4.277
 1421ETH      C 5687   0.115   2.896   4.510
 1421ETH      C 5688   0.012   2.908   4.398
 1421ETH      H 5689   0.144   2.789   4.523
 1422ETH      O 5690   5.908   3.917   2.343
 1422ETH      C 5691   5.696   3.825   2.408
 1422ETH      C 5692   5.818   3.906   2.450
 1422ETH      H 5693   5.643   3.878   2.325
 1423ETH      O 5694   1.422   2.349   5.263
 1423ETH      C 5695   1.539   2.523   5.146
 1423ETH      C 5696   1.428   2.420   5.142
 1423ETH      H 5697   1.520   2.597   5.228
 1424ETH      O 5698   2.026   5.929   4.075
 1424ETH      C 5699   2.066   5.977   3.843
 1424ETH      C 5700   2.073   6.027   3.987
 1424ETH      H 5701   2.130   5.887   3.831
 1425ETH      O 5702   1.740   4.552   4.783
 1425ETH      C 5703   1.574   4.611   4.945
 1425ETH      C 5704   1.627   4.632   4.804
 1425ETH      H 5705   1.543   4.505   4.960
 1426ETH      O 5706   1.961   4.893   4.635
 1426ETH      C 5707   1.906   4.901   4.868
 1426ETH      C 5708   1.891   4.966   4.732
 1426ETH      H 5709   1.863   4.798   4.866
 1427ETH      O 5710   6.791   4.447   5.190
 1427ETH      C 5711   6.916   4.365   5.002
 1427ETH      C 5712   6.898   4.476   5.104
 1427ETH      H 5713   6.940   4.270   5.054
 1428ETH      O 5714   2.193   1.025   5.917
 1428ETH      C 5715   2.153   1.011   6.153
 1428ETH      C 5716   2.096   0.995   6.013
 1428ETH      H 5717   2.238   0.940   6.168
 1429ETH      O 5718   0.492   2.088   7.006
 1429ETH      C 5719   0.322   1.936   6.932
 1429ETH      C 5720   0.430   1.966   7.034
 1429ETH      H 5721   0.243   2.015   6.935
 1430ETH      O 5722   4.806   1.378   7.243
 1430ETH      C 5723   4.829   1.345   7.479
 1430ETH      C 5724   4.890   1.403   7.353
 1430ETH      H 5725   4.731   1.393   7.500
 1431ETH      O 5726   0.836   0.820   3.232
 1431ETH      C 5727   0.859   0.588   3.175
 1431ETH      C 5728   0.794   0.691   3.266
 1431ETH      H 5729   0.830   0.606   3.069
 1432ETH      O 5730   4.248   2.172   0.036
 1432ETH      C 5731   4.459   2.132   0.144
 1432ETH      C 5732   4.331   2.214   0.142
 1432ETH      H 5733   4.436   2.024   0.160
 1433ETH      O 5734   5.498   5.121   1.616
 1433ETH      C 5735   5.279   5.083   1.526
 1433ETH      C 5736   5.382   5.185   1.570
 1433ETH      H 5737   5.319   5.022   1.442
 1434ETH      O 5738   2.680   1.899   5.112
 1434ETH      C 5739   2.690   1.833   5.343
 1434ETH      C 5740   2.665   1.790   5.199
 1434ETH      H 5741   2.794   1.870   5.354
 1435ETH      O 5742   6.521   2.443   7.473
 1435ETH      C 5743   6.445   2.406   7.698
 1435ETH      C 5744   6.540   2.363   7.587
 1435ETH      H 5745   6.466   2.512   7.727
 1436ETH      O 5746   5.390   1.334   7.323
 1436ETH      C 5747   5.340   1.321   7.557
 1436ETH      C 5748   5.294   1.366   7.420
 1436ETH      H 5749   5.353   1.210   7.558
 1437ETH      O 5750   4.083   0.833   0.318
 1437ETH      C 5751   4.208   0.665   0.434
 1437ETH      C 5752   4.145   0.709   0.303
 1437ETH      H 5753   4.286   0.738   0.465
 1438ETH      O 5754   2.909   4.954   4.759
 1438ETH      C 5755   2.888   4.909   4.524
 1438ETH      C 5756   2.911   4.852   4.663
 1438ETH      H 5757   2.788   4.958   4.520
 1439ETH      O 5758   0.711   5.824   3.334
 1439ETH      C 5759   0.927   5.922   3.377
 1439ETH      C 5760   0.776   5.938   3.385
 1439ETH      H 5761   0.959   5.835   3.438
 1440ETH      O 5762   2.777   4.029   7.062
 1440ETH      C 5763   2.597   3.874   7.030
 1440ETH      C 5764   2.648   3.995   7.106
 1440ETH      H 5765   2.590   3.897   6.921
 1441ETH      O 5766   1.696   7.116   6.196
 1441ETH      C 5767   1.563   7.262   6.060
 1441ETH      C 5768   1.578   7.124   6.121
 1441ETH      H 5769   1.557   7.339   6.140
 1442ETH      O 5770   4.126   3.486   0.583
 1442ETH      C 5771   4.129   3.494   0.343
 1442ETH      C 5772   4.058   3.535   0.471
 1442ETH      H 5773   4.232   3.539   0.341
 1443ETH      O 5774   3.479   5.822   0.607
 1443ETH      C 5775   3.471   6.045   0.696
 1443ETH      C 5776   3.522   5.903   0.713
 1443ETH      H 5777   3.512   6.089   0.602
 1444ETH      O 5778   1.063   5.599   2.751
 1444ETH      C 5779   0.973   5.468   2.571
 1444ETH      C 5780   1.070   5.474   2.689
 1444ETH      H 5781   0.869   5.483   2.607
 1445ETH      O 5782   4.640   2.978   0.139
 1445ETH      C 5783   4.807   3.151   0.127
 1445ETH      C 5784   4.705   3.078   0.213
 1445ETH      H 5785   4.885   3.079   0.091
 1446ETH      O 5786   4.366   0.172   1.507
 1446ETH      C 5787   4.167   0.111   1.627
 1446ETH      C 5788   4.311   0.076   1.592
 1446ETH      H 5789   4.164   0.209   1.680
 1447ETH      O 5790   0.832   7.281   2.562
 1447ETH      C 5791   0.755   7.356   2.347
 1447ETH      C 5792   0.777   7.238   2.440
 1447ETH      H 5793   0.683   7.428   2.393
 1448ETH      O 5794   4.915   2.082   2.370
 1448ETH      C 5795   5.023   2.052   2.582
 1448ETH      C 5796   4.967   2.150   2.481
 1448ETH      H 5797   4.942   1.985   2.619
 1449ETH      O 5798   4.755   7.550   1.708
 1449ETH      C 5799   4.786   7.325   1.786
 1449ETH      C 5800   4.842   7.466   1.779
 1449ETH      H 5801   4.689   7.325   1.839
 1450ETH      O 5802   6.566   3.216   4.769
 1450ETH      C 5803   6.510   3.148   4.993
 1450ETH      C 5804   6.459   3.197   4.858
 1450ETH      H 5805   6.561   3.049   4.980
 1451ETH      O 5806   6.131   6.078   2.715
 1451ETH      C 5807   6.226   6.060   2.935
 1451ETH      C 5808   6.229   6.130   2.800
 1451ETH      H 5809   6.127   6.076   2.984
 1452ETH      O 5810   4.999   4.093   1.928
 1452ETH      C 5811   5.045   3.891   2.050
 1452ETH      C 5812   5.099   3.999   1.958
 1452ETH      H 5813   5.011   3.936   2.146
 1453ETH      O 5814   4.220   3.782   4.949
 1453ETH      C 5815   3.980   3.786   4.951
 1453ETH      C 5816   4.107   3.726   5.010
 1453ETH      H 5817   3.977   3.896   4.970
 1454ETH      O 5818   4.373   0.409   6.664
 1454ETH      C 5819   4.420   0.546   6.855
 1454ETH      C 5820   4.315   0.496   6.758
 1454ETH      H 5821   4.464   0.460   6.911
 1455ETH      O 5822   4.231   5.474   6.197
 1455ETH      C 5823   4.081   5.307   6.283
 1455ETH      C 5824   4.211   5.336   6.208
 1455ETH      H 5825   4.087   5.349   6.386
 1456ETH      O 5826   7.860   7.479   5.168
 1456ETH      C 5827   7.713   7.659   5.109
 1456ETH      C 5828   7.749   7.553   5.211
 1456ETH      H 5829   7.798   7.730   5.095
 1457ETH      O 5830   2.160   4.261   3.648
 1457ETH      C 5831   2.151   4.275   3.408
 1457ETH      C 5832   2.102   4.331   3.541
 1457ETH      H 5833   2.261   4.287   3.400
 1458ETH      O 5834   6.448   6.584   5.112
 1458ETH      C 5835   6.258   6.728   5.082
 1458ETH      C 5836   6.399   6.713   5.138
 1458ETH      H 5837   6.259   6.714   4.972
 1459ETH      O 5838   7.016   4.629   3.359
 1459ETH      C 5839   7.055   4.602   3.123
 1459ETH      C 5840   7.116   4.614   3.262
 1459ETH      H 5841   6.989   4.512   3.118
 1460ETH      O 5842   0.922   7.506   2.820
 1460ETH      C 5843   0.748   7.408   2.953
 1460ETH      C 5844   0.783   7.495   2.834
 1460ETH      H 5845   0.788   7.305   2.938
 1461ETH      O 5846   2.439   0.733   4.020
 1461ETH      C 5847   2.636   0.709   4.155
 1461ETH      C 5848   2.519   0.798   4.114
 1461ETH      H 5849   2.599   0.615   4.201
 1462ETH      O 5850   3.867   4.257   4.738
 1462ETH      C 5851   4.013   4.424   4.830
 1462ETH      C 5852   3.928   4.300   4.856
 1462ETH      H 5853   4.094   4.399   4.757
 1463ETH      O 5854   3.146   0.884   6.654
 1463ETH      C 5855   2.923   0.968   6.686
 1463ETH      C 5856   3.043   0.957   6.593
 1463ETH      H 5857   2.884   0.866   6.709
 1464ETH      O 5858   6.863   6.152   3.259
 1464ETH      C 5859   6.749   6.052   3.446
 1464ETH      C 5860   6.839   6.030   3.326
 1464ETH      H 5861   6.799   6.121   3.519
 1465ETH      O 5862   7.355   1.224   4.057
 1465ETH      C 5863   7.177   1.362   4.140
 1465ETH      C 5864   7.281   1.255   4.172
 1465ETH      H 5865   7.228   1.455   4.106
 1466ETH      O 5866   5.373   6.368   4.679
 1466ETH      C 5867   5.555   6.525   4.670
 1466ETH      C 5868   5.423   6.486   4.735
 1466ETH      H 5869   5.631   6.446   4.687
 1467ETH      O 5870   4.506   4.549   5.790
 1467ETH      C 5871   4.431   4.774   5.823
 1467ETH      C 5872   4.428   4.631   5.873
 1467ETH      H 5873   4.535   4.813   5.825
 1468ETH      O 5874   3.054   3.640   3.063
 1468ETH      C 5875   3.067   3.689   2.828
 1468ETH      C 5876   3.135   3.627   2.950
 1468ETH      H 5877   2.972   3.635   2.807
 1469ETH      O 5878   5.105   5.410   2.270
 1469ETH      C 5879   5.247   5.369   2.459
 1469ETH      C 5880   5.153   5.310   2.355
 1469ETH      H 5881   5.335   5.416   2.409
 1470ETH      O 5882   3.415   0.915   3.415
 1470ETH      C 5883   3.611   1.041   3.471
 1470ETH      C 5884   3.478   1.039   3.398
 1470ETH      H 5885   3.595   1.026   3.580
 1471ETH      O 5886   5.869   0.552   0.548
 1471ETH      C 5887   5.899   0.523   0.312
 1471ETH      C 5888   5.801   0.535   0.427
 1471ETH      H 5889   5.959   0.617   0.304
 1472ETH      O 5890   5.029   1.696   1.874
 1472ETH      C 5891   4.967   1.693   1.642
 1472ETH      C 5892   5.060   1.750   1.749
 1472ETH      H 5893   4.981   1.583   1.635
 1473ETH      O 5894   4.094   1.707   2.395
 1473ETH      C 5895   4.237   1.588   2.243
 1473ETH      C 5896   4.219   1.709   2.333
 1473ETH      H 5897   4.230   1.495   2.303
 1474ETH      O 5898   4.387   4.665   6.861
 1474ETH      C 5899   4.262   4.629   7.063
 1474ETH      C 5900   4.269   4.610   6.912
 1474ETH      H 5901   4.347   4.576   7.112
 1475ETH      O 5902   0.889   1.909   5.184
 1475ETH      C 5903   0.773   1.882   5.393
 1475ETH      C 5904   0.782   1.956   5.260
 1475ETH      H 5905   0.756   1.774   5.375
 1476ETH      O 5906   5.697   2.797   5.883
 1476ETH      C 5907   5.610   3.003   5.793
 1476ETH      C 5908   5.668   2.931   5.914
 1476ETH      H 5909   5.685   3.003   5.710
 1477ETH      O 5910   3.686   3.806   4.916
 1477ETH      C 5911   3.488   3.931   4.967
 1477ETH      C 5912   3.568   3.857   4.861
 1477ETH      H 5913   3.459   3.862   5.049
 1478ETH      O 5914   6.465   4.788   7.935
 1478ETH      C 5915   6.428   4.963   7.775
 1478ETH      C 5916   6.511   4.912   7.891
 1478ETH      H 5917   6.435   4.892   7.689
 1479ETH      O 5918   3.209   5.967   6.421
 1479ETH      C 5919   3.327   5.819   6.273
 1479ETH      C 5920   3.332   5.904   6.399
 1479ETH      H 5921   3.249   5.740   6.284
 1480ETH      O 5922   1.662   3.174   6.216
 1480ETH      C 5923   1.675   3.334   6.038
 1480ETH      C 5924   1.588   3.268   6.143
 1480ETH      H 5925   1.759   3.388   6.087
 1481ETH      O 5926   1.772   4.189   6.840
 1481ETH      C 5927   1.835   3.959   6.812
 1481ETH      C 5928   1.857   4.089   6.888
 1481ETH      H 5929   1.730   3.924   6.827
 1482ETH      O 5930   2.642   5.679   0.545
 1482ETH      C 5931   2.667   5.736   0.313
 1482ETH      C 5932   2.718   5.755   0.454
 1482ETH      H 5933   2.676   5.629   0.283
 1483ETH      O 5934   7.933   0.177   3.789
 1483ETH      C 5935   7.806   0.024   3.923
 1483ETH      C 5936   7.855   0.167   3.905
 1483ETH      H 5937   7.742  -0.005   3.837
 1484ETH      O 5938   4.167   0.008   6.558
 1484ETH      C 5939   4.199   0.031   6.321
 1484ETH      C 5940   4.228  -0.050   6.446
 1484ETH      H 5941   4.089   0.033   6.302
 1485ETH      O 5942   0.824   7.107   2.755
 1485ETH      C 5943   0.733   6.989   2.943
 1485ETH      C 5944   0.858   7.037   2.872
 1485ETH      H 5945   0.669   7.076   2.973
 1486ETH      O 5946   2.506   7.567   7.828
 1486ETH      C 5947   2.600   7.543   7.608
 1486ETH      C 5948   2.617   7.518   7.757
 1486ETH      H 5949   2.510   7.490   7.570
 1487ETH      O 5950   0.249   0.703   6.483
 1487ETH      C 5951   0.229   0.670   6.246
 1487ETH      C 5952   0.215   0.609   6.385
 1487ETH      H 5953   0.159   0.757   6.235
 1488ETH      O 5954   7.248   3.852   7.477
 1488ETH      C 5955   7.297   3.910   7.249
 1488ETH      C 5956   7.202   3.925   7.367
 1488ETH      H 5957   7.398   3.949   7.276
 1489ETH      O 5958   3.884   5.400   3.540
 1489ETH      C 5959   3.832   5.393   3.774
 1489ETH      C 5960   3.791   5.442   3.636
 1489ETH      H 5961   3.834   5.282   3.776
 1490ETH      O 5962   3.915   5.526   0.448
 1490ETH      C 5963   3.929   5.563   0.212
 1490ETH      C 5964   3.924   5.625   0.350
 1490ETH      H 5965   4.019   5.498   0.202
 1491ETH      O 5966   3.147   7.356   6.238
 1491ETH      C 5967   3.009   7.190   6.135
 1491ETH      C 5968   3.040   7.338   6.150
 1491ETH      H 5969   3.097   7.136   6.092
 1492ETH      O 5970   3.297   5.761   7.057
 1492ETH      C 5971   3.262   5.539   7.142
 1492ETH      C 5972   3.201   5.660   7.073
 1492ETH      H 5973   3.345   5.498   7.080
 1493ETH      O 5974   3.782   4.067   0.801
 1493ETH      C 5975   3.657   4.260   0.732
 1493ETH      C 5976   3.656   4.110   0.755
 1493ETH      H 5977   3.678   4.314   0.827
 1494ETH      O 5978   4.313   2.686   5.701
 1494ETH      C 5979   4.362   2.695   5.467
 1494ETH      C 5980   4.271   2.640   5.576
 1494ETH      H 5981   4.357   2.807   5.465
 1495ETH      O 5982   0.075   7.090   2.683
 1495ETH      C 5983   0.053   6.976   2.474
 1495ETH      C 5984   0.043   7.108   2.548
 1495ETH      H 5985   0.157   6.937   2.479
 1496ETH      O 5986   1.115   5.064   0.422
 1496ETH      C 5987   1.212   5.118   0.635
 1496ETH      C 5988   1.185   5.010   0.531
 1496ETH      H 5989   1.275   5.199   0.591
 1497ETH      O 5990   4.091   2.078   3.698
 1497ETH      C 5991   4.115   2.022   3.466
 1497ETH      C 5992   4.183   2.036   3.601
 1497ETH      H 5993   4.034   1.945   3.472
 1498ETH      O 5994   4.544   1.683   0.380
 1498ETH      C 5995   4.723   1.791   0.498
 1498ETH      C 5996   4.635   1.789   0.374
 1498ETH      H 5997   4.659   1.807   0.589
 1499ETH      O 5998   0.418   0.975   2.108
 1499ETH      C 5999   0.244   1.078   1.979
 1499ETH      C 6000   0.393   1.052   1.993
 1499ETH      H 6001   0.189   0.982   1.968
 1500ETH      O 6002   2.457   2.090   1.258
 1500ETH      C 6003   2.487   1.854   1.228
 1500ETH      C 6004   2.512   1.976   1.316
 1500ETH      H 6005   2.378   1.837   1.217
 1501ETH      O 6006   4.624   7.313   7.126
 1501ETH      C 6007   4.542   7.385   6.912
 1501ETH      C 6008   4.576   7.424   7.055
 1501ETH      H 6009   4.634   7.349   6.859
 1502ETH      O 6010   7.324   2.068   0.834
 1502ETH      C 6011   7.381   2.074   1.067
 1502ETH      C 6012   7.393   2.141   0.931
 1502ETH      H 6013   7.274   2.069   1.098
 1503ETH      O 6014   2.269   1.626   7.000
 1503ETH      C 6015   2.080   1.773   7.023
 1503ETH      C 6016   2.152   1.650   7.075
 1503ETH      H 6017   2.145   1.863   7.033
 1504ETH      O 6018   3.740   3.758   0.213
 1504ETH      C 6019   3.770   3.819  -0.018
 1504ETH      C 6020   3.700   3.849   0.114
 1504ETH      H 6021   3.880   3.830  -0.005
 1505ETH      O 6022   4.379   4.137   2.185
 1505ETH      C 6023   4.433   4.127   2.419
 1505ETH      C 6024   4.406   4.049   2.291
 1505ETH      H 6025   4.522   4.192   2.406
 1506ETH      O 6026   1.974   6.334   1.572
 1506ETH      C 6027   1.962   6.351   1.333
 1506ETH      C 6028   2.033   6.289   1.453
 1506ETH      H 6029   1.855   6.320   1.332
 1507ETH      O 6030   5.964   7.195   5.404
 1507ETH      C 6031   5.732   7.167   5.350
 1507ETH      C 6032   5.864   7.100   5.385
 1507ETH      H 6033   5.700   7.234   5.434
 1508ETH      O 6034   7.580   6.526   5.869
 1508ETH      C 6035   7.769   6.409   5.959
 1508ETH      C 6036   7.689   6.445   5.835
 1508ETH      H 6037   7.810   6.501   6.007
 1509ETH      O 6038   3.012   6.161   7.376
 1509ETH      C 6039   3.041   6.261   7.159
 1509ETH      C 6040   2.948   6.237   7.277
 1509ETH      H 6041   3.130   6.318   7.192
 1510ETH      O 6042   0.351   0.360   5.191
 1510ETH      C 6043   0.200   0.547   5.205
 1510ETH      C 6044   0.329   0.491   5.146
 1510ETH      H 6045   0.114   0.485   5.172
 1511ETH      O 6046   6.401   1.318   2.081
 1511ETH      C 6047   6.252   1.286   2.267
 1511ETH      C 6048   6.266   1.314   2.118
 1511ETH      H 6049   6.296   1.186   2.291
 1512ETH      O 6050   0.444   1.619   3.477
 1512ETH      C 6051   0.409   1.642   3.713
 1512ETH      C 6052   0.401   1.707   3.576
 1512ETH      H 6053   0.343   1.553   3.717
 1513ETH      O 6054   2.810   1.263   2.567
 1513ETH      C 6055   2.915   1.474   2.618
 1513ETH      C 6056   2.934   1.326   2.586
 1513ETH      H 6057   2.864   1.525   2.533
 1514ETH      O 6058   2.842   1.718   3.539
 1514ETH      C 6059   2.719   1.845   3.702
 1514ETH      C 6060   2.749   1.821   3.554
 1514ETH      H 6061   2.675   1.753   3.747
 1515ETH      O 6062   2.096   1.918   0.725
 1515ETH      C 6063   2.059   2.034   0.933
 1515ETH      C 6064   2.046   1.903   0.856
 1515ETH      H 6065   2.167   2.062   0.941
 1516ETH      O 6066   3.658   6.576   4.896
 1516ETH      C 6067   3.511   6.400   4.967
 1516ETH      C 6068   3.649   6.438   4.917
 1516ETH      H 6069   3.490   6.451   5.064
 1517ETH      O 6070   0.607   5.190   4.798
 1517ETH      C 6071   0.723   4.999   4.886
 1517ETH      C 6072   0.641   5.057   4.771
 1517ETH      H 6073   0.818   5.056   4.898
 1518ETH      O 6074   2.479   2.492   1.636
 1518ETH      C 6075   2.706   2.565   1.666
 1518ETH      C 6076   2.610   2.476   1.589
 1518ETH      H 6077   2.679   2.672   1.651
 1519ETH      O 6078   6.536   1.693   4.271
 1519ETH      C 6079   6.363   1.857   4.300
 1519ETH      C 6080   6.455   1.785   4.203
 1519ETH      H 6081   6.296   1.784   4.350
 1520ETH      O 6082   4.232   7.613   2.472
 1520ETH      C 6083   4.193   7.636   2.237
 1520ETH      C 6084   4.157   7.563   2.365
 1520ETH      H 6085   4.169   7.744   2.246
 1521ETH      O 6086   5.810   7.373   5.460
 1521ETH      C 6087   5.920   7.535   5.322
 1521ETH      C 6088   5.917   7.462   5.455
 1521ETH      H 6089   5.933   7.461   5.239
 1522ETH      O 6090   7.918   6.731   2.079
 1522ETH      C 6091   7.732   6.684   2.224
 1522ETH      C 6092   7.877   6.728   2.213
 1522ETH      H 6093   7.666   6.756   2.170
 1523ETH      O 6094   3.687   1.330   7.655
 1523ETH      C 6095   3.887   1.286   7.779
 1523ETH      C 6096   3.735   1.284   7.778
 1523ETH      H 6097   3.928   1.220   7.700
 1524ETH      O 6098   6.325   6.880   1.600
 1524ETH      C 6099   6.367   6.976   1.816
 1524ETH      C 6100   6.417   6.884   1.705
 1524ETH      H 6101   6.356   7.080   1.776
 1525ETH      O 6102   4.462   5.483   0.820
 1525ETH      C 6103   4.286   5.320   0.829
 1525ETH      C 6104   4.323   5.468   0.825
 1525ETH      H 6105   4.322   5.269   0.737
 1526ETH      O 6106   6.288   6.651   2.335
 1526ETH      C 6107   6.384   6.755   2.529
 1526ETH      C 6108   6.394   6.731   2.379
 1526ETH      H 6109   6.289   6.808   2.553
 1527ETH      O 6110   2.869   1.746   0.801
 1527ETH      C 6111   2.995   1.577   0.915
 1527ETH      C 6112   2.860   1.644   0.897
 1527ETH      H 6113   3.028   1.530   0.819
 1528ETH      O 6114   4.347   2.720   1.579
 1528ETH      C 6115   4.310   2.837   1.373
 1528ETH      C 6116   4.277   2.826   1.521
 1528ETH      H 6117   4.419   2.857   1.359
 1529ETH      O 6118   5.925   2.823   3.349
 1529ETH      C 6119   5.916   2.617   3.226
 1529ETH      C 6120   5.838   2.727   3.296
 1529ETH      H 6121   5.975   2.660   3.141
 1530ETH      O 6122   5.856   7.642   1.902
 1530ETH      C 6123   5.831   7.509   2.100
 1530ETH      C 6124   5.763   7.571   1.979
 1530ETH      H 6125   5.910   7.437   2.068
 1531ETH      O 6126   4.442   1.122   3.684
 1531ETH      C 6127   4.447   1.167   3.920
 1531ETH      C 6128   4.497   1.206   3.781
 1531ETH      H 6129   4.336   1.178   3.925
 1532ETH      O 6130   1.311   1.816   2.553
 1532ETH      C 6131   1.390   1.933   2.747
 1532ETH      C 6132   1.324   1.808   2.693
 1532ETH      H 6133   1.493   1.943   2.705
 1533ETH      O 6134   6.475   1.545   1.673
 1533ETH      C 6135   6.691   1.595   1.764
 1533ETH      C 6136   6.579   1.493   1.750
 1533ETH      H 6137   6.732   1.621   1.664
 1534ETH      O 6138   7.124   5.537   6.615
 1534ETH      C 6139   7.047   5.481   6.835
 1534ETH      C 6140   7.063   5.589   6.729
 1534ETH      H 6141   6.982   5.399   6.797
 1535ETH      O 6142   0.383   4.800   3.552
 1535ETH      C 6143   0.375   4.643   3.371
 1535ETH      C 6144   0.462   4.726   3.464
 1535ETH      H 6145   0.314   4.571   3.431
 1536ETH      O 6146   1.162   3.720   0.349
 1536ETH      C 6147   1.195   3.753   0.113
 1536ETH      C 6148   1.228   3.800   0.254
 1536ETH      H 6149   1.229   3.648   0.099
 1537ETH      O 6150   3.472   4.194   1.949
 1537ETH      C 6151   3.414   4.149   2.177
 1537ETH      C 6152   3.394   4.239   2.056
 1537ETH      H 6153   3.381   4.045   2.153
 1538ETH      O 6154   5.893  -0.023   5.296
 1538ETH      C 6155   5.674   0.013   5.203
 1538ETH      C 6156   5.770  -0.084   5.270
 1538ETH      H 6157   5.655   0.100   5.270
 1539ETH      O 6158   2.811   1.720   2.059
 1539ETH      C 6159   2.853   1.729   1.823
 1539ETH      C 6160   2.816   1.806   1.949
 1539ETH      H 6161   2.955   1.684   1.834
 1540ETH      O 6162   3.674   7.359   7.498
 1540ETH      C 6163   3.456   7.258   7.507
 1540ETH      C 6164   3.589   7.282   7.578
 1540ETH      H 6165   3.405   7.356   7.488
 1541ETH      O 6166   2.282   7.043   1.649
 1541ETH      C 6167   2.330   7.232   1.789
 1541ETH      C 6168   2.327   7.176   1.648
 1541ETH      H 6169   2.228   7.232   1.833
 1542ETH      O 6170   0.889   3.167   4.197
 1542ETH      C 6171   0.664   3.188   4.114
 1542ETH      C 6172   0.799   3.255   4.134
 1542ETH      H 6173   0.675   3.099   4.049
 1543ETH      O 6174   1.692   2.404   3.578
 1543ETH      C 6175   1.747   2.350   3.806
 1543ETH      C 6176   1.670   2.311   3.681
 1543ETH      H 6177   1.857   2.350   3.784
 1544ETH      O 6178   1.061   3.034   5.906
 1544ETH      C 6179   1.178   3.093   6.108
 1544ETH      C 6180   1.145   2.984   6.007
 1544ETH      H 6181   1.232   3.176   6.058
 1545ETH      O 6182   1.910   7.500   4.214
 1545ETH      C 6183   1.752   7.503   4.395
 1545ETH      C 6184   1.777   7.528   4.247
 1545ETH      H 6185   1.770   7.396   4.419
 1546ETH      O 6186   7.155   0.824   4.998
 1546ETH      C 6187   7.178   1.049   5.078
 1546ETH      C 6188   7.085   0.930   5.058
 1546ETH      H 6189   7.262   1.021   5.146
 1547ETH      O 6190   6.152   4.721   0.937
 1547ETH      C 6191   6.269   4.930   0.941
 1547ETH      C 6192   6.279   4.779   0.953
 1547ETH      H 6193   6.232   4.958   0.840
 1548ETH      O 6194   0.887   6.311   6.472
 1548ETH      C 6195   0.823   6.351   6.244
 1548ETH      C 6196   0.780   6.305   6.382
 1548ETH      H 6197   0.857   6.457   6.248
 1549ETH      O 6198   6.620   7.426   5.954
 1549ETH      C 6199   6.429   7.522   5.845
 1549ETH      C 6200   6.496   7.396   5.898
 1549ETH      H 6201   6.411   7.593   5.929
 1550ETH      O 6202   5.298   5.551   4.439
 1550ETH      C 6203   5.186   5.460   4.246
 1550ETH      C 6204   5.309   5.455   4.337
 1550ETH      H 6205   5.095   5.437   4.305
 1551ETH      O 6206   4.809   0.638   6.628
 1551ETH      C 6207   4.856   0.667   6.394
 1551ETH      C 6208   4.834   0.734   6.529
 1551ETH      H 6209   4.945   0.600   6.399
 1552ETH      O 6210   3.299   7.080   7.039
 1552ETH      C 6211   3.385   6.865   6.976
 1552ETH      C 6212   3.376   6.972   7.083
 1552ETH      H 6213   3.283   6.826   6.952
 1553ETH      O 6214   4.278   2.719   3.436
 1553ETH      C 6215   4.375   2.882   3.584
 1553ETH      C 6216   4.400   2.769   3.485
 1553ETH      H 6217   4.322   2.966   3.533
 1554ETH      O 6218   0.054   1.327   3.744
 1554ETH      C 6219   0.214   1.399   3.908
 1554ETH      C 6220   0.130   1.285   3.854
 1554ETH      H 6221   0.285   1.435   3.829
 1555ETH      O 6222   0.067   3.203   1.707
 1555ETH      C 6223   0.241   3.245   1.867
 1555ETH      C 6224   0.204   3.189   1.730
 1555ETH      H 6225   0.218   3.354   1.870
 1556ETH      O 6226   4.155   4.328   0.629
 1556ETH      C 6227   4.019   4.423   0.803
 1556ETH      C 6228   4.127   4.447   0.698
 1556ETH      H 6229   3.925   4.389   0.754
 1557ETH      O 6230   5.935   2.031   0.083
 1557ETH      C 6231   5.820   2.126   0.271
 1557ETH      C 6232   5.836   2.006   0.179
 1557ETH      H 6233   5.916   2.145   0.325
 1558ETH      O 6234   2.507   4.786   5.145
 1558ETH      C 6235   2.487   5.021   5.103
 1558ETH      C 6236   2.552   4.912   5.186
 1558ETH      H 6237   2.515   5.009   4.995
 1559ETH      O 6238   5.577   5.950   4.704
 1559ETH      C 6239   5.524   5.930   4.937
 1559ETH      C 6240   5.472   5.953   4.796
 1559ETH      H 6241   5.572   5.829   4.944
 1560ETH      O 6242   4.038   3.441   1.968
 1560ETH      C 6243   3.992   3.439   2.204
 1560ETH      C 6244   3.935   3.435   2.063
 1560ETH      H 6245   4.059   3.352   2.221
 1561ETH      O 6246   4.185   3.822   4.616
 1561ETH      C 6247   4.155   3.860   4.381
 1561ETH      C 6248   4.209   3.914   4.513
 1561ETH      H 6249   4.207   3.765   4.354
 1562ETH      O 6250   1.573   3.938   5.158
 1562ETH      C 6251   1.421   4.011   4.987
 1562ETH      C 6252   1.561   3.961   5.020
 1562ETH      H 6253   1.346   3.934   5.016
 1563ETH      O 6254   3.608   2.742   2.264
 1563ETH      C 6255   3.374   2.701   2.227
 1563ETH      C 6256   3.491   2.796   2.207
 1563ETH      H 6257   3.394   2.604   2.177
 1564ETH      O 6258   6.187   1.378   7.737
 1564ETH      C 6259   6.164   1.500   7.532
 1564ETH      C 6260   6.094   1.441   7.653
 1564ETH      H 6261   6.238   1.577   7.564
 1565ETH      O 6262   2.459   4.791   1.657
 1565ETH      C 6263   2.353   4.867   1.858
 1565ETH      C 6264   2.413   4.905   1.724
 1565ETH      H 6265   2.266   4.800   1.843
 1566ETH      O 6266   2.310   2.705   7.322
 1566ETH      C 6267   2.405   2.809   7.128
 1566ETH      C 6268   2.283   2.794   7.218
 1566ETH      H 6269   2.491   2.851   7.187
 1567ETH      O 6270   1.121   5.259   6.084
 1567ETH      C 6271   1.232   5.310   5.878
 1567ETH      C 6272   1.150   5.362   5.995
 1567ETH      H 6273   1.329   5.270   5.915
 1568ETH      O 6274   7.413   2.827   0.175
 1568ETH      C 6275   7.453   2.822  -0.061
 1568ETH      C 6276   7.504   2.863   0.075
 1568ETH      H 6277   7.440   2.711  -0.066
 1569ETH      O 6278   4.762   6.410   3.334
 1569ETH      C 6279   4.566   6.437   3.471
 1569ETH      C 6280   4.625   6.383   3.341
 1569ETH      H 6281   4.615   6.387   3.558
 1570ETH      O 6282   5.196   6.209   7.160
 1570ETH      C 6283   5.279   6.218   7.385
 1570ETH      C 6284   5.306   6.177   7.241
 1570ETH      H 6285   5.264   6.328   7.391
 1571ETH      O 6286   0.943   0.183   7.727
 1571ETH      C 6287   1.039   0.247   7.517
 1571ETH      C 6288   1.022   0.138   7.621
 1571ETH      H 6289   0.939   0.275   7.475
 1572ETH      O 6290   7.200   6.136   0.467
 1572ETH      C 6291   7.425   6.217   0.452
 1572ETH      C 6292   7.301   6.172   0.377
 1572ETH      H 6293   7.402   6.307   0.514
 1573ETH      O 6294   3.814   1.730   6.623
 1573ETH      C 6295   3.852   1.676   6.854
 1573ETH      C 6296   3.813   1.625   6.716
 1573ETH      H 6297   3.956   1.718   6.851
 1574ETH      O 6298   3.317   0.761   7.171
 1574ETH      C 6299   3.177   0.877   7.014
 1574ETH      C 6300   3.194   0.756   7.105
 1574ETH      H 6301   3.179   0.970   7.075
 1575ETH      O 6302   2.479   0.516   5.337
 1575ETH      C 6303   2.319   0.346   5.283
 1575ETH      C 6304   2.396   0.419   5.392
 1575ETH      H 6305   2.255   0.417   5.227
 1576ETH      O 6306   1.495   0.464   4.916
 1576ETH      C 6307   1.599   0.606   4.753
 1576ETH      C 6308   1.474   0.530   4.794
 1576ETH      H 6309   1.623   0.684   4.830
 1577ETH      O 6310   3.116   4.886   2.884
 1577ETH      C 6311   3.061   4.891   2.650
 1577ETH      C 6312   3.125   4.813   2.765
 1577ETH      H 6313   2.953   4.907   2.672
 1578ETH      O 6314   3.539   0.447   5.935
 1578ETH      C 6315   3.643   0.643   5.843
 1578ETH      C 6316   3.516   0.581   5.900
 1578ETH      H 6317   3.724   0.642   5.920
 1579ETH      O 6318   5.078   3.720   6.953
 1579ETH      C 6319   4.951   3.643   6.764
 1579ETH      C 6320   4.987   3.622   6.910
 1579ETH      H 6321   4.903   3.742   6.750
 1580ETH      O 6322   7.401   5.192   3.363
 1580ETH      C 6323   7.368   5.228   3.128
 1580ETH      C 6324   7.391   5.291   3.264
 1580ETH      H 6325   7.454   5.162   3.101
 1581ETH      O 6326   2.826   0.883   6.930
 1581ETH      C 6327   2.887   1.099   7.017
 1581ETH      C 6328   2.818   0.965   7.043
 1581ETH      H 6329   2.995   1.082   6.994
 1582ETH      O 6330   2.228   7.264   1.097
 1582ETH      C 6331   2.399   7.171   1.237
 1582ETH      C 6332   2.362   7.278   1.136
 1582ETH      H 6333   2.336   7.182   1.328
 1583ETH      O 6334   4.664   4.867   4.796
 1583ETH      C 6335   4.755   4.679   4.678
 1583ETH      C 6336   4.697   4.731   4.808
 1583ETH      H 6337   4.680   4.688   4.596
 1584ETH      O 6338   1.466   6.977   2.503
 1584ETH      C 6339   1.247   7.047   2.573
 1584ETH      C 6340   1.380   6.986   2.613
 1584ETH      H 6341   1.263   7.151   2.535
 1585ETH      O 6342   2.307   7.303   3.901
 1585ETH      C 6343   2.300   7.130   3.735
 1585ETH      C 6344   2.288   7.165   3.882
 1585ETH      H 6345   2.222   7.183   3.676
 1586ETH      O 6346   1.577   4.476   7.762
 1586ETH      C 6347   1.621   4.360   7.968
 1586ETH      C 6348   1.524   4.447   7.889
 1586ETH      H 6349   1.638   4.263   7.915
 1587ETH      O 6350   3.469   2.615   7.802
 1587ETH      C 6351   3.448   2.854   7.815
 1587ETH      C 6352   3.536   2.736   7.776
 1587ETH      H 6353   3.354   2.853   7.755
 1588ETH      O 6354   6.860   2.988   3.319
 1588ETH      C 6355   6.817   3.071   3.098
 1588ETH      C 6356   6.827   3.103   3.246
 1588ETH      H 6357   6.915   3.034   3.060
 1589ETH      O 6358   7.651   1.426   7.607
 1589ETH      C 6359   7.576   1.283   7.785
 1589ETH      C 6360   7.619   1.294   7.639
 1589ETH      H 6361   7.659   1.315   7.851
 1590ETH      O 6362   1.154   0.792   5.043
 1590ETH      C 6363   1.198   0.806   5.278
 1590ETH      C 6364   1.241   0.749   5.144
 1590ETH      H 6365   1.202   0.917   5.276
 1591ETH      O 6366   5.563   2.666   2.979
 1591ETH      C 6367   5.732   2.837   2.979
 1591ETH      C 6368   5.588   2.800   2.945
 1591ETH      H 6369   5.749   2.826   3.088
 1592ETH      O 6370   1.132   6.089   7.030
 1592ETH      C 6371   1.085   6.124   6.797
 1592ETH      C 6372   1.091   6.025   6.912
 1592ETH      H 6373   1.010   6.203   6.819
 1593ETH      O 6374   1.632   1.664   7.345
 1593ETH      C 6375   1.779   1.696   7.532
 1593ETH      C 6376   1.704   1.760   7.416
 1593ETH      H 6377   1.707   1.650   7.603
 1594ETH      O 6378   2.513   5.319   6.799
 1594ETH      C 6379   2.483   5.245   7.025
 1594ETH      C 6380   2.508   5.362   6.932
 1594ETH      H 6381   2.385   5.197   7.001
 1595ETH      O 6382   5.333   3.511   0.809
 1595ETH      C 6383   5.273   3.742   0.836
 1595ETH      C 6384   5.313   3.612   0.904
 1595ETH      H 6385   5.354   3.776   0.768
 1596ETH      O 6386   7.313   3.919   3.999
 1596ETH      C 6387   7.377   3.933   3.768
 1596ETH      C 6388   7.405   3.977   3.910
 1596ETH      H 6389   7.386   3.822   3.759
 1597ETH      O 6390   2.555   1.832   3.586
 1597ETH      C 6391   2.580   1.829   3.347
 1597ETH      C 6392   2.488   1.857   3.466
 1597ETH      H 6393   2.669   1.897   3.351
 1598ETH      O 6394   7.306   1.600   1.937
 1598ETH      C 6395   7.299   1.367   1.992
 1598ETH      C 6396   7.283   1.510   2.042
 1598ETH      H 6397   7.225   1.345   1.912
 1599ETH      O 6398   3.002   2.013   6.265
 1599ETH      C 6399   3.086   1.861   6.431
 1599ETH      C 6400   3.012   1.991   6.403
 1599ETH      H 6401   3.030   1.775   6.388
 1600ETH      O 6402   1.293   1.209   7.905
 1600ETH      C 6403   1.131   1.036   7.868
 1600ETH      C 6404   1.260   1.101   7.822
 1600ETH      H 6405   1.143   0.996   7.971
 1601ETH      O 6406   0.456   2.522   6.161
 1601ETH      C 6407   0.260   2.545   6.298
 1601ETH      C 6408   0.349   2.451   6.217
 1601ETH      H 6409   0.318   2.589   6.382
 1602ETH      O 6410   3.590   5.918   4.691
 1602ETH      C 6411   3.770   6.075   4.723
 1602ETH      C 6412   3.628   6.052   4.674
 1602ETH      H 6413   3.777   6.051   4.832
 1603ETH      O 6414   2.841   0.665   1.133
 1603ETH      C 6415   2.816   0.445   1.041
 1603ETH      C 6416   2.846   0.529   1.164
 1603ETH      H 6417   2.713   0.467   1.004
 1604ETH      O 6418   7.876   1.810   2.378
 1604ETH      C 6419   7.867   1.792   2.618
 1604ETH      C 6420   7.819   1.738   2.484
 1604ETH      H 6421   7.978   1.782   2.625
 1605ETH      O 6422   7.103   6.157   6.564
 1605ETH      C 6423   7.284   6.004   6.602
 1605ETH      C 6424   7.159   6.069   6.658
 1605ETH      H 6425   7.259   5.944   6.512
 1606ETH      O 6426   5.552   5.285   4.379
 1606ETH      C 6427   5.404   5.275   4.568
 1606ETH      C 6428   5.454   5.206   4.442
 1606ETH      H 6429   5.488   5.288   4.640
 1607ETH      O 6430   7.423   2.434   1.063
 1607ETH      C 6431   7.564   2.468   1.255
 1607ETH      C 6432   7.422   2.453   1.202
 1607ETH      H 6433   7.622   2.375   1.234
 1608ETH      O 6434   2.322   7.559   3.475
 1608ETH      C 6435   2.552   7.493   3.497
 1608ETH      C 6436   2.421   7.525   3.568
 1608ETH      H 6437   2.538   7.406   3.429
 1609ETH      O 6438   4.170   6.967   2.033
 1609ETH      C 6439   4.014   7.058   2.192
 1609ETH      C 6440   4.053   7.043   2.045
 1609ETH      H 6441   3.993   6.958   2.236
 1610ETH      O 6442   6.877   6.779   5.974
 1610ETH      C 6443   6.669   6.697   6.062
 1610ETH      C 6444   6.787   6.672   5.969
 1610ETH      H 6445   6.705   6.707   6.167
 1611ETH      O 6446   6.597   4.038   2.646
 1611ETH      C 6447   6.564   4.119   2.423
 1611ETH      C 6448   6.503   4.095   2.560
 1611ETH      H 6449   6.650   4.190   2.431
 1612ETH      O 6450   0.741   0.796   3.764
 1612ETH      C 6451   0.606   0.626   3.868
 1612ETH      C 6452   0.613   0.738   3.765
 1612ETH      H 6453   0.679   0.546   3.841
 1613ETH      O 6454   6.236   3.737   7.753
 1613ETH      C 6455   6.230   3.552   7.599
 1613ETH      C 6456   6.160   3.626   7.712
 1613ETH      H 6457   6.243   3.620   7.511
 1614ETH      O 6458   7.505   1.488   5.563
 1614ETH      C 6459   7.465   1.685   5.430
 1614ETH      C 6460   7.540   1.623   5.547
 1614ETH      H 6461   7.492   1.632   5.336
 1615ETH      O 6462   5.217   5.530   5.140
 1615ETH      C 6463   5.202   5.355   5.305
 1615ETH      C 6464   5.165   5.402   5.165
 1615ETH      H 6465   5.313   5.350   5.315
 1616ETH      O 6466   0.651   5.516   7.106
 1616ETH      C 6467   0.600   5.681   6.938
 1616ETH      C 6468   0.555   5.610   7.065
 1616ETH      H 6469   0.695   5.736   6.956
 1617ETH      O 6470   6.733   5.430   0.189
 1617ETH      C 6471   6.726   5.277   0.004
 1617ETH      C 6472   6.725   5.294   0.155
 1617ETH      H 6473   6.637   5.327  -0.041
 1618ETH      O 6474   4.952   0.857   5.973
 1618ETH      C 6475   4.989   0.763   5.755
 1618ETH      C 6476   4.973   0.737   5.904
 1618ETH      H 6477   4.896   0.809   5.715
 1619ETH      O 6478   1.298   4.928  -0.042
 1619ETH      C 6479   1.270   4.886   0.193
 1619ETH      C 6480   1.205   4.890   0.055
 1619ETH      H 6481   1.353   4.811   0.193
 1620ETH      O 6482   6.582   0.477   0.900
 1620ETH      C 6483   6.509   0.340   1.083
 1620ETH      C 6484   6.597   0.455   1.037
 1620ETH      H 6485   6.401   0.364   1.064
 1621ETH      O 6486   2.953   2.241   2.437
 1621ETH      C 6487   3.075   2.200   2.235
 1621ETH      C 6488   2.950   2.259   2.298
 1621ETH      H 6489   3.165   2.252   2.273
 1622ETH      O 6490   3.662   3.514   3.459
 1622ETH      C 6491   3.542   3.362   3.317
 1622ETH      C 6492   3.534   3.480   3.412
 1622ETH      H 6493   3.605   3.389   3.228
 1623ETH      O 6494   5.863   5.163   4.767
 1623ETH      C 6495   5.865   5.403   4.775
 1623ETH      C 6496   5.942   5.274   4.800
 1623ETH      H 6497   5.838   5.411   4.667
 1624ETH      O 6498   2.197   6.241   4.192
 1624ETH      C 6499   2.134   6.219   3.962
 1624ETH      C 6500   2.095   6.269   4.100
 1624ETH      H 6501   2.226   6.272   3.927
 1625ETH      O 6502   0.427   0.534   2.373
 1625ETH      C 6503   0.435   0.444   2.596
 1625ETH      C 6504   0.352   0.516   2.490
 1625ETH      H 6505   0.464   0.343   2.559
 1626ETH      O 6506   6.981   0.411   3.528
 1626ETH      C 6507   6.963   0.269   3.335
 1626ETH      C 6508   6.934   0.406   3.396
 1626ETH      H 6509   7.073   0.251   3.332
 1627ETH      O 6510   4.740   4.907   6.431
 1627ETH      C 6511   4.581   4.729   6.411
 1627ETH      C 6512   4.728   4.769   6.413
 1627ETH      H 6513   4.534   4.754   6.509
 1628ETH      O 6514   7.562   0.998   0.367
 1628ETH      C 6515   7.480   1.181   0.235
 1628ETH      C 6516   7.449   1.077   0.342
 1628ETH      H 6517   7.561   1.248   0.270
 1629ETH      O 6518   0.136   1.445   2.611
 1629ETH      C 6519   0.107   1.376   2.383
 1629ETH      C 6520   0.103   1.336   2.530
 1629ETH      H 6521   0.032   1.456   2.364
 1630ETH      O 6522   6.920   4.898   2.493
 1630ETH      C 6523   6.826   5.032   2.669
 1630ETH      C 6524   6.845   4.893   2.612
 1630ETH      H 6525   6.925   5.078   2.693
 1631ETH      O 6526   0.636   1.959   4.367
 1631ETH      C 6527   0.609   2.198   4.356
 1631ETH      C 6528   0.672   2.080   4.428
 1631ETH      H 6529   0.645   2.202   4.251
 1632ETH      O 6530   6.855   2.949   2.589
 1632ETH      C 6531   6.992   3.122   2.496
 1632ETH      C 6532   6.856   3.054   2.497
 1632ETH      H 6533   7.014   3.165   2.597
 1633ETH      O 6534   5.814   0.718   2.474
 1633ETH      C 6535   5.692   0.759   2.272
 1633ETH      C 6536   5.818   0.704   2.335
 1633ETH      H 6537   5.603   0.702   2.309
 1634ETH      O 6538   3.165   6.170   1.664
 1634ETH      C 6539   3.273   5.976   1.754
 1634ETH      C 6540   3.281   6.092   1.656
 1634ETH      H 6541   3.266   6.014   1.858
 1635ETH      O 6542   1.900   0.957   4.189
 1635ETH      C 6543   2.023   1.025   4.385
 1635ETH      C 6544   1.999   0.917   4.281
 1635ETH      H 6545   2.059   1.118   4.335
 1636ETH      O 6546   6.456   0.014   0.464
 1636ETH      C 6547   6.505  -0.021   0.696
 1636ETH      C 6548   6.554   0.032   0.562
 1636ETH      H 6549   6.414   0.034   0.728
 1637ETH      O 6550   2.252   1.860   7.461
 1637ETH      C 6551   2.381   1.776   7.277
 1637ETH      C 6552   2.246   1.827   7.325
 1637ETH      H 6553   2.458   1.856   7.289
 1638ETH      O 6554   7.467   4.447   0.329
 1638ETH      C 6555   7.482   4.406   0.565
 1638ETH      C 6556   7.474   4.346   0.426
 1638ETH      H 6557   7.574   4.468   0.574
 1639ETH      O 6558   3.426   7.179   2.156
 1639ETH      C 6559   3.349   7.194   2.383
 1639ETH      C 6560   3.334   7.126   2.247
 1639ETH      H 6561   3.451   7.175   2.424
 1640ETH      O 6562   0.982   1.416   2.050
 1640ETH      C 6563   0.793   1.268   2.055
 1640ETH      C 6564   0.863   1.387   2.118
 1640ETH      H 6565   0.766   1.291   1.949
 1641ETH      O 6566   7.165   7.372   1.107
 1641ETH      C 6567   7.159   7.600   1.032
 1641ETH      C 6568   7.213   7.460   1.008
 1641ETH      H 6569   7.048   7.600   1.026
 1642ETH      O 6570   3.541   4.590   5.906
 1642ETH      C 6571   3.316   4.514   5.868
 1642ETH      C 6572   3.460   4.514   5.820
 1642ETH      H 6573   3.310   4.467   5.969
 1643ETH      O 6574   4.227   6.431   0.727
 1643ETH      C 6575   4.017   6.359   0.635
 1643ETH      C 6576   4.168   6.367   0.617
 1643ETH      H 6577   3.993   6.299   0.726
 1644ETH      O 6578   5.458   3.902   1.425
 1644ETH      C 6579   5.676   3.870   1.329
 1644ETH      C 6580   5.576   3.827   1.435
 1644ETH      H 6581   5.634   3.853   1.227
 1645ETH      O 6582   1.871   1.299   2.441
 1645ETH      C 6583   1.835   1.249   2.673
 1645ETH      C 6584   1.788   1.325   2.550
 1645ETH      H 6585   1.831   1.140   2.654
 1646ETH      O 6586  -0.061   1.032   1.479
 1646ETH      C 6587   0.113   1.082   1.638
 1646ETH      C 6588   0.043   0.975   1.554
 1646ETH      H 6589   0.157   1.159   1.571
 1647ETH      O 6590   3.266   1.244   3.583
 1647ETH      C 6591   3.483   1.160   3.643
 1647ETH      C 6592   3.355   1.138   3.563
 1647ETH      H 6593   3.533   1.253   3.608
 1648ETH      O 6594   6.107   2.216   4.326
 1648ETH      C 6595   5.908   2.349   4.322
 1648ETH      C 6596   6.054   2.340   4.363
 1648ETH      H 6597   5.898   2.340   4.212
 1649ETH      O 6598   7.178   6.643   3.153
 1649ETH      C 6599   7.105   6.439   3.257
 1649ETH      C 6600   7.071   6.582   3.220
 1649ETH      H 6601   7.126   6.380   3.164
 1650ETH      O 6602   1.623   6.802   3.735
 1650ETH      C 6603   1.609   6.986   3.888
 1650ETH      C 6604   1.609   6.835   3.870
 1650ETH      H 6605   1.705   7.029   3.852
 1651ETH      O 6606   4.801   2.664   6.523
 1651ETH      C 6607   4.834   2.432   6.474
 1651ETH      C 6608   4.847   2.575   6.425
 1651ETH      H 6609   4.897   2.417   6.565
 1652ETH      O 6610   1.758   4.304   7.229
 1652ETH      C 6611   1.912   4.438   7.355
 1652ETH      C 6612   1.889   4.309   7.278
 1652ETH      H 6613   1.898   4.525   7.287
 1653ETH      O 6614   3.387   4.851   4.800
 1653ETH      C 6615   3.362   4.854   4.562
 1653ETH      C 6616   3.457   4.859   4.680
 1653ETH      H 6617   3.305   4.758   4.562
 1654ETH      O 6618   0.572   1.475   2.046
 1654ETH      C 6619   0.740   1.491   1.875
 1654ETH      C 6620   0.632   1.406   1.940
 1654ETH      H 6621   0.694   1.584   1.834
 1655ETH      O 6622   5.345   7.182   5.065
 1655ETH      C 6623   5.273   7.065   4.867
 1655ETH      C 6624   5.384   7.086   4.970
 1655ETH      H 6625   5.181   7.027   4.918
 1656ETH      O 6626   0.635   7.356   4.192
 1656ETH      C 6627   0.663   7.399   3.957
 1656ETH      C 6628   0.674   7.454   4.099
 1656ETH      H 6629   0.731   7.312   3.945
 1657ETH      O 6630   4.923   7.092   3.015
 1657ETH      C 6631   4.983   6.968   3.211
 1657ETH      C 6632   4.919   6.965   3.073
 1657ETH      H 6633   5.090   6.997   3.202
 1658ETH      O 6634   4.766   0.186   6.964
 1658ETH      C 6635   4.546   0.198   6.868
 1658ETH      C 6636   4.694   0.232   6.853
 1658ETH      H 6637   4.533   0.088   6.872
 1659ETH      O 6638   6.710   1.362   5.003
 1659ETH      C 6639   6.608   1.285   4.800
 1659ETH      C 6640   6.737   1.325   4.870
 1659ETH      H 6641   6.562   1.197   4.851
 1660ETH      O 6642   4.240   7.476   2.139
 1660ETH      C 6643   4.389   7.288   2.126
 1660ETH      C 6644   4.362   7.425   2.186
 1660ETH      H 6645   4.309   7.216   2.156
 1661ETH      O 6646   5.390   4.989   6.714
 1661ETH      C 6647   5.461   5.205   6.638
 1661ETH      C 6648   5.431   5.116   6.757
 1661ETH      H 6649   5.545   5.162   6.578
 1662ETH      O 6650   3.496   6.861   6.250
 1662ETH      C 6651   3.575   6.906   6.028
 1662ETH      C 6652   3.564   6.955   6.172
 1662ETH      H 6653   3.632   6.810   6.024
 1663ETH      O 6654   4.488   1.304   3.291
 1663ETH      C 6655   4.427   1.345   3.520
 1663ETH      C 6656   4.408   1.384   3.374
 1663ETH      H 6657   4.396   1.239   3.535
 1664ETH      O 6658   4.915   1.423   4.712
 1664ETH      C 6659   4.950   1.269   4.892
 1664ETH      C 6660   4.867   1.383   4.837
 1664ETH      H 6661   4.944   1.180   4.824
 1665ETH      O 6662   1.092   7.285   7.591
 1665ETH      C 6663   1.160   7.209   7.373
 1665ETH      C 6664   1.045   7.235   7.469
 1665ETH      H 6665   1.213   7.305   7.352
 1666ETH      O 6666   0.581   3.723   3.510
 1666ETH      C 6667   0.465   3.703   3.301
 1666ETH      C 6668   0.581   3.656   3.387
 1666ETH      H 6669   0.368   3.681   3.351
 1667ETH      O 6670   3.074   5.332   1.584
 1667ETH      C 6671   3.105   5.570   1.598
 1667ETH      C 6672   3.070   5.451   1.510
 1667ETH      H 6673   3.031   5.579   1.681
 1668ETH      O 6674   2.719   6.337   2.917
 1668ETH      C 6675   2.717   6.108   2.990
 1668ETH      C 6676   2.646   6.243   2.991
 1668ETH      H 6677   2.724   6.070   2.886
 1669ETH      O 6678   5.424   3.181   5.681
 1669ETH      C 6679   5.332   3.050   5.502
 1669ETH      C 6680   5.449   3.135   5.551
 1669ETH      H 6681   5.319   2.961   5.567
 1670ETH      O 6682   7.004   4.769   4.974
 1670ETH      C 6683   6.965   4.788   4.738
 1670ETH      C 6684   6.905   4.769   4.876
 1670ETH      H 6685   7.017   4.887   4.733
 1671ETH      O 6686   4.617   4.962   1.808
 1671ETH      C 6687   4.562   4.866   2.021
 1671ETH      C 6688   4.534   4.869   1.872
 1671ETH      H 6689   4.667   4.836   2.040
 1672ETH      O 6690   0.662   2.279   7.233
 1672ETH      C 6691   0.700   2.305   6.997
 1672ETH      C 6692   0.682   2.374   7.131
 1672ETH      H 6693   0.789   2.239   6.999
 1673ETH      O 6694   4.421   4.901   5.310
 1673ETH      C 6695   4.572   4.999   5.152
 1673ETH      C 6696   4.502   5.012   5.286
 1673ETH      H 6697   4.638   4.909   5.152
 1674ETH      O 6698   3.219   5.460   5.088
 1674ETH      C 6699   3.216   5.409   5.323
 1674ETH      C 6700   3.145   5.396   5.189
 1674ETH      H 6701   3.316   5.360   5.318
 1675ETH      O 6702   7.705   4.435   2.759
 1675ETH      C 6703   7.631   4.460   2.532
 1675ETH      C 6704   7.606   4.493   2.678
 1675ETH      H 6705   7.730   4.501   2.499
 1676ETH      O 6706   1.634   3.153   7.427
 1676ETH      C 6707   1.434   3.019   7.421
 1676ETH      C 6708   1.502   3.144   7.475
 1676ETH      H 6709   1.429   3.024   7.309
 1677ETH      O 6710   3.741   2.316   4.977
 1677ETH      C 6711   3.514   2.355   4.911
 1677ETH      C 6712   3.621   2.253   4.945
 1677ETH      H 6713   3.494   2.420   4.999
 1678ETH      O 6714   5.377   5.007   2.438
 1678ETH      C 6715   5.241   4.911   2.266
 1678ETH      C 6716   5.357   4.892   2.362
 1678ETH      H 6717   5.147   4.931   2.323
 1679ETH      O 6718   4.009   3.423   0.995
 1679ETH      C 6719   4.183   3.588   1.009
 1679ETH      C 6720   4.076   3.509   1.083
 1679ETH      H 6721   4.258   3.519   0.965
 1680ETH      O 6722   7.056   6.712   7.733
 1680ETH      C 6723   6.850   6.732   7.611
 1680ETH      C 6724   6.951   6.800   7.703
 1680ETH      H 6725   6.899   6.704   7.515
 1681ETH      O 6726   0.621   6.702   7.669
 1681ETH      C 6727   0.482   6.786   7.492
 1681ETH      C 6728   0.529   6.664   7.570
 1681ETH      H 6729   0.431   6.857   7.561
 1682ETH      O 6730   7.255   2.969   3.096
 1682ETH      C 6731   7.285   3.017   2.863
 1682ETH      C 6732   7.237   3.068   2.998
 1682ETH      H 6733   7.394   2.993   2.867
 1683ETH      O 6734   5.878   7.669   6.543
 1683ETH      C 6735   5.716   7.729   6.710
 1683ETH      C 6736   5.778   7.762   6.575
 1683ETH      H 6737   5.668   7.629   6.706
 1684ETH      O 6738   4.158   1.359   6.521
 1684ETH      C 6739   4.137   1.323   6.757
 1684ETH      C 6740   4.069   1.367   6.629
 1684ETH      H 6741   4.170   1.217   6.748
 1685ETH      O 6742   5.133  -0.035   2.743
 1685ETH      C 6743   5.131   0.005   2.979
 1685ETH      C 6744   5.166   0.059   2.842
 1685ETH      H 6745   5.021  -0.014   2.986
 1686ETH      O 6746   6.187   1.741   2.561
 1686ETH      C 6747   6.245   1.834   2.348
 1686ETH      C 6748   6.152   1.742   2.425
 1686ETH      H 6749   6.235   1.939   2.386
 1687ETH      O 6750   0.917   1.202   1.808
 1687ETH      C 6751   0.968   1.296   1.593
 1687ETH      C 6752   0.897   1.314   1.726
 1687ETH      H 6753   1.078   1.285   1.609
 1688ETH      O 6754   2.586   4.800   6.831
 1688ETH      C 6755   2.515   5.016   6.754
 1688ETH      C 6756   2.526   4.868   6.724
 1688ETH      H 6757   2.451   5.032   6.844
 1689ETH      O 6758   6.801   3.355   5.863
 1689ETH      C 6759   6.718   3.484   6.048
 1689ETH      C 6760   6.691   3.428   5.909
 1689ETH      H 6761   6.735   3.400   6.120
 1690ETH      O 6762   4.878   6.596   5.019
 1690ETH      C 6763   4.842   6.750   5.200
 1690ETH      C 6764   4.818   6.610   5.145
 1690ETH      H 6765   4.951   6.767   5.213
 1691ETH      O 6766   7.416   1.240   6.736
 1691ETH      C 6767   7.568   1.224   6.551
 1691ETH      C 6768   7.510   1.156   6.674
 1691ETH      H 6769   7.488   1.245   6.477
 1692ETH      O 6770   6.306   5.789   5.216
 1692ETH      C 6771   6.329   5.857   4.986
 1692ETH      C 6772   6.268   5.887   5.122
 1692ETH      H 6773   6.440   5.859   4.993
 1693ETH      O 6774   4.021   0.666   5.561
 1693ETH      C 6775   4.025   0.764   5.780
 1693ETH      C 6776   3.941   0.697   5.672
 1693ETH      H 6777   4.105   0.694   5.815
 1694ETH      O 6778   5.383   6.455   3.625
 1694ETH      C 6779   5.183   6.326   3.590
 1694ETH      C 6780   5.244   6.465   3.605
 1694ETH      H 6781   5.226   6.274   3.502
 1695ETH      O 6782   0.755   7.430   1.369
 1695ETH      C 6783   0.850   7.623   1.476
 1695ETH      C 6784   0.825   7.549   1.345
 1695ETH      H 6785   0.753   7.650   1.523
 1696ETH      O 6786   7.290   7.691   5.981
 1696ETH      C 6787   7.351   7.472   6.057
 1696ETH      C 6788   7.316   7.560   5.938
 1696ETH      H 6789   7.443   7.510   6.107
 1697ETH      O 6790   6.331   7.460   6.839
 1697ETH      C 6791   6.418   7.294   6.690
 1697ETH      C 6792   6.297   7.347   6.765
 1697ETH      H 6793   6.455   7.371   6.619
 1698ETH      O 6794   4.028   6.143   1.364
 1698ETH      C 6795   4.144   6.265   1.193
 1698ETH      C 6796   4.145   6.146   1.287
 1698ETH      H 6797   4.057   6.258   1.123
 1699ETH      O 6798   1.262   2.808   2.935
 1699ETH      C 6799   1.334   3.037   2.920
 1699ETH      C 6800   1.235   2.931   2.873
 1699ETH      H 6801   1.324   3.052   3.030
 1700ETH      O 6802   4.347   7.282   2.978
 1700ETH      C 6803   4.142   7.403   3.008
 1700ETH      C 6804   4.249   7.357   2.911
 1700ETH      H 6805   4.091   7.314   3.053
 1701ETH      O 6806   0.527   3.169   6.888
 1701ETH      C 6807   0.431   3.195   7.107
 1701ETH      C 6808   0.410   3.205   6.957
 1701ETH      H 6809   0.456   3.089   7.134
 1702ETH      O 6810   2.087   0.140   7.174
 1702ETH      C 6811   2.263   0.303   7.166
 1702ETH      C 6812   2.205   0.181   7.236
 1702ETH      H 6813   2.287   0.278   7.060
 1703ETH      O 6814   1.305   4.671   3.992
 1703ETH      C 6815   1.404   4.494   3.863
 1703ETH      C 6816   1.422   4.597   3.974
 1703ETH      H 6817   1.323   4.423   3.892
 1704ETH      O 6818   3.865   4.734   1.527
 1704ETH      C 6819   3.851   4.804   1.756
 1704ETH      C 6820   3.916   4.825   1.620
 1704ETH      H 6821   3.741   4.820   1.749
 1705ETH      O 6822   1.901   0.930   1.622
 1705ETH      C 6823   1.724   0.883   1.777
 1705ETH      C 6824   1.861   0.945   1.756
 1705ETH      H 6825   1.649   0.935   1.714
 1706ETH      O 6826   6.638   3.400   0.462
 1706ETH      C 6827   6.777   3.315   0.638
 1706ETH      C 6828   6.691   3.283   0.517
 1706ETH      H 6829   6.863   3.380   0.607
 1707ETH      O 6830   6.963   4.004   7.718
 1707ETH      C 6831   7.055   3.983   7.498
 1707ETH      C 6832   7.002   3.911   7.621
 1707ETH      H 6833   6.974   4.046   7.453
 1708ETH      O 6834   7.149   1.396   1.437
 1708ETH      C 6835   7.034   1.453   1.235
 1708ETH      C 6836   7.167   1.441   1.306
 1708ETH      H 6837   6.984   1.353   1.229
 1709ETH      O 6838   6.318   2.426   4.373
 1709ETH      C 6839   6.358   2.299   4.573
 1709ETH      C 6840   6.266   2.325   4.455
 1709ETH      H 6841   6.458   2.266   4.537
 1710ETH      O 6842   0.213   3.226   4.311
 1710ETH      C 6843   0.233   3.120   4.096
 1710ETH      C 6844   0.288   3.133   4.237
 1710ETH      H 6845   0.128   3.083   4.099
 1711ETH      O 6846   7.735   7.453   6.438
 1711ETH      C 6847   7.912   7.614   6.414
 1711ETH      C 6848   7.870   7.476   6.464
 1711ETH      H 6849   7.897   7.621   6.304
 1712ETH      O 6850   7.762   2.354   4.868
 1712ETH      C 6851   7.861   2.221   4.694
 1712ETH      C 6852   7.868   2.268   4.839
 1712ETH      H 6853   7.766   2.165   4.677
 1713ETH      O 6854   1.486   4.090   2.246
 1713ETH      C 6855   1.623   4.131   2.439
 1713ETH      C 6856   1.554   4.027   2.351
 1713ETH      H 6857   1.698   4.188   2.380
 1714ETH      O 6858   0.050   5.138   2.991
 1714ETH      C 6859   0.034   5.115   2.752
 1714ETH      C 6860  -0.033   5.162   2.880
 1714ETH      H 6861   0.129   5.172   2.736
 1715ETH      O 6862   5.106   6.277   4.134
 1715ETH      C 6863   5.024   6.057   4.184
 1715ETH      C 6864   5.055   6.160   4.077
 1715ETH      H 6865   5.117   6.029   4.239
 1716ETH      O 6866   5.347   7.402   2.503
 1716ETH      C 6867   5.409   7.349   2.277
 1716ETH      C 6868   5.297   7.388   2.373
 1716ETH      H 6869   5.486   7.430   2.275
 1717ETH      O 6870   5.890   2.860   5.029
 1717ETH      C 6871   6.018   2.798   5.223
 1717ETH      C 6872   5.892   2.864   5.169
 1717ETH      H 6873   6.021   2.691   5.192
 1718ETH      O 6874   5.522   2.861   6.672
 1718ETH      C 6875   5.663   3.038   6.593
 1718ETH      C 6876   5.547   2.998   6.682
 1718ETH      H 6877   5.756   2.984   6.625
 1719ETH      O 6878   0.429   3.929   6.070
 1719ETH      C 6879   0.412   4.155   5.992
 1719ETH      C 6880   0.419   4.062   6.112
 1719ETH      H 6881   0.505   4.146   5.931
 1720ETH      O 6882   6.990   0.998   5.841
 1720ETH      C 6883   6.969   1.235   5.807
 1720ETH      C 6884   7.057   1.121   5.854
 1720ETH      H 6885   6.943   1.222   5.699
 1721ETH      O 6886   1.663   1.411   6.568
 1721ETH      C 6887   1.551   1.331   6.765
 1721ETH      C 6888   1.684   1.355   6.695
 1721ETH      H 6889   1.498   1.428   6.779
 1722ETH      O 6890   2.840   6.030   1.944
 1722ETH      C 6891   2.776   6.262   1.940
 1722ETH      C 6892   2.890   6.161   1.943
 1722ETH      H 6893   2.716   6.248   1.848
 1723ETH      O 6894   2.689   2.218   0.147
 1723ETH      C 6895   2.891   2.123   0.057
 1723ETH      C 6896   2.828   2.234   0.140
 1723ETH      H 6897   2.871   2.024   0.105
 1724ETH      O 6898   0.870   4.986   3.476
 1724ETH      C 6899   0.928   5.056   3.698
 1724ETH      C 6900   0.973   5.040   3.554
 1724ETH      H 6901   0.842   5.126   3.704
 1725ETH      O 6902   5.099   6.473   3.992
 1725ETH      C 6903   4.902   6.607   3.962
 1725ETH      C 6904   4.960   6.474   4.007
 1725ETH      H 6905   4.943   6.690   4.025
 1726ETH      O 6906   5.908   0.903   4.223
 1726ETH      C 6907   5.764   0.974   4.400
 1726ETH      C 6908   5.776   0.899   4.269
 1726ETH      H 6909   5.828   0.927   4.478
 1727ETH      O 6910   3.869   0.763   5.980
 1727ETH      C 6911   3.889   0.765   6.219
 1727ETH      C 6912   3.954   0.798   6.086
 1727ETH      H 6913   3.794   0.824   6.230
 1728ETH      O 6914   0.061   6.539   5.554
 1728ETH      C 6915  -0.006   6.347   5.683
 1728ETH      C 6916   0.105   6.446   5.649
 1728ETH      H 6917  -0.093   6.402   5.726
 1729ETH      O 6918   3.893   0.892   2.165
 1729ETH      C 6919   3.915   0.931   2.401
 1729ETH      C 6920   3.903   0.828   2.289
 1729ETH      H 6921   4.007   0.992   2.387
 1730ETH      O 6922   1.898   0.180   1.304
 1730ETH      C 6923   1.848   0.290   1.512
 1730ETH      C 6924   1.794   0.235   1.381
 1730ETH      H 6925   1.894   0.208   1.572
 1731ETH      O 6926   3.274   0.489   5.779
 1731ETH      C 6927   3.151   0.652   5.654
 1731ETH      C 6928   3.230   0.622   5.780
 1731ETH      H 6929   3.216   0.638   5.564
 1732ETH      O 6930   1.856   2.233   6.274
 1732ETH      C 6931   1.795   2.240   6.506
 1732ETH      C 6932   1.830   2.319   6.381
 1732ETH      H 6933   1.703   2.180   6.488
 1733ETH      O 6934   6.653   6.243   7.684
 1733ETH      C 6935   6.668   6.425   7.528
 1733ETH      C 6936   6.614   6.375   7.662
 1733ETH      H 6937   6.779   6.422   7.528
 1734ETH      O 6938   0.465   6.301   3.711
 1734ETH      C 6939   0.508   6.076   3.639
 1734ETH      C 6940   0.505   6.224   3.602
 1734ETH      H 6941   0.582   6.059   3.721
 1735ETH      O 6942   5.552   5.397   7.304
 1735ETH      C 6943   5.518   5.410   7.067
 1735ETH      C 6944   5.458   5.374   7.203
 1735ETH      H 6945   5.545   5.518   7.064
 1736ETH      O 6946   5.668   2.717   5.375
 1736ETH      C 6947   5.621   2.749   5.142
 1736ETH      C 6948   5.611   2.657   5.262
 1736ETH      H 6949   5.565   2.843   5.162
 1737ETH      O 6950   0.452   3.944   1.269
 1737ETH      C 6951   0.512   4.177   1.269
 1737ETH      C 6952   0.528   4.041   1.202
 1737ETH      H 6953   0.405   4.209   1.264
 1738ETH      O 6954   3.546   5.588   3.481
 1738ETH      C 6955   3.585   5.580   3.244
 1738ETH      C 6956   3.620   5.524   3.381
 1738ETH      H 6957   3.477   5.563   3.222
 1739ETH      O 6958   3.149   6.901   7.464
 1739ETH      C 6959   3.313   6.748   7.550
 1739ETH      C 6960   3.282   6.861   7.452
 1739ETH      H 6961   3.298   6.783   7.655
 1740ETH      O 6962   5.666   0.951   1.819
 1740ETH      C 6963   5.550   1.103   1.673
 1740ETH      C 6964   5.568   0.959   1.719
 1740ETH      H 6965   5.517   1.166   1.758
 1741ETH      O 6966   7.667   6.886   3.969
 1741ETH      C 6967   7.527   6.950   4.154
 1741ETH      C 6968   7.551   6.853   4.040
 1741ETH      H 6969   7.613   6.947   4.225
 1742ETH      O 6970   4.114   0.994   3.498
 1742ETH      C 6971   4.322   0.889   3.554
 1742ETH      C 6972   4.174   0.870   3.525
 1742ETH      H 6973   4.373   0.933   3.465
 1743ETH      O 6974   7.090   7.035   5.433
 1743ETH      C 6975   6.895   7.102   5.556
 1743ETH      C 6976   7.046   7.082   5.557
 1743ETH      H 6977   6.868   7.178   5.479
 1744ETH      O 6978   5.840   5.961   1.633
 1744ETH      C 6979   5.871   6.014   1.865
 1744ETH      C 6980   5.903   6.050   1.721
 1744ETH      H 6981   5.761   6.023   1.883
 1745ETH      O 6982   5.852   4.726   6.331
 1745ETH      C 6983   5.747   4.871   6.171
 1745ETH      C 6984   5.846   4.859   6.286
 1745ETH      H 6985   5.779   4.807   6.086
 1746ETH      O 6986   4.953   7.669   0.417
 1746ETH      C 6987   4.848   7.817   0.576
 1746ETH      C 6988   4.944   7.803   0.458
 1746ETH      H 6989   4.746   7.783   0.546
 1747ETH      O 6990   0.582   3.228   7.457
 1747ETH      C 6991   0.646   3.306   7.239
 1747ETH      C 6992   0.597   3.343   7.379
 1747ETH      H 6993   0.745   3.256   7.246
 1748ETH      O 6994   5.236   2.391   7.516
 1748ETH      C 6995   5.283   2.198   7.381
 1748ETH      C 6996   5.339   2.309   7.469
 1748ETH      H 6997   5.213   2.134   7.441
 1749ETH      O 6998   5.839   2.510   3.590
 1749ETH      C 6999   5.969   2.309   3.569
 1749ETH      C 7000   5.831   2.373   3.566
 1749ETH      H 7001   6.033   2.354   3.489
 1750ETH      O 7002   6.422   2.266   6.636
 1750ETH      C 7003   6.380   2.280   6.872
 1750ETH      C 7004   6.389   2.190   6.750
 1750ETH      H 7005   6.479   2.328   6.891
 1751ETH      O 7006   6.088   4.223   7.867
 1751ETH      C 7007   6.119   4.308   7.645
 1751ETH      C 7008   6.030   4.230   7.740
 1751ETH      H 7009   6.131   4.413   7.682
 1752ETH      O 7010   2.810   1.536   6.209
 1752ETH      C 7011   2.831   1.605   5.980
 1752ETH      C 7012   2.836   1.490   6.080
 1752ETH      H 7013   2.729   1.651   5.980
 1753ETH      O 7014  -0.036   3.322   4.389
 1753ETH      C 7015   0.061   3.466   4.555
 1753ETH      C 7016   0.042   3.323   4.506
 1753ETH      H 7017   0.114   3.526   4.478
 1754ETH      O 7018   3.983   4.137   1.510
 1754ETH      C 7019   3.782   4.257   1.564
 1754ETH      C 7020   3.866   4.191   1.455
 1754ETH      H 7021   3.752   4.181   1.640
 1755ETH      O 7022   3.699   4.977   4.868
 1755ETH      C 7023   3.496   5.005   4.993
 1755ETH      C 7024   3.564   4.942   4.873
 1755ETH      H 7025   3.544   4.969   5.087
 1756ETH      O 7026   2.896   2.996   1.757
 1756ETH      C 7027   2.837   2.989   1.990
 1756ETH      C 7028   2.796   3.029   1.849
 1756ETH      H 7029   2.853   2.879   1.995
 1757ETH      O 7030   6.202   0.626   2.768
 1757ETH      C 7031   6.024   0.645   2.608
 1757ETH      C 7032   6.117   0.717   2.704
 1757ETH      H 7033   6.084   0.593   2.529
 1758ETH      O 7034   5.302   2.197   1.311
 1758ETH      C 7035   5.189   2.157   1.519
 1758ETH      C 7036   5.203   2.247   1.397
 1758ETH      H 7037   5.158   2.055   1.488
 1759ETH      O 7038   7.085   3.510   1.766
 1759ETH      C 7039   6.965   3.314   1.696
 1759ETH      C 7040   7.082   3.408   1.670
 1759ETH      H 7041   6.976   3.266   1.796
 1760ETH      O 7042   1.695   5.299   7.205
 1760ETH      C 7043   1.605   5.393   7.406
 1760ETH      C 7044   1.723   5.386   7.311
 1760ETH      H 7045   1.515   5.432   7.354
 1761ETH      O 7046   0.962   7.544   2.491
 1761ETH      C 7047   0.975   7.531   2.252
 1761ETH      C 7048   1.047   7.566   2.382
 1761ETH      H 7049   0.948   7.423   2.252
 1762ETH      O 7050   0.182   0.816   4.898
 1762ETH      C 7051   0.175   0.813   4.658
 1762ETH      C 7052   0.172   0.898   4.784
 1762ETH      H 7053   0.271   0.757   4.651
 1763ETH      O 7054   2.465   5.222   1.781
 1763ETH      C 7055   2.479   5.461   1.792
 1763ETH      C 7056   2.410   5.341   1.731
 1763ETH      H 7057   2.464   5.462   1.902
 1764ETH      O 7058   6.617   7.077   6.141
 1764ETH      C 7059   6.589   7.166   5.920
 1764ETH      C 7060   6.539   7.163   6.063
 1764ETH      H 7061   6.694   7.205   5.917
 1765ETH      O 7062   6.133   1.187   6.618
 1765ETH      C 7063   6.174   1.161   6.383
 1765ETH      C 7064   6.233   1.164   6.523
 1765ETH      H 7065   6.100   1.078   6.374
 1766ETH      O 7066   4.094   0.948   1.047
 1766ETH      C 7067   4.042   0.932   1.281
 1766ETH      C 7068   4.055   1.023   1.159
 1766ETH      H 7069   3.963   0.856   1.263
 1767ETH      O 7070   3.809   4.660   2.773
 1767ETH      C 7071   3.693   4.640   2.982
 1767ETH      C 7072   3.714   4.721   2.855
 1767ETH      H 7073   3.655   4.539   2.957
 1768ETH      O 7074   6.727   1.426   0.796
 1768ETH      C 7075   6.539   1.487   0.933
 1768ETH      C 7076   6.591   1.460   0.793
 1768ETH      H 7077   6.550   1.395   0.996
 1769ETH      O 7078   2.585   1.789   3.126
 1769ETH      C 7079   2.816   1.843   3.161
 1769ETH      C 7080   2.711   1.734   3.150
 1769ETH      H 7081   2.822   1.900   3.065
 1770ETH      O 7082   2.098   2.788   3.972
 1770ETH      C 7083   2.126   2.781   4.211
 1770ETH      C 7084   2.132   2.704   4.080
 1770ETH      H 7085   2.199   2.865   4.209
 1771ETH      O 7086   3.698   2.706   3.120
 1771ETH      C 7087   3.676   2.720   2.881
 1771ETH      C 7088   3.764   2.680   2.999
 1771ETH      H 7089   3.582   2.659   2.882
 1772ETH      O 7090   5.745   2.312   5.084
 1772ETH      C 7091   5.767   2.308   5.323
 1772ETH      C 7092   5.738   2.229   5.196
 1772ETH      H 7093   5.870   2.350   5.319
 1773ETH      O 7094   3.108   5.821   5.687
 1773ETH      C 7095   3.102   5.784   5.449
 1773ETH      C 7096   3.092   5.723   5.588
 1773ETH      H 7097   3.022   5.860   5.435
 1774ETH      O 7098   0.035   5.608   3.710
 1774ETH      C 7099   0.260   5.557   3.643
 1774ETH      C 7100   0.167   5.654   3.715
 1774ETH      H 7101   0.256   5.457   3.694
 1775ETH      O 7102   1.242   1.117   6.274
 1775ETH      C 7103   1.148   0.966   6.113
 1775ETH      C 7104   1.169   0.998   6.260
 1775ETH      H 7105   1.090   1.048   6.064
 1776ETH      O 7106   3.306   4.619   2.401
 1776ETH      C 7107   3.351   4.525   2.185
 1776ETH      C 7108   3.256   4.607   2.271
 1776ETH      H 7109   3.450   4.576   2.178
 1777ETH      O 7110   3.052   6.534   4.308
 1777ETH      C 7111   3.065   6.560   4.546
 1777ETH      C 7112   3.139   6.525   4.418
 1777ETH      H 7113   3.027   6.665   4.541
 1778ETH      O 7114   2.974   0.814   6.246
 1778ETH      C 7115   2.971   0.579   6.299
 1778ETH      C 7116   2.950   0.721   6.349
 1778ETH      H 7117   2.900   0.557   6.216
 1779ETH      O 7118   3.226   6.013   4.197
 1779ETH      C 7119   3.080   6.151   4.329
 1779ETH      C 7120   3.188   6.146   4.223
 1779ETH      H 7121   2.989   6.097   4.293
 1780ETH      O 7122   4.432   6.283   6.866
 1780ETH      C 7123   4.458   6.044   6.867
 1780ETH      C 7124   4.364   6.162   6.885
 1780ETH      H 7125   4.499   6.044   6.764
 1781ETH      O 7126   0.977   4.448   4.536
 1781ETH      C 7127   0.970   4.281   4.709
 1781ETH      C 7128   0.890   4.376   4.620
 1781ETH      H 7129   1.026   4.208   4.647
 1782ETH      O 7130   6.453   5.148   6.209
 1782ETH      C 7131   6.335   5.146   6.000
 1782ETH      C 7132   6.435   5.076   6.090
 1782ETH      H 7133   6.236   5.152   6.050
 1783ETH      O 7134   5.568   3.269   1.212
 1783ETH      C 7135   5.435   3.226   1.017
 1783ETH      C 7136   5.451   3.207   1.167
 1783ETH      H 7137   5.426   3.334   0.993
 1784ETH      O 7138   4.989   7.564   5.428
 1784ETH      C 7139   4.847   7.371   5.428
 1784ETH      C 7140   4.856   7.523   5.426
 1784ETH      H 7141   4.897   7.329   5.337
 1785ETH      O 7142   5.393   7.518   6.017
 1785ETH      C 7143   5.447   7.617   5.805
 1785ETH      C 7144   5.462   7.623   5.956
 1785ETH      H 7145   5.490   7.522   5.766
 1786ETH      O 7146   1.472   6.803   4.891
 1786ETH      C 7147   1.550   6.860   5.111
 1786ETH      C 7148   1.541   6.901   4.964
 1786ETH      H 7149   1.447   6.851   5.154
 1787ETH      O 7150   7.321   3.377  -0.020
 1787ETH      C 7151   7.413   3.306   0.190
 1787ETH      C 7152   7.303   3.288   0.087
 1787ETH      H 7153   7.512   3.283   0.145
 1788ETH      O 7154   7.095   7.058   3.330
 1788ETH      C 7155   7.189   7.030   3.549
 1788ETH      C 7156   7.102   6.971   3.439
 1788ETH      H 7157   7.293   7.046   3.511
 1789ETH      O 7158   0.906   5.019   6.869
 1789ETH      C 7159   0.986   4.797   6.910
 1789ETH      C 7160   0.959   4.935   6.967
 1789ETH      H 7161   0.891   4.751   6.874
 1790ETH      O 7162   6.152   3.982   0.176
 1790ETH      C 7163   6.092   3.971  -0.056
 1790ETH      C 7164   6.104   4.058   0.068
 1790ETH      H 7165   6.192   3.932  -0.085
 1791ETH      O 7166   7.419   1.666   4.892
 1791ETH      C 7167   7.592   1.833   4.901
 1791ETH      C 7168   7.465   1.778   4.964
 1791ETH      H 7169   7.672   1.756   4.904
 1792ETH      O 7170   4.405   3.655   3.550
 1792ETH      C 7171   4.418   3.677   3.311
 1792ETH      C 7172   4.329   3.675   3.434
 1792ETH      H 7173   4.491   3.761   3.319
 1793ETH      O 7174   0.650   0.412   3.633
 1793ETH      C 7175   0.887   0.433   3.595
 1793ETH      C 7176   0.754   0.505   3.612
 1793ETH      H 7177   0.911   0.375   3.687
 1794ETH      O 7178   5.392   5.269   4.769
 1794ETH      C 7179   5.555   5.228   4.940
 1794ETH      C 7180   5.457   5.168   4.840
 1794ETH      H 7181   5.632   5.287   4.887
 1795ETH      O 7182   1.683   1.940   0.145
 1795ETH      C 7183   1.841   1.781   0.231
 1795ETH      C 7184   1.801   1.871   0.115
 1795ETH      H 7185   1.859   1.842   0.322
 1796ETH      O 7186   3.301   7.589   7.747
 1796ETH      C 7187   3.100   7.640   7.867
 1796ETH      C 7188   3.252   7.646   7.864
 1796ETH      H 7189   3.058   7.698   7.781
 1797ETH      O 7190   5.821   6.440   3.382
 1797ETH      C 7191   5.852   6.518   3.157
 1797ETH      C 7192   5.818   6.555   3.300
 1797ETH      H 7193   5.955   6.476   3.152
 1798ETH      O 7194   6.342   3.095   1.489
 1798ETH      C 7195   6.367   3.081   1.251
 1798ETH      C 7196   6.431   3.058   1.387
 1798ETH      H 7197   6.275   3.019   1.240
 1799ETH      O 7198   0.186   7.245   6.384
 1799ETH      C 7199   0.036   7.139   6.539
 1799ETH      C 7200   0.084   7.270   6.478
 1799ETH      H 7201  -0.007   7.074   6.460
 1800ETH      O 7202   2.327   7.103   5.932
 1800ETH      C 7203   2.264   6.914   5.798
 1800ETH      C 7204   2.353   7.037   5.811
 1800ETH      H 7205   2.286   6.843   5.881
 1801ETH      O 7206   4.418   2.943   5.317
 1801ETH      C 7207   4.332   2.905   5.096
 1801ETH      C 7208   4.347   2.852   5.238
 1801ETH      H 7209   4.276   3.001   5.097
 1802ETH      O 7210   2.438  -0.003   1.178
 1802ETH      C 7211   2.414   0.215   1.081
 1802ETH      C 7212   2.486   0.128   1.184
 1802ETH      H 7213   2.434   0.176   0.978
 1803ETH      O 7214   6.621   2.393   3.947
 1803ETH      C 7215   6.521   2.208   3.830
 1803ETH      C 7216   6.649   2.278   3.872
 1803ETH      H 7217   6.464   2.176   3.921
 1804ETH      O 7218   2.875   5.097   3.763
 1804ETH      C 7219   2.785   4.918   3.895
 1804ETH      C 7220   2.767   5.009   3.775
 1804ETH      H 7221   2.877   4.857   3.883
 1805ETH      O 7222   6.424   2.638   4.360
 1805ETH      C 7223   6.407   2.697   4.592
 1805ETH      C 7224   6.458   2.597   4.490
 1805ETH      H 7225   6.454   2.797   4.574
 1806ETH      O 7226   3.605   2.052   0.991
 1806ETH      C 7227   3.793   1.927   0.908
 1806ETH      C 7228   3.656   1.922   0.975
 1806ETH      H 7229   3.785   1.973   0.807
 1807ETH      O 7230   4.934   5.406   2.960
 1807ETH      C 7231   4.848   5.620   3.026
 1807ETH      C 7232   4.969   5.529   3.016
 1807ETH      H 7233   4.807   5.640   2.924
 1808ETH      O 7234   5.095   6.120   7.635
 1808ETH      C 7235   5.228   6.310   7.699
 1808ETH      C 7236   5.183   6.217   7.586
 1808ETH      H 7237   5.140   6.363   7.742
 1809ETH      O 7238   2.833   7.369   4.637
 1809ETH      C 7239   2.676   7.551   4.648
 1809ETH      C 7240   2.697   7.401   4.628
 1809ETH      H 7241   2.711   7.581   4.749
 1810ETH      O 7242   2.647   7.272   0.520
 1810ETH      C 7243   2.555   7.397   0.704
 1810ETH      C 7244   2.534   7.286   0.603
 1810ETH      H 7245   2.642   7.372   0.770
 1811ETH      O 7246   6.845   2.775   3.542
 1811ETH      C 7247   6.947   2.765   3.759
 1811ETH      C 7248   6.831   2.722   3.671
 1811ETH      H 7249   7.043   2.726   3.717
 1812ETH      O 7250   3.133   5.098   7.578
 1812ETH      C 7251   3.197   5.101   7.347
 1812ETH      C 7252   3.140   5.020   7.462
 1812ETH      H 7253   3.132   5.188   7.325
 1813ETH      O 7254   3.469   3.465   2.093
 1813ETH      C 7255   3.513   3.573   2.303
 1813ETH      C 7256   3.420   3.560   2.183
 1813ETH      H 7257   3.519   3.476   2.357
 1814ETH      O 7258   5.380   2.363   6.876
 1814ETH      C 7259   5.300   2.500   7.056
 1814ETH      C 7260   5.283   2.371   6.977
 1814ETH      H 7261   5.400   2.502   7.104
 1815ETH      O 7262   5.089   1.055   1.015
 1815ETH      C 7263   5.039   1.071   0.781
 1815ETH      C 7264   5.084   1.144   0.907
 1815ETH      H 7265   5.111   0.990   0.755
 1816ETH      O 7266   7.355   0.991   7.360
 1816ETH      C 7267   7.417   0.803   7.224
 1816ETH      C 7268   7.311   0.907   7.257
 1816ETH      H 7269   7.510   0.854   7.190
 1817ETH      O 7270   3.489   2.820   1.803
 1817ETH      C 7271   3.708   2.726   1.831
 1817ETH      C 7272   3.598   2.813   1.890
 1817ETH      H 7273   3.671   2.622   1.817
 1818ETH      O 7274   7.784   4.908   7.030
 1818ETH      C 7275   7.853   4.835   7.248
 1818ETH      C 7276   7.751   4.913   7.166
 1818ETH      H 7277   7.853   4.728   7.216
 1819ETH      O 7278  -0.004   5.656   4.412
 1819ETH      C 7279   0.070   5.698   4.637
 1819ETH      C 7280   0.071   5.603   4.518
 1819ETH      H 7281   0.116   5.795   4.609
 1820ETH      O 7282   6.997   6.090   0.396
 1820ETH      C 7283   6.914   6.216   0.583
 1820ETH      C 7284   7.018   6.206   0.472
 1820ETH      H 7285   6.812   6.224   0.538
 1821ETH      O 7286   2.860   2.727   0.175
 1821ETH      C 7287   3.080   2.778   0.093
 1821ETH      C 7288   2.967   2.816   0.188
 1821ETH      H 7289   3.117   2.676   0.118
 1822ETH      O 7290   5.815   4.037   7.147
 1822ETH      C 7291   5.959   4.136   7.312
 1822ETH      C 7292   5.923   4.125   7.165
 1822ETH      H 7293   5.873   4.177   7.369
 1823ETH      O 7294   0.724   4.007   1.599
 1823ETH      C 7295   0.774   3.774   1.569
 1823ETH      C 7296   0.828   3.916   1.575
 1823ETH      H 7297   0.728   3.747   1.667
 1824ETH      O 7298   2.259   7.947   4.676
 1824ETH      C 7299   2.427   7.851   4.819
 1824ETH      C 7300   2.279   7.883   4.799
 1824ETH      H 7301   2.462   7.782   4.738
 1825ETH      O 7302   3.317   6.504   6.202
 1825ETH      C 7303   3.347   6.503   6.440
 1825ETH      C 7304   3.320   6.586   6.316
 1825ETH      H 7305   3.265   6.429   6.455
 1826ETH      O 7306   0.323   1.256   1.733
 1826ETH      C 7307   0.474   1.441   1.715
 1826ETH      C 7308   0.372   1.353   1.645
 1826ETH      H 7309   0.427   1.494   1.801
 1827ETH      O 7310   0.306   1.841   0.470
 1827ETH      C 7311   0.522   1.798   0.566
 1827ETH      C 7312   0.372   1.806   0.589
 1827ETH      H 7313   0.545   1.720   0.490
 1828ETH      O 7314   7.116   4.205   5.102
 1828ETH      C 7315   6.989   4.038   4.985
 1828ETH      C 7316   7.063   4.170   4.977
 1828ETH      H 7317   7.059   3.957   5.016
 1829ETH      O 7318   0.816   4.160   6.908
 1829ETH      C 7319   0.684   4.346   6.984
 1829ETH      C 7320   0.816   4.299   6.925
 1829ETH      H 7321   0.600   4.321   6.914
 1830ETH      O 7322   0.086   7.304   5.589
 1830ETH      C 7323  -0.013   7.445   5.755
 1830ETH      C 7324  -0.020   7.313   5.680
 1830ETH      H 7325   0.082   7.452   5.813
 1831ETH      O 7326   1.822   7.136   6.799
 1831ETH      C 7327   1.769   6.972   6.966
 1831ETH      C 7328   1.769   7.008   6.818
 1831ETH      H 7329   1.874   6.972   7.005
 1832ETH      O 7330   7.851   5.391   4.005
 1832ETH      C 7331   7.791   5.232   4.175
 1832ETH      C 7332   7.817   5.257   4.027
 1832ETH      H 7333   7.883   5.254   4.234
 1833ETH      O 7334   4.146   5.665   1.140
 1833ETH      C 7335   3.993   5.804   1.262
 1833ETH      C 7336   4.123   5.726   1.264
 1833ETH      H 7337   3.999   5.886   1.185
 1834ETH      O 7338   7.319   7.854   7.689
 1834ETH      C 7339   7.323   7.905   7.923
 1834ETH      C 7340   7.241   7.901   7.795
 1834ETH      H 7341   7.357   7.802   7.949
 1835ETH      O 7342   1.110   0.768   3.580
 1835ETH      C 7343   1.278   0.669   3.440
 1835ETH      C 7344   1.135   0.717   3.452
 1835ETH      H 7345   1.349   0.753   3.457
 1836ETH      O 7346   7.436   0.633   3.490
 1836ETH      C 7347   7.446   0.830   3.626
 1836ETH      C 7348   7.361   0.715   3.575
 1836ETH      H 7349   7.532   0.791   3.685
 1837ETH      O 7350   3.634   6.638   5.490
 1837ETH      C 7351   3.569   6.688   5.715
 1837ETH      C 7352   3.524   6.659   5.573
 1837ETH      H 7353   3.625   6.601   5.756
 1838ETH      O 7354   5.454   6.585   7.547
 1838ETH      C 7355   5.214   6.595   7.537
 1838ETH      C 7356   5.338   6.507   7.533
 1838ETH      H 7357   5.208   6.647   7.636
 1839ETH      O 7358   6.233   4.148   6.120
 1839ETH      C 7359   6.202   4.168   6.357
 1839ETH      C 7360   6.149   4.201   6.219
 1839ETH      H 7361   6.205   4.058   6.372
 1840ETH      O 7362   1.763   3.870   1.380
 1840ETH      C 7363   1.840   3.643   1.380
 1840ETH      C 7364   1.877   3.790   1.387
 1840ETH      H 7365   1.775   3.616   1.467
 1841ETH      O 7366   4.714   2.151   5.205
 1841ETH      C 7367   4.870   2.212   5.377
 1841ETH      C 7368   4.850   2.172   5.232
 1841ETH      H 7369   4.816   2.307   5.398
 1842ETH      O 7370   6.422   1.312   5.390
 1842ETH      C 7371   6.475   1.350   5.158
 1842ETH      C 7372   6.466   1.249   5.272
 1842ETH      H 7373   6.374   1.393   5.138
 1843ETH      O 7374   1.093   0.690   5.756
 1843ETH      C 7375   0.990   0.541   5.598
 1843ETH      C 7376   0.978   0.613   5.731
 1843ETH      H 7377   0.999   0.615   5.515
 1844ETH      O 7378   5.699   4.122   6.758
 1844ETH      C 7379   5.713   3.944   6.918
 1844ETH      C 7380   5.624   4.026   6.827
 1844ETH      H 7381   5.790   3.889   6.857
 1845ETH      O 7382   2.084   3.566   6.514
 1845ETH      C 7383   2.150   3.511   6.738
 1845ETH      C 7384   2.195   3.550   6.598
 1845ETH      H 7385   2.085   3.591   6.781
 1846ETH      O 7386   7.629   2.735   6.044
 1846ETH      C 7387   7.658   2.756   5.807
 1846ETH      C 7388   7.676   2.669   5.930
 1846ETH      H 7389   7.550   2.778   5.791
 1847ETH      O 7390   2.908   6.525   1.836
 1847ETH      C 7391   2.865   6.442   2.057
 1847ETH      C 7392   2.918   6.412   1.918
 1847ETH      H 7393   2.927   6.523   2.104
 1848ETH      O 7394   2.478   2.806   3.424
 1848ETH      C 7395   2.571   2.655   3.586
 1848ETH      C 7396   2.547   2.685   3.439
 1848ETH      H 7397   2.634   2.735   3.631
 1849ETH      O 7398   6.598   2.477   5.384
 1849ETH      C 7399   6.683   2.626   5.216
 1849ETH      C 7400   6.637   2.609   5.360
 1849ETH      H 7401   6.771   2.560   5.196
 1850ETH      O 7402   7.137   1.946   2.331
 1850ETH      C 7403   6.966   1.859   2.186
 1850ETH      C 7404   7.056   1.977   2.222
 1850ETH      H 7405   7.029   1.771   2.158
 1851ETH      O 7406   3.394   6.404   4.790
 1851ETH      C 7407   3.406   6.216   4.939
 1851ETH      C 7408   3.320   6.298   4.843
 1851ETH      H 7409   3.493   6.173   4.885
 1852ETH      O 7410   4.386   6.879   0.775
 1852ETH      C 7411   4.326   6.741   0.588
 1852ETH      C 7412   4.411   6.756   0.713
 1852ETH      H 7413   4.218   6.743   0.615
 1853ETH      O 7414   1.789   7.359   3.339
 1853ETH      C 7415   1.831   7.371   3.575
 1853ETH      C 7416   1.890   7.370   3.435
 1853ETH      H 7417   1.764   7.459   3.587
 1854ETH      O 7418   1.856   2.435   2.826
 1854ETH      C 7419   1.934   2.587   2.995
 1854ETH      C 7420   1.815   2.535   2.915
 1854ETH      H 7421   1.979   2.504   3.054
 1855ETH      O 7422   2.493   0.766   2.698
 1855ETH      C 7423   2.426   0.712   2.474
 1855ETH      C 7424   2.441   0.664   2.617
 1855ETH      H 7425   2.355   0.798   2.470
 1856ETH      O 7426   0.802   7.515   6.289
 1856ETH      C 7427   0.943   7.337   6.366
 1856ETH      C 7428   0.906   7.483   6.378
 1856ETH      H 7429   0.856   7.273   6.392
 1857ETH      O 7430   3.974   4.139   2.475
 1857ETH      C 7431   4.156   4.291   2.440
 1857ETH      C 7432   4.049   4.241   2.535
 1857ETH      H 7433   4.226   4.208   2.414
 1858ETH      O 7434   0.987   7.607   5.827
 1858ETH      C 7435   1.006   7.690   5.603
 1858ETH      C 7436   1.053   7.701   5.747
 1858ETH      H 7437   1.030   7.589   5.562
 1859ETH      O 7438   7.108   5.749   7.359
 1859ETH      C 7439   7.304   5.661   7.467
 1859ETH      C 7440   7.171   5.734   7.483
 1859ETH      H 7441   7.287   5.559   7.426
 1860ETH      O 7442   6.564   5.206   0.970
 1860ETH      C 7443   6.466   5.142   0.761
 1860ETH      C 7444   6.467   5.242   0.875
 1860ETH      H 7445   6.565   5.142   0.709
 1861ETH      O 7446   6.598   2.767   6.476
 1861ETH      C 7447   6.757   2.880   6.336
 1861ETH      C 7448   6.640   2.893   6.433
 1861ETH      H 7449   6.844   2.831   6.388
 1862ETH      O 7450   2.474   6.830   1.471
 1862ETH      C 7451   2.625   6.827   1.657
 1862ETH      C 7452   2.509   6.759   1.586
 1862ETH      H 7453   2.715   6.830   1.590
 1863ETH      O 7454   5.611   5.752   6.531
 1863ETH      C 7455   5.669   5.588   6.696
 1863ETH      C 7456   5.628   5.732   6.668
 1863ETH      H 7457   5.589   5.518   6.661
 1864ETH      O 7458   0.522   0.911   7.460
 1864ETH      C 7459   0.522   1.101   7.313
 1864ETH      C 7460   0.451   0.975   7.357
 1864ETH      H 7461   0.530   1.173   7.398
 1865ETH      O 7462   7.736   3.999   4.534
 1865ETH      C 7463   7.864   4.121   4.371
 1865ETH      C 7464   7.726   4.080   4.420
 1865ETH      H 7465   7.916   4.180   4.450
 1866ETH      O 7466   3.009   2.537   5.461
 1866ETH      C 7467   3.095   2.413   5.274
 1866ETH      C 7468   3.119   2.525   5.375
 1866ETH      H 7469   3.083   2.316   5.328
 1867ETH      O 7470   4.448   5.789   6.475
 1867ETH      C 7471   4.470   6.027   6.499
 1867ETH      C 7472   4.388   5.912   6.443
 1867ETH      H 7473   4.474   6.020   6.611
 1868ETH      O 7474   6.106   0.501   4.258
 1868ETH      C 7475   5.925   0.357   4.321
 1868ETH      C 7476   6.059   0.417   4.360
 1868ETH      H 7477   5.849   0.437   4.306
 1869ETH      O 7478   0.789   7.642   5.654
 1869ETH      C 7479   0.704   7.604   5.875
 1869ETH      C 7480   0.710   7.556   5.731
 1869ETH      H 7481   0.806   7.605   5.919
 1870ETH      O 7482   4.377   2.426   1.982
 1870ETH      C 7483   4.316   2.419   1.750
 1870ETH      C 7484   4.282   2.376   1.892
 1870ETH      H 7485   4.315   2.530   1.742
 1871ETH      O 7486   4.899   5.904   5.209
 1871ETH      C 7487   5.069   6.066   5.154
 1871ETH      C 7488   4.978   6.008   5.261
 1871ETH      H 7489   5.138   5.987   5.117
 1872ETH      O 7490   6.612   3.448   2.862
 1872ETH      C 7491   6.561   3.453   2.628
 1872ETH      C 7492   6.610   3.370   2.746
 1872ETH      H 7493   6.457   3.488   2.647
 1873ETH      O 7494   6.698   5.936   5.375
 1873ETH      C 7495   6.674   5.768   5.206
 1873ETH      C 7496   6.661   5.915   5.242
 1873ETH      H 7497   6.780   5.735   5.217
 1874ETH      O 7498   6.926   7.963   6.096
 1874ETH      C 7499   7.045   7.754   6.102
 1874ETH      C 7500   6.942   7.844   6.169
 1874ETH      H 7501   7.010   7.727   6.000
 1875ETH      O 7502   3.828   0.194   3.311
 1875ETH      C 7503   3.778   0.126   3.536
 1875ETH      C 7504   3.853   0.223   3.446
 1875ETH      H 7505   3.668   0.136   3.519
 1876ETH      O 7506   1.642   1.473   1.043
 1876ETH      C 7507   1.455   1.599   0.961
 1876ETH      C 7508   1.598   1.554   0.937
 1876ETH      H 7509   1.387   1.511   0.966
 1877ETH      O 7510   5.313   6.828   2.356
 1877ETH      C 7511   5.472   6.978   2.455
 1877ETH      C 7512   5.366   6.872   2.478
 1877ETH      H 7513   5.557   6.935   2.395
 1878ETH      O 7514   0.850   4.359  -0.105
 1878ETH      C 7515   0.955   4.343   0.110
 1878ETH      C 7516   0.974   4.352  -0.041
 1878ETH      H 7517   0.903   4.434   0.147
 1879ETH      O 7518   7.365   4.864   1.430
 1879ETH      C 7519   7.382   4.923   1.197
 1879ETH      C 7520   7.431   4.949   1.339
 1879ETH      H 7521   7.405   4.818   1.168
 1880ETH      O 7522   4.051   7.111   4.534
 1880ETH      C 7523   4.214   7.055   4.700
 1880ETH      C 7524   4.148   7.017   4.569
 1880ETH      H 7525   4.265   7.154   4.690
 1881ETH      O 7526   3.794   6.427   4.188
 1881ETH      C 7527   3.863   6.286   4.006
 1881ETH      C 7528   3.756   6.379   4.062
 1881ETH      H 7529   3.959   6.341   3.994
 1882ETH      O 7530   5.585   3.981   0.300
 1882ETH      C 7531   5.626   4.013   0.534
 1882ETH      C 7532   5.679   3.961   0.402
 1882ETH      H 7533   5.606   4.122   0.528
 1883ETH      O 7534   2.103   7.097   5.951
 1883ETH      C 7535   1.873   7.134   6.011
 1883ETH      C 7536   2.019   7.156   6.047
 1883ETH      H 7537   1.851   7.181   5.912
 1884ETH      O 7538  -0.061   7.649   0.947
 1884ETH      C 7539   0.157   7.740   0.907
 1884ETH      C 7540   0.074   7.634   0.978
 1884ETH      H 7541   0.147   7.728   0.797
 1885ETH      O 7542   7.087   2.095   5.757
 1885ETH      C 7543   7.012   2.096   5.528
 1885ETH      C 7544   7.088   2.169   5.638
 1885ETH      H 7545   7.061   1.999   5.507
 1886ETH      O 7546   3.260   2.190   3.722
 1886ETH      C 7547   3.205   2.132   3.496
 1886ETH      C 7548   3.197   2.094   3.643
 1886ETH      H 7549   3.153   2.229   3.479
 1887ETH      O 7550   0.449   6.078   4.379
 1887ETH      C 7551   0.537   6.283   4.290
 1887ETH      C 7552   0.561   6.162   4.379
 1887ETH      H 7553   0.518   6.251   4.185
 1888ETH      O 7554   3.230   1.272   2.672
 1888ETH      C 7555   3.223   1.399   2.469
 1888ETH      C 7556   3.226   1.402   2.621
 1888ETH      H 7557   3.315   1.350   2.430
 1889ETH      O 7558   5.348   4.294   0.221
 1889ETH      C 7559   5.396   4.397   0.433
 1889ETH      C 7560   5.322   4.287   0.358
 1889ETH      H 7561   5.506   4.385   0.419
 1890ETH      O 7562   6.100   4.430   4.861
 1890ETH      C 7563   6.112   4.555   5.066
 1890ETH      C 7564   6.188   4.477   4.959
 1890ETH      H 7565   6.062   4.643   5.021
 1891ETH      O 7566   6.639   5.290   4.999
 1891ETH      C 7567   6.654   5.235   4.766
 1891ETH      C 7568   6.706   5.209   4.906
 1891ETH      H 7569   6.545   5.211   4.760
 1892ETH      O 7570   0.668   3.019   7.121
 1892ETH      C 7571   0.750   2.813   7.213
 1892ETH      C 7572   0.758   2.914   7.100
 1892ETH      H 7573   0.776   2.862   7.310
 1893ETH      O 7574   6.745   7.500   4.638
 1893ETH      C 7575   6.716   7.706   4.758
 1893ETH      C 7576   6.779   7.635   4.639
 1893ETH      H 7577   6.605   7.699   4.751
 1894ETH      O 7578   3.201   1.798   5.973
 1894ETH      C 7579   3.289   1.614   6.101
 1894ETH      C 7580   3.182   1.662   6.004
 1894ETH      H 7581   3.390   1.624   6.055
 1895ETH      O 7582   0.636   1.970   0.931
 1895ETH      C 7583   0.873   2.000   0.952
 1895ETH      C 7584   0.735   2.043   0.999
 1895ETH      H 7585   0.890   1.892   0.975
 1896ETH      O 7586   3.228   0.912   6.194
 1896ETH      C 7587   3.428   0.781   6.201
 1896ETH      C 7588   3.365   0.914   6.165
 1896ETH      H 7589   3.418   0.762   6.310
 1897ETH      O 7590   7.577   3.411   6.745
 1897ETH      C 7591   7.693   3.564   6.602
 1897ETH      C 7592   7.621   3.430   6.614
 1897ETH      H 7593   7.624   3.647   6.627
 1898ETH      O 7594   6.552   2.187   0.461
 1898ETH      C 7595   6.393   2.007   0.470
 1898ETH      C 7596   6.438   2.134   0.399
 1898ETH      H 7597   6.473   1.930   0.465
 1899ETH      O 7598   7.554   2.423   5.018
 1899ETH      C 7599   7.345   2.344   4.929
 1899ETH      C 7600   7.487   2.390   4.899
 1899ETH      H 7601   7.348   2.252   4.993
 1900ETH      O 7602   5.192   2.141   0.136
 1900ETH      C 7603   5.272   2.279   0.316
 1900ETH      C 7604   5.269   2.254   0.166
 1900ETH      H 7605   5.169   2.298   0.353
 1901ETH      O 7606   2.988   1.036   1.400
 1901ETH      C 7607   3.015   0.844   1.258
 1901ETH      C 7608   3.073   0.976   1.306
 1901ETH      H 7609   3.004   0.773   1.344
 1902ETH      O 7610   6.947   3.173   2.200
 1902ETH      C 7611   7.049   3.227   1.990
 1902ETH      C 7612   6.955   3.134   2.066
 1902ETH      H 7613   7.010   3.331   1.992
 1903ETH      O 7614   0.226   7.456   3.278
 1903ETH      C 7615   0.456   7.483   3.214
 1903ETH      C 7616   0.339   7.387   3.232
 1903ETH      H 7617   0.431   7.561   3.139
 1904ETH      O 7618   2.081   6.486   5.159
 1904ETH      C 7619   2.252   6.429   5.001
 1904ETH      C 7620   2.118   6.497   5.024
 1904ETH      H 7621   2.331   6.480   5.061
 1905ETH      O 7622   3.000   4.960   3.735
 1905ETH      C 7623   3.135   4.765   3.695
 1905ETH      C 7624   3.000   4.833   3.675
 1905ETH      H 7625   3.215   4.825   3.647
 1906ETH      O 7626   4.611   6.232   1.136
 1906ETH      C 7627   4.706   6.034   1.039
 1906ETH      C 7628   4.629   6.095   1.155
 1906ETH      H 7629   4.650   6.048   0.944
 1907ETH      O 7630   3.387   7.593   4.807
 1907ETH      C 7631   3.311   7.659   5.026
 1907ETH      C 7632   3.428   7.614   4.940
 1907ETH      H 7633   3.270   7.755   4.987
 1908ETH      O 7634   0.961   4.738   0.056
 1908ETH      C 7635   1.068   4.600   0.221
 1908ETH      C 7636   1.073   4.657   0.080
 1908ETH      H 7637   1.071   4.683   0.295
 1909ETH      O 7638   6.567   7.027   4.080
 1909ETH      C 7639   6.483   6.997   4.303
 1909ETH      C 7640   6.452   7.035   4.159
 1909ETH      H 7641   6.520   6.892   4.308
 1910ETH      O 7642   6.630   5.464   5.057
 1910ETH      C 7643   6.731   5.621   4.907
 1910ETH      C 7644   6.662   5.599   5.040
 1910ETH      H 7645   6.826   5.563   4.903
 1911ETH      O 7646   0.146   3.351   0.556
 1911ETH      C 7647   0.069   3.369   0.782
 1911ETH      C 7648   0.178   3.404   0.682
 1911ETH      H 7649  -0.028   3.414   0.750
 1912ETH      O 7650   3.076   4.668   5.745
 1912ETH      C 7651   3.065   4.660   5.506
 1912ETH      C 7652   3.098   4.586   5.634
 1912ETH      H 7653   2.958   4.689   5.505
 1913ETH      O 7654   3.656   5.308   1.780
 1913ETH      C 7655   3.610   5.482   1.939
 1913ETH      C 7656   3.642   5.447   1.794
 1913ETH      H 7657   3.514   5.435   1.969
 1914ETH      O 7658   4.148   4.274   3.107
 1914ETH      C 7659   4.081   4.228   2.881
 1914ETH      C 7660   4.067   4.191   3.028
 1914ETH      H 7661   4.048   4.334   2.865
 1915ETH      O 7662   4.995   5.408   6.864
 1915ETH      C 7663   4.911   5.609   6.965
 1915ETH      C 7664   4.964   5.543   6.839
 1915ETH      H 7665   4.818   5.559   6.999
 1916ETH      O 7666   7.621   2.529   0.109
 1916ETH      C 7667   7.769   2.429   0.269
 1916ETH      C 7668   7.726   2.437   0.124
 1916ETH      H 7669   7.806   2.528   0.304
 1917ETH      O 7670   3.475   3.934   5.339
 1917ETH      C 7671   3.537   3.783   5.515
 1917ETH      C 7672   3.577   3.850   5.385
 1917ETH      H 7673   3.519   3.861   5.594
 1918ETH      O 7674   7.577   0.774   2.461
 1918ETH      C 7675   7.719   0.936   2.567
 1918ETH      C 7676   7.607   0.835   2.584
 1918ETH      H 7677   7.812   0.885   2.532
 1919ETH      O 7678   2.930   3.514   3.335
 1919ETH      C 7679   2.815   3.685   3.212
 1919ETH      C 7680   2.945   3.640   3.277
 1919ETH      H 7681   2.786   3.614   3.131
 1920ETH      O 7682   4.227   0.233   7.436
 1920ETH      C 7683   4.207   0.095   7.631
 1920ETH      C 7684   4.185   0.108   7.481
 1920ETH      H 7685   4.315   0.105   7.655
 1921ETH      O 7686   2.342   4.697   7.090
 1921ETH      C 7687   2.218   4.811   6.920
 1921ETH      C 7688   2.213   4.732   7.050
 1921ETH      H 7689   2.275   4.905   6.935
 1922ETH      O 7690   2.978   7.687   5.600
 1922ETH      C 7691   3.102   7.874   5.515
 1922ETH      C 7692   3.106   7.731   5.565
 1922ETH      H 7693   3.039   7.880   5.423
 1923ETH      O 7694   6.248   6.221   1.706
 1923ETH      C 7695   6.230   6.204   1.467
 1923ETH      C 7696   6.187   6.278   1.593
 1923ETH      H 7697   6.340   6.212   1.454
 1924ETH      O 7698   7.513   7.370   5.702
 1924ETH      C 7699   7.649   7.567   5.730
 1924ETH      C 7700   7.519   7.508   5.677
 1924ETH      H 7701   7.655   7.552   5.840
 1925ETH      O 7702   3.377   1.137   6.933
 1925ETH      C 7703   3.496   1.313   7.044
 1925ETH      C 7704   3.366   1.268   6.981
 1925ETH      H 7705   3.521   1.248   7.131
 1926ETH      O 7706   3.801   6.993   1.198
 1926ETH      C 7707   3.899   6.963   1.415
 1926ETH      C 7708   3.915   7.020   1.275
 1926ETH      H 7709   3.812   7.011   1.466
 1927ETH      O 7710   3.117   3.945   3.783
 1927ETH      C 7711   3.216   3.727   3.782
 1927ETH      C 7712   3.237   3.876   3.767
 1927ETH      H 7713   3.177   3.704   3.884
 1928ETH      O 7714   3.586   1.055   4.645
 1928ETH      C 7715   3.408   0.964   4.777
 1928ETH      C 7716   3.512   1.073   4.763
 1928ETH      H 7717   3.337   0.967   4.692
 1929ETH      O 7718   6.203   0.223   1.910
 1929ETH      C 7719   6.119   0.046   2.048
 1929ETH      C 7720   6.209   0.085   1.932
 1929ETH      H 7721   6.153   0.096   2.141
 1930ETH      O 7722   2.914   1.563   4.895
 1930ETH      C 7723   2.692   1.652   4.915
 1930ETH      C 7724   2.784   1.532   4.937
 1930ETH      H 7725   2.728   1.738   4.976
 1931ETH      O 7726   0.494   7.513   1.903
 1931ETH      C 7727   0.345   7.471   2.086
 1931ETH      C 7728   0.377   7.557   1.965
 1931ETH      H 7729   0.329   7.365   2.056
 1932ETH      O 7730   6.507   1.702   5.720
 1932ETH      C 7731   6.605   1.808   5.911
 1932ETH      C 7732   6.628   1.746   5.775
 1932ETH      H 7733   6.538   1.897   5.902
 1933ETH      O 7734   3.657   1.688   6.157
 1933ETH      C 7735   3.769   1.682   5.945
 1933ETH      C 7736   3.768   1.635   6.090
 1933ETH      H 7737   3.678   1.647   5.893
 1934ETH      O 7738   1.504   2.036   0.438
 1934ETH      C 7739   1.391   2.232   0.357
 1934ETH      C 7740   1.450   2.096   0.323
 1934ETH      H 7741   1.309   2.221   0.431
 1935ETH      O 7742   2.790   2.649   6.734
 1935ETH      C 7743   2.593   2.603   6.605
 1935ETH      C 7744   2.657   2.688   6.714
 1935ETH      H 7745   2.647   2.617   6.509
 1936ETH      O 7746   2.879   4.872   7.616
 1936ETH      C 7747   2.963   4.850   7.392
 1936ETH      C 7748   2.906   4.780   7.514
 1936ETH      H 7749   2.889   4.923   7.352
 1937ETH      O 7750   0.727   1.993   2.039
 1937ETH      C 7751   0.693   1.778   1.936
 1937ETH      C 7752   0.790   1.871   2.008
 1937ETH      H 7753   0.606   1.755   2.003
 1938ETH      O 7754   2.980   5.066   4.882
 1938ETH      C 7755   2.968   5.155   5.105
 1938ETH      C 7756   3.055   5.092   4.997
 1938ETH      H 7757   2.927   5.253   5.068
 1939ETH      O 7758   3.789   1.324   2.720
 1939ETH      C 7759   3.899   1.330   2.507
 1939ETH      C 7760   3.911   1.349   2.657
 1939ETH      H 7761   3.869   1.225   2.484
 1940ETH      O 7762   4.513   3.634   2.367
 1940ETH      C 7763   4.497   3.517   2.576
 1940ETH      C 7764   4.535   3.511   2.429
 1940ETH      H 7765   4.559   3.593   2.629
 1941ETH      O 7766   5.590   7.856   2.671
 1941ETH      C 7767   5.426   7.748   2.809
 1941ETH      C 7768   5.542   7.846   2.802
 1941ETH      H 7769   5.342   7.784   2.745
 1942ETH      O 7770   3.620   7.266   7.102
 1942ETH      C 7771   3.573   7.284   6.868
 1942ETH      C 7772   3.535   7.221   7.001
 1942ETH      H 7773   3.563   7.395   6.874
 1943ETH      O 7774   7.234   5.872   4.491
 1943ETH      C 7775   7.425   5.785   4.607
 1943ETH      C 7776   7.373   5.858   4.484
 1943ETH      H 7777   7.402   5.843   4.699
 1944ETH      O 7778   3.020   3.484   2.338
 1944ETH      C 7779   3.038   3.299   2.186
 1944ETH      C 7780   3.028   3.344   2.331
 1944ETH      H 7781   2.947   3.330   2.130
 1945ETH      O 7782   1.893   3.297   3.539
 1945ETH      C 7783   1.996   3.414   3.356
 1945ETH      C 7784   2.008   3.368   3.501
 1945ETH      H 7785   1.987   3.326   3.289
 1946ETH      O 7786   3.319   4.407   4.624
 1946ETH      C 7787   3.417   4.511   4.817
 1946ETH      C 7788   3.299   4.435   4.759
 1946ETH      H 7789   3.510   4.449   4.808
 1947ETH      O 7790   7.494   4.803   2.502
 1947ETH      C 7791   7.312   4.731   2.363
 1947ETH      C 7792   7.445   4.805   2.371
 1947ETH      H 7793   7.326   4.624   2.392
 1948ETH      O 7794   3.399   7.764   0.962
 1948ETH      C 7795   3.306   7.654   0.770
 1948ETH      C 7796   3.298   7.677   0.921
 1948ETH      H 7797   3.291   7.750   0.716
 1949ETH      O 7798   3.947   5.498   4.345
 1949ETH      C 7799   3.976   5.265   4.293
 1949ETH      C 7800   4.043   5.400   4.315
 1949ETH      H 7801   3.923   5.233   4.385
 1950ETH      O 7802   5.831   6.136   2.231
 1950ETH      C 7803   5.864   6.370   2.189
 1950ETH      C 7804   5.881   6.255   2.287
 1950ETH      H 7805   5.922   6.349   2.096
 1951ETH      O 7806   1.208   4.542   1.267
 1951ETH      C 7807   1.187   4.715   1.102
 1951ETH      C 7808   1.276   4.648   1.206
 1951ETH      H 7809   1.159   4.642   1.023
 1952ETH      O 7810   5.309   1.841   3.629
 1952ETH      C 7811   5.250   1.614   3.684
 1952ETH      C 7812   5.353   1.708   3.623
 1952ETH      H 7813   5.234   1.640   3.791
 1953ETH      O 7814   3.928   3.150   6.963
 1953ETH      C 7815   3.870   3.089   7.188
 1953ETH      C 7816   3.822   3.142   7.054
 1953ETH      H 7817   3.912   2.986   7.175
 1954ETH      O 7818   5.612   4.336   1.706
 1954ETH      C 7819   5.625   4.470   1.507
 1954ETH      C 7820   5.536   4.410   1.615
 1954ETH      H 7821   5.699   4.540   1.553
 1955ETH      O 7822   7.330   2.758   1.120
 1955ETH      C 7823   7.184   2.612   0.997
 1955ETH      C 7824   7.201   2.703   1.118
 1955ETH      H 7825   7.197   2.670   0.903
 1956ETH      O 7826   7.387   4.825   7.331
 1956ETH      C 7827   7.410   4.900   7.104
 1956ETH      C 7828   7.407   4.938   7.251
 1956ETH      H 7829   7.495   4.830   7.085
 1957ETH      O 7830   2.254   1.014   6.643
 1957ETH      C 7831   2.242   0.849   6.817
 1957ETH      C 7832   2.327   0.953   6.746
 1957ETH      H 7833   2.153   0.897   6.863
 1958ETH      O 7834   4.076   4.697   3.091
 1958ETH      C 7835   4.083   4.846   2.904
 1958ETH      C 7836   3.998   4.783   3.013
 1958ETH      H 7837   4.166   4.906   2.949
 1959ETH      O 7838   0.109   5.009   1.598
 1959ETH      C 7839   0.119   5.198   1.450
 1959ETH      C 7840   0.167   5.057   1.480
 1959ETH      H 7841   0.008   5.198   1.436
 1960ETH      O 7842   5.475   6.829   7.364
 1960ETH      C 7843   5.447   6.878   7.597
 1960ETH      C 7844   5.464   6.933   7.457
 1960ETH      H 7845   5.354   6.818   7.604
 1961ETH      O 7846   3.379   7.514   5.562
 1961ETH      C 7847   3.318   7.426   5.777
 1961ETH      C 7848   3.417   7.423   5.661
 1961ETH      H 7849   3.317   7.528   5.823
 1962ETH      O 7850   7.411   5.147   2.174
 1962ETH      C 7851   7.427   5.345   2.040
 1962ETH      C 7852   7.487   5.263   2.153
 1962ETH      H 7853   7.428   5.286   1.945
 1963ETH      O 7854   1.473   1.916   4.976
 1963ETH      C 7855   1.301   1.772   4.891
 1963ETH      C 7856   1.348   1.861   5.005
 1963ETH      H 7857   1.291   1.832   4.798
 1964ETH      O 7858   1.751   3.409   4.853
 1964ETH      C 7859   1.863   3.286   5.026
 1964ETH      C 7860   1.804   3.284   4.886
 1964ETH      H 7861   1.946   3.360   5.031
 1965ETH      O 7862   3.452   7.610   6.466
 1965ETH      C 7863   3.269   7.756   6.414
 1965ETH      C 7864   3.419   7.734   6.408
 1965ETH      H 7865   3.216   7.677   6.356
 1966ETH      O 7866   3.670   5.319   7.724
 1966ETH      C 7867   3.581   5.288   7.945
 1966ETH      C 7868   3.670   5.233   7.835
 1966ETH      H 7869   3.619   5.387   7.979
 1967ETH      O 7870   0.878   6.463   6.963
 1967ETH      C 7871   0.920   6.634   6.800
 1967ETH      C 7872   0.979   6.541   6.905
 1967ETH      H 7873   0.873   6.575   6.718
 1968ETH      O 7874   3.844   6.712   5.660
 1968ETH      C 7875   3.854   6.490   5.751
 1968ETH      C 7876   3.801   6.632   5.766
 1968ETH      H 7877   3.816   6.445   5.656
 1969ETH      O 7878   4.772   7.271   4.771
 1969ETH      C 7879   4.888   7.226   4.566
 1969ETH      C 7880   4.899   7.263   4.713
 1969ETH      H 7881   4.840   7.126   4.555
 1970ETH      O 7882   0.186   5.762   7.211
 1970ETH      C 7883   0.115   5.937   7.063
 1970ETH      C 7884   0.222   5.835   7.097
 1970ETH      H 7885   0.019   5.886   7.041
 1971ETH      O 7886   6.950   5.602   6.167
 1971ETH      C 7887   7.120   5.769   6.198
 1971ETH      C 7888   7.057   5.667   6.104
 1971ETH      H 7889   7.046   5.847   6.225
 1972ETH      O 7890   4.644   6.187   3.160
 1972ETH      C 7891   4.560   6.292   2.961
 1972ETH      C 7892   4.531   6.247   3.103
 1972ETH      H 7893   4.642   6.368   2.961
 1973ETH      O 7894   3.733   2.239   6.968
 1973ETH      C 7895   3.759   2.341   7.184
 1973ETH      C 7896   3.690   2.345   7.049
 1973ETH      H 7897   3.734   2.246   7.237
 1974ETH      O 7898   2.810   6.016   6.238
 1974ETH      C 7899   2.640   6.142   6.352
 1974ETH      C 7900   2.680   6.068   6.225
 1974ETH      H 7901   2.640   6.072   6.439
 1975ETH      O 7902   3.385   1.143   7.570
 1975ETH      C 7903   3.325   1.145   7.338
 1975ETH      C 7904   3.290   1.097   7.478
 1975ETH      H 7905   3.324   1.256   7.334
 1976ETH      O 7906   2.053   1.038   7.391
 1976ETH      C 7907   2.029   1.034   7.630
 1976ETH      C 7908   1.989   0.972   7.497
 1976ETH      H 7909   2.139   1.023   7.645
 1977ETH      O 7910   6.166   0.793   5.835
 1977ETH      C 7911   6.058   0.819   5.622
 1977ETH      C 7912   6.068   0.866   5.766
 1977ETH      H 7913   6.155   0.836   5.570
 1978ETH      O 7914   7.902   2.406   3.418
 1978ETH      C 7915   7.857   2.411   3.182
 1978ETH      C 7916   7.808   2.370   3.320
 1978ETH      H 7917   7.871   2.521   3.177
 1979ETH      O 7918   7.161   5.078   5.705
 1979ETH      C 7919   6.980   4.978   5.826
 1979ETH      C 7920   7.060   4.981   5.697
 1979ETH      H 7921   7.046   4.951   5.912
 1980ETH      O 7922   2.053   2.536   7.807
 1980ETH      C 7923   2.114   2.568   7.577
 1980ETH      C 7924   2.080   2.634   7.710
 1980ETH      H 7925   2.205   2.506   7.587
 1981ETH      O 7926   7.569   3.172   1.514
 1981ETH      C 7927   7.571   3.216   1.278
 1981ETH      C 7928   7.500   3.238   1.411
 1981ETH      H 7929   7.674   3.259   1.282
 1982ETH      O 7930   5.837   7.530   7.500
 1982ETH      C 7931   5.708   7.352   7.404
 1982ETH      C 7932   5.728   7.445   7.523
 1982ETH      H 7933   5.686   7.412   7.312
 1983ETH      O 7934   3.803   4.530   3.976
 1983ETH      C 7935   3.845   4.526   3.739
 1983ETH      C 7936   3.758   4.578   3.852
 1983ETH      H 7937   3.950   4.562   3.753
 1984ETH      O 7938  -0.109   1.148   6.342
 1984ETH      C 7939   0.108   1.174   6.244
 1984ETH      C 7940   0.012   1.082   6.318
 1984ETH      H 7941   0.065   1.202   6.145
 1985ETH      O 7942   5.084   6.944   5.395
 1985ETH      C 7943   5.049   6.956   5.158
 1985ETH      C 7944   5.142   6.914   5.271
 1985ETH      H 7945   4.953   6.900   5.165
 1986ETH      O 7946   2.351   1.451   4.014
 1986ETH      C 7947   2.188   1.277   4.041
 1986ETH      C 7948   2.298   1.359   4.105
 1986ETH      H 7949   2.105   1.344   4.009
 1987ETH      O 7950   2.301   7.961   7.408
 1987ETH      C 7951   2.365   7.735   7.364
 1987ETH      C 7952   2.389   7.882   7.335
 1987ETH      H 7953   2.383   7.714   7.472
 1988ETH      O 7954   4.588   4.358   4.331
 1988ETH      C 7955   4.490   4.239   4.147
 1988ETH      C 7956   4.548   4.231   4.287
 1988ETH      H 7957   4.400   4.305   4.147
 1989ETH      O 7958   7.127   7.648   1.734
 1989ETH      C 7959   7.004   7.834   1.822
 1989ETH      C 7960   7.105   7.785   1.719
 1989ETH      H 7961   6.906   7.782   1.806
 1990ETH      O 7962   5.006   7.259   2.246
 1990ETH      C 7963   5.022   7.251   2.485
 1990ETH      C 7964   5.051   7.182   2.354
 1990ETH      H 7965   5.075   7.349   2.489
 1991ETH      O 7966   2.144   4.509   2.443
 1991ETH      C 7967   2.048   4.568   2.231
 1991ETH      C 7968   2.023   4.529   2.376
 1991ETH      H 7969   2.105   4.664   2.227
 1992ETH      O 7970   0.382   2.257   2.500
 1992ETH      C 7971   0.355   2.342   2.723
 1992ETH      C 7972   0.409   2.367   2.583
 1992ETH      H 7973   0.244   2.329   2.719
 1993ETH      O 7974   6.267   6.368   4.180
 1993ETH      C 7975   6.198   6.327   4.406
 1993ETH      C 7976   6.294   6.292   4.294
 1993ETH      H 7977   6.209   6.434   4.433
 1994ETH      O 7978   5.317   0.366   0.213
 1994ETH      C 7979   5.440   0.223   0.064
 1994ETH      C 7980   5.314   0.242   0.147
 1994ETH      H 7981   5.447   0.302  -0.014
 1995ETH      O 7982   6.332   5.647   2.462
 1995ETH      C 7983   6.494   5.788   2.354
 1995ETH      C 7984   6.351   5.773   2.403
 1995ETH      H 7985   6.565   5.780   2.440
 1996ETH      O 7986   2.706   5.526   3.272
 1996ETH      C 7987   2.771   5.467   3.496
 1996ETH      C 7988   2.740   5.418   3.355
 1996ETH      H 7989   2.858   5.537   3.493
 1997ETH      O 7990   6.926   1.714   5.264
 1997ETH      C 7991   6.999   1.736   5.492
 1997ETH      C 7992   7.039   1.725   5.345
 1997ETH      H 7993   6.937   1.828   5.507
 1998ETH      O 7994   0.032   0.604   0.837
 1998ETH      C 7995   0.141   0.493   0.654
 1998ETH      C 7996   0.155   0.588   0.772
 1998ETH      H 7997   0.108   0.393   0.689
 1999ETH      O 7998   3.138   3.958   5.264
 1999ETH      C 7999   2.935   4.084   5.244
 1999ETH      C 8000   3.009   3.956   5.209
 1999ETH      H 8001   2.924   4.093   5.354
 2000ETH      O 8002   0.507   4.191   4.080
 2000ETH      C 8003   0.516   4.170   4.319
 2000ETH      C 8004   0.486   4.102   4.186
 2000ETH      H 8005   0.623   4.202   4.322
 2001ETH      O 8006   4.575   2.930   3.963
 2001ETH      C 8007   4.595   2.876   4.196
 2001ETH      C 8008   4.555   2.979   4.093
 2001ETH      H 8009   4.533   2.784   4.184
 2002ETH      O 8010   2.285   4.041   4.608
 2002ETH      C 8011   2.286   4.011   4.846
 2002ETH      C 8012   2.312   4.105   4.730
 2002ETH      H 8013   2.179   3.980   4.847
 2003ETH      O 8014   6.280   5.058   1.101
 2003ETH      C 8015   6.134   5.071   1.291
 2003ETH      C 8016   6.277   5.078   1.239
 2003ETH      H 8017   6.072   5.151   1.244
 2004ETH      O 8018   5.319   1.199   6.652
 2004ETH      C 8019   5.260   1.271   6.430
 2004ETH      C 8020   5.322   1.162   6.516
 2004ETH      H 8021   5.153   1.286   6.459
 2005ETH      O 8022   2.622   7.100   7.853
 2005ETH      C 8023   2.515   6.887   7.830
 2005ETH      C 8024   2.646   6.963   7.841
 2005ETH      H 8025   2.454   6.902   7.923
 2006ETH      O 8026   6.843   4.900   3.438
 2006ETH      C 8027   7.031   4.903   3.290
 2006ETH      C 8028   6.981   4.880   3.432
 2006ETH      H 8029   6.983   4.830   3.221
 2007ETH      O 8030   2.217   7.150   0.808
 2007ETH      C 8031   2.305   7.086   1.022
 2007ETH      C 8032   2.210   7.052   0.908
 2007ETH      H 8033   2.410   7.089   0.984
 2008ETH      O 8034   6.150   5.195   3.920
 2008ETH      C 8035   6.087   5.293   3.710
 2008ETH      C 8036   6.182   5.296   3.829
 2008ETH      H 8037   6.097   5.195   3.657
 2009ETH      O 8038   2.866   0.712   7.271
 2009ETH      C 8039   2.978   0.798   7.466
 2009ETH      C 8040   2.981   0.781   7.315
 2009ETH      H 8041   2.890   0.858   7.496
 2010ETH      O 8042   7.027   4.233   5.837
 2010ETH      C 8043   7.208   4.334   5.958
 2010ETH      C 8044   7.064   4.285   5.962
 2010ETH      H 8045   7.276   4.248   5.936
 2011ETH      O 8046   0.713   4.608   3.989
 2011ETH      C 8047   0.808   4.827   3.966
 2011ETH      C 8048   0.689   4.736   3.938
 2011ETH      H 8049   0.823   4.837   4.076
 2012ETH      O 8050   0.940   2.412   6.650
 2012ETH      C 8051   0.889   2.189   6.575
 2012ETH      C 8052   0.948   2.276   6.685
 2012ETH      H 8053   0.781   2.214   6.561
 2013ETH      O 8054   1.903   7.538   5.082
 2013ETH      C 8055   2.110   7.657   5.055
 2013ETH      C 8056   2.019   7.579   5.149
 2013ETH      H 8057   2.141   7.593   4.970
 2014ETH      O 8058   3.522   1.161   6.151
 2014ETH      C 8059   3.520   1.301   5.955
 2014ETH      C 8060   3.489   1.165   6.014
 2014ETH      H 8061   3.460   1.380   6.006
 2015ETH      O 8062   4.902   7.627   0.828
 2015ETH      C 8063   4.870   7.411   0.728
 2015ETH      C 8064   4.929   7.551   0.714
 2015ETH      H 8065   4.917   7.359   0.815
 2016ETH      O 8066   6.389   2.156   5.341
 2016ETH      C 8067   6.402   2.385   5.411
 2016ETH      C 8068   6.472   2.269   5.343
 2016ETH      H 8069   6.309   2.412   5.356
 2017ETH      O 8070   0.428   0.266   5.626
 2017ETH      C 8071   0.418   0.192   5.398
 2017ETH      C 8072   0.401   0.155   5.545
 2017ETH      H 8073   0.346   0.272   5.371
 2018ETH      O 8074   4.028   0.486   2.105
 2018ETH      C 8075   3.933   0.268   2.133
 2018ETH      C 8076   4.060   0.351   2.118
 2018ETH      H 8077   3.878   0.298   2.225
 2019ETH      O 8078   1.879   7.643   5.624
 2019ETH      C 8079   1.837   7.622   5.860
 2019ETH      C 8080   1.778   7.647   5.722
 2019ETH      H 8081   1.883   7.521   5.864
 2020ETH      O 8082   5.010   2.644   6.540
 2020ETH      C 8083   4.957   2.814   6.702
 2020ETH      C 8084   4.940   2.669   6.659
 2020ETH      H 8085   5.064   2.836   6.721
 2021ETH      O 8086   5.373   3.611   5.755
 2021ETH      C 8087   5.339   3.569   5.521
 2021ETH      C 8088   5.357   3.509   5.659
 2021ETH      H 8089   5.247   3.632   5.518
 2022ETH      O 8090   4.042   3.349   2.796
 2022ETH      C 8091   4.073   3.281   3.024
 2022ETH      C 8092   3.984   3.277   2.901
 2022ETH      H 8093   4.172   3.234   3.001
 2023ETH      O 8094   3.987   5.839   0.559
 2023ETH      C 8095   4.019   5.994   0.740
 2023ETH      C 8096   4.050   5.959   0.595
 2023ETH      H 8097   3.909   6.008   0.753
 2024ETH      O 8098   6.733   2.226   7.388
 2024ETH      C 8099   6.533   2.115   7.461
 2024ETH      C 8100   6.611   2.172   7.344
 2024ETH      H 8101   6.591   2.033   7.509
 2025ETH      O 8102   1.908   4.632   2.075
 2025ETH      C 8103   1.694   4.591   2.177
 2025ETH      C 8104   1.846   4.588   2.193
 2025ETH      H 8105   1.660   4.695   2.158
 2026ETH      O 8106   2.008   6.048   5.412
 2026ETH      C 8107   2.010   6.074   5.650
 2026ETH      C 8108   2.089   6.081   5.521
 2026ETH      H 8109   1.926   6.147   5.648
 2027ETH      O 8110   0.607   2.525   6.268
 2027ETH      C 8111   0.559   2.483   6.499
 2027ETH      C 8112   0.520   2.458   6.354
 2027ETH      H 8113   0.661   2.443   6.518
 2028ETH      O 8114   0.320   7.463   3.806
 2028ETH      C 8115   0.152   7.526   3.647
 2028ETH      C 8116   0.202   7.538   3.789
 2028ETH      H 8117   0.228   7.566   3.576
 2029ETH      O 8118   5.811   7.110   5.994
 2029ETH      C 8119   6.031   7.019   5.965
 2029ETH      C 8120   5.906   7.074   5.898
 2029ETH      H 8121   6.077   7.097   6.030
 2030ETH      O 8122   0.182   0.242   6.516
 2030ETH      C 8123   0.199   0.335   6.296
 2030ETH      C 8124   0.239   0.347   6.442
 2030ETH      H 8125   0.236   0.239   6.253
 2031ETH      O 8126   6.137   0.414   7.115
 2031ETH      C 8127   6.091   0.415   7.350
 2031ETH      C 8128   6.048   0.461   7.212
 2031ETH      H 8129   6.090   0.304   7.356
 2032ETH      O 8130   6.031   3.233   0.751
 2032ETH      C 8131   6.006   3.121   0.540
 2032ETH      C 8132   5.988   3.114   0.690
 2032ETH      H 8133   5.945   3.204   0.497
 2033ETH      O 8134   2.402   4.836   7.276
 2033ETH      C 8135   2.199   4.902   7.166
 2033ETH      C 8136   2.274   4.791   7.239
 2033ETH      H 8137   2.186   4.989   7.234
 2034ETH      O 8138   1.591   6.280   7.309
 2034ETH      C 8139   1.742   6.107   7.378
 2034ETH      C 8140   1.644   6.214   7.421
 2034ETH      H 8141   1.691   6.030   7.316
 2035ETH      O 8142   7.445   5.819   1.836
 2035ETH      C 8143   7.394   5.686   2.029
 2035ETH      C 8144   7.432   5.823   1.975
 2035ETH      H 8145   7.295   5.655   1.986
 2036ETH      O 8146   3.318   3.995   1.274
 2036ETH      C 8147   3.217   4.006   1.057
 2036ETH      C 8148   3.197   4.013   1.207
 2036ETH      H 8149   3.286   4.087   1.024
 2037ETH      O 8150   3.906   7.526   7.796
 2037ETH      C 8151   3.770   7.684   7.676
 2037ETH      C 8152   3.801   7.618   7.810
 2037ETH      H 8153   3.859   7.740   7.639
 2038ETH      O 8154   2.506   3.540   1.568
 2038ETH      C 8155   2.368   3.616   1.749
 2038ETH      C 8156   2.424   3.497   1.673
 2038ETH      H 8157   2.451   3.675   1.794
 2039ETH      O 8158   2.799   0.944   1.664
 2039ETH      C 8159   2.843   0.911   1.898
 2039ETH      C 8160   2.845   0.851   1.758
 2039ETH      H 8161   2.911   0.999   1.902
 2040ETH      O 8162   5.269   4.693   7.303
 2040ETH      C 8163   5.409   4.826   7.446
 2040ETH      C 8164   5.331   4.696   7.429
 2040ETH      H 8165   5.488   4.833   7.368
 2041ETH      O 8166   0.201   1.606   7.247
 2041ETH      C 8167   0.224   1.573   7.484
 2041ETH      C 8168   0.201   1.509   7.348
 2041ETH      H 8169   0.323   1.624   7.486
 2042ETH      O 8170   1.504   3.073   4.524
 2042ETH      C 8171   1.694   3.043   4.668
 2042ETH      C 8172   1.626   3.004   4.538
 2042ETH      H 8173   1.717   3.152   4.668
 2043ETH      O 8174   2.702   0.372   5.389
 2043ETH      C 8175   2.649   0.359   5.155
 2043ETH      C 8176   2.756   0.383   5.260
 2043ETH      H 8177   2.608   0.256   5.165
 2044ETH      O 8178   7.317   2.861   5.293
 2044ETH      C 8179   7.396   2.796   5.076
 2044ETH      C 8180   7.312   2.759   5.197
 2044ETH      H 8181   7.356   2.889   5.029
 2045ETH      O 8182   6.516   5.417   6.433
 2045ETH      C 8183   6.372   5.296   6.285
 2045ETH      C 8184   6.454   5.293   6.413
 2045ETH      H 8185   6.292   5.373   6.293
 2046ETH      O 8186   2.733   3.064   3.951
 2046ETH      C 8187   2.556   2.969   4.082
 2046ETH      C 8188   2.705   2.995   4.070
 2046ETH      H 8189   2.500   3.065   4.085
 2047ETH      O 8190   1.502   6.477   2.545
 2047ETH      C 8191   1.314   6.506   2.398
 2047ETH      C 8192   1.464   6.518   2.416
 2047ETH      H 8193   1.283   6.399   2.410
 2048ETH      O 8194   7.617   6.184   6.413
 2048ETH      C 8195   7.561   6.338   6.237
 2048ETH      C 8196   7.511   6.232   6.335
 2048ETH      H 8197   7.603   6.425   6.294
 2049ETH      O 8198   2.310   1.798   1.912
 2049ETH      C 8199   2.231   1.639   1.751
 2049ETH      C 8200   2.338   1.674   1.853
 2049ETH      H 8201   2.131   1.631   1.801
 2050ETH      O 8202   0.879   5.837   2.777
 2050ETH      C 8203   0.950   5.689   2.952
 2050ETH      C 8204   0.957   5.829   2.893
 2050ETH      H 8205   0.845   5.664   2.979
 2051ETH      O 8206   5.374   3.477   7.579
 2051ETH      C 8207   5.443   3.612   7.393
 2051ETH      C 8208   5.412   3.473   7.444
 2051ETH      H 8209   5.352   3.676   7.400
 2052ETH      O 8210   7.387   3.012   6.347
 2052ETH      C 8211   7.394   2.933   6.573
 2052ETH      C 8212   7.363   2.901   6.428
 2052ETH      H 8213   7.502   2.959   6.584
 2053ETH      O 8214   2.475   2.155   7.570
 2053ETH      C 8215   2.469   2.207   7.804
 2053ETH      C 8216   2.533   2.125   7.694
 2053ETH      H 8217   2.485   2.316   7.785
 2054ETH      O 8218   5.499   1.085   1.405
 2054ETH      C 8219   5.393   0.950   1.237
 2054ETH      C 8220   5.523   0.991   1.304
 2054ETH      H 8221   5.325   0.902   1.312
 2055ETH      O 8222   3.866   4.643   4.515
 2055ETH      C 8223   4.098   4.701   4.544
 2055ETH      C 8224   3.982   4.683   4.447
 2055ETH      H 8225   4.073   4.780   4.618
 2056ETH      O 8226   1.224   3.930   3.212
 2056ETH      C 8227   1.226   3.834   2.992
 2056ETH      C 8228   1.183   3.819   3.137
 2056ETH      H 8229   1.179   3.924   2.947
 2057ETH      O 8230   0.046   5.822   2.566
 2057ETH      C 8231   0.135   6.031   2.644
 2057ETH      C 8232   0.162   5.884   2.614
 2057ETH      H 8233   0.105   6.084   2.551
 2058ETH      O 8234   6.475   2.948   3.855
 2058ETH      C 8235   6.486   3.088   3.661
 2058ETH      C 8236   6.397   3.019   3.763
 2058ETH      H 8237   6.553   3.161   3.712
 2059ETH      O 8238   4.454   7.048   6.896
 2059ETH      C 8239   4.245   7.140   6.971
 2059ETH      C 8240   4.361   7.045   7.000
 2059ETH      H 8241   4.283   7.245   6.963
 2060ETH      O 8242   3.033   1.008   3.222
 2060ETH      C 8243   3.119   1.045   3.443
 2060ETH      C 8244   3.074   0.943   3.339
 2060ETH      H 8245   3.206   1.103   3.404
 2061ETH      O 8246   6.048   3.136   2.596
 2061ETH      C 8247   6.112   3.024   2.393
 2061ETH      C 8248   6.075   3.010   2.540
 2061ETH      H 8249   6.027   3.069   2.336
 2062ETH      O 8250   5.614   1.243   6.774
 2062ETH      C 8251   5.586   1.378   6.578
 2062ETH      C 8252   5.677   1.337   6.692
 2062ETH      H 8253   5.561   1.290   6.515
 2063ETH      O 8254   7.517   3.363   4.086
 2063ETH      C 8255   7.569   3.215   4.267
 2063ETH      C 8256   7.492   3.338   4.221
 2063ETH      H 8257   7.535   3.125   4.209
 2064ETH      O 8258   0.337   5.485   7.350
 2064ETH      C 8259   0.467   5.361   7.510
 2064ETH      C 8260   0.439   5.389   7.363
 2064ETH      H 8261   0.502   5.454   7.561
 2065ETH      O 8262   4.116   6.955   7.004
 2065ETH      C 8263   3.915   6.825   6.987
 2065ETH      C 8264   3.983   6.946   7.047
 2065ETH      H 8265   3.914   6.833   6.875
 2066ETH      O 8266   7.367   2.917   0.712
 2066ETH      C 8267   7.208   3.045   0.587
 2066ETH      C 8268   7.352   3.030   0.631
 2066ETH      H 8269   7.176   2.957   0.527
 2067ETH      O 8270   5.417   0.750   2.832
 2067ETH      C 8271   5.638   0.735   2.741
 2067ETH      C 8272   5.520   0.661   2.801
 2067ETH      H 8273   5.608   0.785   2.646
 2068ETH      O 8274   1.085   6.250   2.573
 2068ETH      C 8275   1.068   6.242   2.812
 2068ETH      C 8276   1.018   6.188   2.679
 2068ETH      H 8277   1.176   6.221   2.824
 2069ETH      O 8278   5.614   6.433   1.090
 2069ETH      C 8279   5.412   6.454   1.219
 2069ETH      C 8280   5.531   6.366   1.180
 2069ETH      H 8281   5.449   6.547   1.269
 2070ETH      O 8282   4.465   0.044   2.956
 2070ETH      C 8283   4.284   0.017   2.800
 2070ETH      C 8284   4.387   0.111   2.861
 2070ETH      H 8285   4.335  -0.067   2.748
 2071ETH      O 8286   4.293   3.744   2.813
 2071ETH      C 8287   4.255   3.832   3.034
 2071ETH      C 8288   4.301   3.860   2.892
 2071ETH      H 8289   4.149   3.798   3.034
 2072ETH      O 8290   7.648   4.154   6.384
 2072ETH      C 8291   7.625   4.067   6.607
 2072ETH      C 8292   7.719   4.123   6.501
 2072ETH      H 8293   7.548   4.142   6.633
 2073ETH      O 8294   3.795   5.025   4.501
 2073ETH      C 8295   3.685   5.194   4.371
 2073ETH      C 8296   3.810   5.110   4.391
 2073ETH      H 8297   3.598   5.128   4.351
 2074ETH      O 8298   2.297   0.037   5.879
 2074ETH      C 8299   2.453   0.075   5.702
 2074ETH      C 8300   2.411  -0.015   5.817
 2074ETH      H 8301   2.372   0.080   5.625
 2075ETH      O 8302   6.558   0.586   5.958
 2075ETH      C 8303   6.660   0.479   5.770
 2075ETH      C 8304   6.532   0.530   5.833
 2075ETH      H 8305   6.731   0.564   5.754
 2076ETH      O 8306   0.161   4.414   2.655
 2076ETH      C 8307   0.051   4.467   2.861
 2076ETH      C 8308   0.142   4.516   2.749
 2076ETH      H 8309  -0.049   4.440   2.820
 2077ETH      O 8310   7.751   2.971   6.335
 2077ETH      C 8311   7.615   2.774   6.317
 2077ETH      C 8312   7.731   2.843   6.387
 2077ETH      H 8313   7.521   2.832   6.335
 2078ETH      O 8314   2.404   3.585   6.194
 2078ETH      C 8315   2.501   3.560   5.976
 2078ETH      C 8316   2.526   3.583   6.125
 2078ETH      H 8317   2.451   3.461   5.961
 2079ETH      O 8318   1.295   5.602   7.184
 2079ETH      C 8319   1.085   5.514   7.108
 2079ETH      C 8320   1.232   5.486   7.137
 2079ETH      H 8321   1.033   5.546   7.202
 2080ETH      O 8322   0.332   4.631   2.527
 2080ETH      C 8323   0.095   4.655   2.559
 2080ETH      C 8324   0.231   4.638   2.624
 2080ETH      H 8325   0.092   4.749   2.500
 2081ETH      O 8326   0.542   1.212   5.821
 2081ETH      C 8327   0.771   1.198   5.749
 2081ETH      C 8328   0.626   1.219   5.709
 2081ETH      H 8329   0.803   1.279   5.820
 2082ETH      O 8330   1.339   5.466   0.555
 2082ETH      C 8331   1.180   5.626   0.471
 2082ETH      C 8332   1.202   5.492   0.539
 2082ETH      H 8333   1.223   5.708   0.533
 2083ETH      O 8334   2.201   5.891   0.942
 2083ETH      C 8335   2.245   5.998   0.731
 2083ETH      C 8336   2.144   5.972   0.842
 2083ETH      H 8337   2.333   6.052   0.772
 2084ETH      O 8338   2.271   0.216   1.757
 2084ETH      C 8339   2.124   0.173   1.572
 2084ETH      C 8340   2.263   0.154   1.632
 2084ETH      H 8341   2.047   0.126   1.638
 2085ETH      O 8342   1.989   2.097   0.601
 2085ETH      C 8343   1.828   1.922   0.630
 2085ETH      C 8344   1.953   1.969   0.558
 2085ETH      H 8345   1.848   1.916   0.740
 2086ETH      O 8346   7.541   4.654   1.861
 2086ETH      C 8347   7.741   4.675   1.729
 2086ETH      C 8348   7.656   4.731   1.843
 2086ETH      H 8349   7.773   4.571   1.753
 2087ETH      O 8350   4.672   7.777   7.677
 2087ETH      C 8351   4.438   7.828   7.672
 2087ETH      C 8352   4.579   7.880   7.690
 2087ETH      H 8353   4.426   7.785   7.569
 2088ETH      O 8354   4.293   2.994   2.133
 2088ETH      C 8355   4.294   3.038   2.369
 2088ETH      C 8356   4.339   3.083   2.231
 2088ETH      H 8357   4.182   3.037   2.374
 2089ETH      O 8358   7.449   6.296   4.360
 2089ETH      C 8359   7.237   6.312   4.248
 2089ETH      C 8360   7.336   6.223   4.321
 2089ETH      H 8361   7.202   6.394   4.316
 2090ETH      O 8362   6.292   5.427   0.277
 2090ETH      C 8363   6.246   5.520   0.494
 2090ETH      C 8364   6.306   5.542   0.356
 2090ETH      H 8365   6.137   5.498   0.485
 2091ETH      O 8366   5.309   2.974   2.977
 2091ETH      C 8367   5.157   3.090   3.121
 2091ETH      C 8368   5.179   2.972   3.028
 2091ETH      H 8369   5.227   3.084   3.208
 2092ETH      O 8370   7.764   5.004   7.431
 2092ETH      C 8371   7.550   4.988   7.539
 2092ETH      C 8372   7.669   5.076   7.506
 2092ETH      H 8373   7.501   4.954   7.444
 2093ETH      O 8374   6.053   4.998   0.263
 2093ETH      C 8375   6.063   5.005   0.502
 2093ETH      C 8376   5.975   5.003   0.379
 2093ETH      H 8377   6.124   4.912   0.507
 2094ETH      O 8378   3.858   2.705   1.634
 2094ETH      C 8379   4.030   2.816   1.760
 2094ETH      C 8380   3.902   2.734   1.764
 2094ETH      H 8381   4.111   2.758   1.709
 2095ETH      O 8382   1.142   5.077   4.054
 2095ETH      C 8383   0.941   5.054   3.925
 2095ETH      C 8384   1.065   5.138   3.955
 2095ETH      H 8385   0.971   4.954   3.888
 2096ETH      O 8386   2.530   6.845   7.620
 2096ETH      C 8387   2.594   6.819   7.390
 2096ETH      C 8388   2.483   6.852   7.488
 2096ETH      H 8389   2.677   6.893   7.400
 2097ETH      O 8390   2.965   5.600   4.953
 2097ETH      C 8391   2.921   5.733   5.148
 2097ETH      C 8392   3.017   5.638   5.077
 2097ETH      H 8393   2.908   5.826   5.087
 2098ETH      O 8394   4.539   0.579   7.296
 2098ETH      C 8395   4.582   0.401   7.451
 2098ETH      C 8396   4.484   0.507   7.403
 2098ETH      H 8397   4.604   0.329   7.369
 2099ETH      O 8398   0.400   3.277   5.581
 2099ETH      C 8399   0.310   3.396   5.392
 2099ETH      C 8400   0.288   3.287   5.497
 2099ETH      H 8401   0.323   3.494   5.443
 2100ETH      O 8402   0.748   2.378   7.519
 2100ETH      C 8403   0.751   2.158   7.614
 2100ETH      C 8404   0.694   2.250   7.508
 2100ETH      H 8405   0.862   2.149   7.602
 2101ETH      O 8406   6.022   2.285   2.454
 2101ETH      C 8407   6.086   2.221   2.232
 2101ETH      C 8408   6.108   2.202   2.381
 2101ETH      H 8409   5.981   2.193   2.205
 2102ETH      O 8410   6.372   3.825   6.737
 2102ETH      C 8411   6.330   3.777   6.969
 2102ETH      C 8412   6.270   3.804   6.831
 2102ETH      H 8413   6.393   3.685   6.966
 2103ETH      O 8414   6.550   3.042   1.768
 2103ETH      C 8415   6.553   3.091   1.533
 2103ETH      C 8416   6.479   3.104   1.665
 2103ETH      H 8417   6.653   3.141   1.541
 2104ETH      O 8418   7.165   1.419   2.815
 2104ETH      C 8419   7.274   1.590   2.944
 2104ETH      C 8420   7.290   1.474   2.846
 2104ETH      H 8421   7.212   1.670   2.898
 2105ETH      O 8422   0.316   5.810   5.979
 2105ETH      C 8423   0.516   5.714   6.070
 2105ETH      C 8424   0.367   5.699   6.049
 2105ETH      H 8425   0.569   5.717   5.972
 2106ETH      O 8426   0.097   3.562   2.251
 2106ETH      C 8427   0.130   3.594   2.487
 2106ETH      C 8428   0.193   3.593   2.349
 2106ETH      H 8429   0.050   3.672   2.492
 2107ETH      O 8430   7.587   5.906   3.454
 2107ETH      C 8431   7.477   6.046   3.615
 2107ETH      C 8432   7.519   6.027   3.470
 2107ETH      H 8433   7.408   5.964   3.646
 2108ETH      O 8434   7.128   0.206   1.044
 2108ETH      C 8435   7.170   0.404   0.915
 2108ETH      C 8436   7.094   0.273   0.925
 2108ETH      H 8437   7.142   0.471   1.000
 2109ETH      O 8438   3.479   1.268   0.533
 2109ETH      C 8439   3.703   1.203   0.478
 2109ETH      C 8440   3.594   1.307   0.462
 2109ETH      H 8441   3.732   1.193   0.585
 2110ETH      O 8442   6.348   4.229   4.813
 2110ETH      C 8443   6.510   4.373   4.712
 2110ETH      C 8444   6.378   4.363   4.786
 2110ETH      H 8445   6.592   4.333   4.775
 2111ETH      O 8446   5.945   1.845   5.551
 2111ETH      C 8447   5.786   1.675   5.492
 2111ETH      C 8448   5.897   1.718   5.586
 2111ETH      H 8449   5.700   1.747   5.499
 2112ETH      O 8450   5.594   2.051   4.320
 2112ETH      C 8451   5.548   2.151   4.107
 2112ETH      C 8452   5.534   2.162   4.258
 2112ETH      H 8453   5.656   2.150   4.078
 2113ETH      O 8454   1.709   5.028   7.644
 2113ETH      C 8455   1.774   4.847   7.787
 2113ETH      C 8456   1.688   4.971   7.771
 2113ETH      H 8457   1.745   4.770   7.711
 2114ETH      O 8458   2.628   5.428   2.326
 2114ETH      C 8459   2.400   5.446   2.251
 2114ETH      C 8460   2.539   5.508   2.253
 2114ETH      H 8461   2.404   5.346   2.202
 2115ETH      O 8462   0.151   5.629   0.657
 2115ETH      C 8463   0.014   5.822   0.697
 2115ETH      C 8464   0.039   5.676   0.728
 2115ETH      H 8465   0.101   5.884   0.729
 2116ETH      O 8466   0.090   3.763   7.640
 2116ETH      C 8467   0.073   3.713   7.874
 2116ETH      C 8468   0.003   3.767   7.750
 2116ETH      H 8469   0.101   3.606   7.858
 2117ETH      O 8470   7.133   6.788   5.182
 2117ETH      C 8471   7.252   6.606   5.283
 2117ETH      C 8472   7.152   6.650   5.177
 2117ETH      H 8473   7.351   6.655   5.264
 2118ETH      O 8474   5.523   0.099   5.568
 2118ETH      C 8475   5.324   0.027   5.454
 2118ETH      C 8476   5.403   0.144   5.512
 2118ETH      H 8477   5.382  -0.023   5.373
 2119ETH      O 8478   1.280   7.430   4.602
 2119ETH      C 8479   1.446   7.485   4.438
 2119ETH      C 8480   1.418   7.432   4.577
 2119ETH      H 8481   1.400   7.418   4.362
 2120ETH      O 8482   4.041   3.059   3.816
 2120ETH      C 8483   3.853   3.019   3.671
 2120ETH      C 8484   3.955   3.119   3.724
 2120ETH      H 8485   3.906   2.935   3.619
 2121ETH      O 8486   1.408   0.574   6.673
 2121ETH      C 8487   1.561   0.523   6.495
 2121ETH      C 8488   1.421   0.504   6.552
 2121ETH      H 8489   1.580   0.631   6.474
 2122ETH      O 8490   6.454   3.615   7.711
 2122ETH      C 8491   6.445   3.814   7.576
 2122ETH      C 8492   6.429   3.753   7.714
 2122ETH      H 8493   6.550   3.800   7.540
 2123ETH      O 8494   5.717   0.262   4.626
 2123ETH      C 8495   5.591   0.103   4.754
 2123ETH      C 8496   5.691   0.218   4.756
 2123ETH      H 8497   5.494   0.137   4.711
 2124ETH      O 8498   0.114   5.872   1.226
 2124ETH      C 8499   0.065   5.790   1.006
 2124ETH      C 8500   0.125   5.902   1.090
 2124ETH      H 8501   0.120   5.695   1.024
 2125ETH      O 8502   3.254   1.901   6.864
 2125ETH      C 8503   3.282   1.945   6.630
 2125ETH      C 8504   3.187   1.906   6.742
 2125ETH      H 8505   3.325   2.046   6.649
 2126ETH      O 8506   5.531   2.425   5.698
 2126ETH      C 8507   5.742   2.440   5.584
 2126ETH      C 8508   5.590   2.435   5.572
 2126ETH      H 8509   5.773   2.529   5.644
 2127ETH      O 8510   3.110   2.506   6.016
 2127ETH      C 8511   2.986   2.692   6.104
 2127ETH      C 8512   3.012   2.601   5.985
 2127ETH      H 8513   2.949   2.632   6.191
 2128ETH      O 8514   7.346   3.941   1.410
 2128ETH      C 8515   7.496   3.944   1.597
 2128ETH      C 8516   7.437   4.021   1.480
 2128ETH      H 8517   7.415   3.914   1.668
 2129ETH      O 8518   1.099   6.984   3.364
 2129ETH      C 8519   1.166   7.085   3.571
 2129ETH      C 8520   1.083   6.978   3.503
 2129ETH      H 8521   1.274   7.070   3.549
 2130ETH      O 8522   5.827   4.507   3.304
 2130ETH      C 8523   5.836   4.434   3.075
 2130ETH      C 8524   5.912   4.455   3.205
 2130ETH      H 8525   5.754   4.360   3.091
 2131ETH      O 8526   1.524   1.545   2.746
 2131ETH      C 8527   1.531   1.406   2.942
 2131ETH      C 8528   1.555   1.417   2.792
 2131ETH      H 8529   1.596   1.479   2.996
 2132ETH      O 8530   5.597   2.741   1.047
 2132ETH      C 8531   5.504   2.897   0.890
 2132ETH      C 8532   5.609   2.871   0.996
 2132ETH      H 8533   5.517   2.826   0.804
 2133ETH      O 8534   2.525   4.113   5.368
 2133ETH      C 8535   2.527   3.993   5.160
 2133ETH      C 8536   2.567   3.994   5.307
 2133ETH      H 8537   2.416   3.998   5.152
 2134ETH      O 8538   6.412   5.334   5.631
 2134ETH      C 8539   6.415   5.388   5.864
 2134ETH      C 8540   6.469   5.419   5.726
 2134ETH      H 8541   6.305   5.405   5.867
 2135ETH      O 8542   7.287   1.222   6.027
 2135ETH      C 8543   7.459   1.099   6.139
 2135ETH      C 8544   7.322   1.095   6.074
 2135ETH      H 8545   7.536   1.131   6.065
 2136ETH      O 8546   3.691   2.615   4.262
 2136ETH      C 8547   3.666   2.666   4.029
 2136ETH      C 8548   3.641   2.566   4.141
 2136ETH      H 8549   3.613   2.762   4.051
 2137ETH      O 8550   6.501   6.547   2.853
 2137ETH      C 8551   6.566   6.327   2.782
 2137ETH      C 8552   6.499   6.458   2.744
 2137ETH      H 8553   6.673   6.345   2.808
 2138ETH      O 8554   4.864   5.950   4.010
 2138ETH      C 8555   4.774   6.172   4.030
 2138ETH      C 8556   4.887   6.084   3.977
 2138ETH      H 8557   4.677   6.142   3.984
 2139ETH      O 8558   6.123   0.754   3.351
 2139ETH      C 8559   6.124   0.710   3.587
 2139ETH      C 8560   6.072   0.669   3.450
 2139ETH      H 8561   6.235   0.701   3.589
 2140ETH      O 8562   7.136   1.150   6.623
 2140ETH      C 8563   7.025   1.076   6.823
 2140ETH      C 8564   7.011   1.114   6.676
 2140ETH      H 8565   7.093   0.988   6.834
 2141ETH      O 8566   0.508   6.704   3.925
 2141ETH      C 8567   0.432   6.638   4.142
 2141ETH      C 8568   0.494   6.595   4.010
 2141ETH      H 8569   0.499   6.711   4.193
 2142ETH      O 8570   2.030   2.166   1.452
 2142ETH      C 8571   2.225   2.145   1.590
 2142ETH      C 8572   2.162   2.117   1.455
 2142ETH      H 8573   2.230   2.255   1.608
 2143ETH      O 8574   2.504   3.688   2.804
 2143ETH      C 8575   2.480   3.869   2.960
 2143ETH      C 8576   2.575   3.787   2.874
 2143ETH      H 8577   2.405   3.921   2.895
 2144ETH      O 8578   5.955   1.073   4.631
 2144ETH      C 8579   6.089   1.129   4.441
 2144ETH      C 8580   6.084   1.110   4.591
 2144ETH      H 8581   6.064   1.034   4.389
 2145ETH      O 8582   4.072   5.788   2.863
 2145ETH      C 8583   4.116   5.789   2.627
 2145ETH      C 8584   4.159   5.836   2.765
 2145ETH      H 8585   4.118   5.678   2.622
 2146ETH      O 8586   1.502   7.398   5.279
 2146ETH      C 8587   1.426   7.244   5.112
 2146ETH      C 8588   1.388   7.340   5.223
 2146ETH      H 8589   1.480   7.299   5.031
 2147ETH      O 8590   1.284   2.604   4.281
 2147ETH      C 8591   1.241   2.839   4.258
 2147ETH      C 8592   1.197   2.697   4.223
 2147ETH      H 8593   1.238   2.853   4.369
 2148ETH      O 8594   5.549   1.340   5.910
 2148ETH      C 8595   5.588   1.447   6.122
 2148ETH      C 8596   5.572   1.464   5.972
 2148ETH      H 8597   5.495   1.404   6.166
 2149ETH      O 8598   7.728   5.945   1.704
 2149ETH      C 8599   7.874   5.856   1.873
 2149ETH      C 8600   7.799   5.831   1.743
 2149ETH      H 8601   7.947   5.939   1.859
 2150ETH      O 8602   3.217   4.080   4.206
 2150ETH      C 8603   3.117   4.095   3.988
 2150ETH      C 8604   3.223   4.148   4.083
 2150ETH      H 8605   3.135   3.987   3.968
 2151ETH      O 8606   0.617   2.565   2.149
 2151ETH      C 8607   0.814   2.434   2.188
 2151ETH      C 8608   0.665   2.434   2.157
 2151ETH      H 8609   0.870   2.485   2.106
 2152ETH      O 8610   7.327   6.531   2.381
 2152ETH      C 8611   7.171   6.669   2.262
 2152ETH      C 8612   7.272   6.555   2.255
 2152ETH      H 8613   7.087   6.641   2.331
 2153ETH      O 8614   5.932   7.833   3.679
 2153ETH      C 8615   6.038   7.696   3.513
 2153ETH      C 8616   5.913   7.772   3.555
 2153ETH      H 8617   6.124   7.767   3.503
 2154ETH      O 8618   7.098   4.531   4.370
 2154ETH      C 8619   7.015   4.585   4.152
 2154ETH      C 8620   6.985   4.575   4.300
 2154ETH      H 8621   7.097   4.659   4.134
 2155ETH      O 8622   1.708   1.057   8.008
 2155ETH      C 8623   1.767   1.129   7.787
 2155ETH      C 8624   1.656   1.090   7.882
 2155ETH      H 8625   1.821   1.218   7.825
 2156ETH      O 8626   3.191   3.429   7.570
 2156ETH      C 8627   3.117   3.393   7.795
 2156ETH      C 8628   3.223   3.453   7.704
 2156ETH      H 8629   3.019   3.440   7.775
 2157ETH      O 8630   7.237   2.073   7.200
 2157ETH      C 8631   7.207   1.848   7.122
 2157ETH      C 8632   7.160   1.958   7.216
 2157ETH      H 8633   7.195   1.881   7.016
 2158ETH      O 8634   3.440   0.064   7.270
 2158ETH      C 8635   3.430   0.039   7.031
 2158ETH      C 8636   3.404  -0.024   7.167
 2158ETH      H 8637   3.369   0.132   7.020
 2159ETH      O 8638   5.456   4.794   1.102
 2159ETH      C 8639   5.315   4.968   1.188
 2159ETH      C 8640   5.323   4.832   1.122
 2159ETH      H 8641   5.363   4.965   1.288
 2160ETH      O 8642   1.589   5.850   6.455
 2160ETH      C 8643   1.652   5.860   6.224
 2160ETH      C 8644   1.612   5.772   6.341
 2160ETH      H 8645   1.570   5.931   6.200
 2161ETH      O 8646   1.400   7.441   3.670
 2161ETH      C 8647   1.357   7.592   3.851
 2161ETH      C 8648   1.307   7.533   3.720
 2161ETH      H 8649   1.369   7.512   3.927
 2162ETH      O 8650   5.101   6.829   6.019
 2162ETH      C 8651   5.285   6.844   5.866
 2162ETH      C 8652   5.238   6.804   6.005
 2162ETH      H 8653   5.232   6.783   5.789
 2163ETH      O 8654   0.440   0.297   4.792
 2163ETH      C 8655   0.494   0.266   5.024
 2163ETH      C 8656   0.525   0.228   4.880
 2163ETH      H 8657   0.512   0.375   5.039
 2164ETH      O 8658   4.135   0.227   0.433
 2164ETH      C 8659   4.100   0.255   0.197
 2164ETH      C 8660   4.057   0.294   0.338
 2164ETH      H 8661   4.206   0.284   0.180
 2165ETH      O 8662   7.218   4.889   4.151
 2165ETH      C 8663   7.329   4.683   4.206
 2165ETH      C 8664   7.264   4.810   4.258
 2165ETH      H 8665   7.254   4.622   4.150
 2166ETH      O 8666   5.698   2.742   4.465
 2166ETH      C 8667   5.643   2.510   4.492
 2166ETH      C 8668   5.753   2.615   4.482
 2166ETH      H 8669   5.579   2.531   4.581
 2167ETH      O 8670   2.664   1.418   6.379
 2167ETH      C 8671   2.803   1.227   6.334
 2167ETH      C 8672   2.702   1.327   6.279
 2167ETH      H 8673   2.895   1.280   6.367
 2168ETH      O 8674   0.884   0.620   6.967
 2168ETH      C 8675   0.931   0.455   7.135
 2168ETH      C 8676   0.975   0.521   7.006
 2168ETH      H 8677   0.926   0.530   7.217
 2169ETH      O 8678   0.714   6.471   7.165
 2169ETH      C 8679   0.810   6.541   7.373
 2169ETH      C 8680   0.736   6.432   7.297
 2169ETH      H 8681   0.910   6.559   7.326
 2170ETH      O 8682   6.365   5.639   5.022
 2170ETH      C 8683   6.360   5.428   4.908
 2170ETH      C 8684   6.282   5.551   4.952
 2170ETH      H 8685   6.442   5.458   4.839
 2171ETH      O 8686   0.088   4.331   1.701
 2171ETH      C 8687   0.080   4.317   1.940
 2171ETH      C 8688   0.159   4.360   1.818
 2171ETH      H 8689  -0.016   4.374   1.945
 2172ETH      O 8690   2.225   5.131   6.510
 2172ETH      C 8691   2.015   5.242   6.541
 2172ETH      C 8692   2.164   5.256   6.515
 2172ETH      H 8693   1.967   5.185   6.458
 2173ETH      O 8694   7.337   4.109   0.550
 2173ETH      C 8695   7.249   4.022   0.756
 2173ETH      C 8696   7.218   4.082   0.619
 2173ETH      H 8697   7.303   3.926   0.744
 2174ETH      O 8698   3.889   2.749   2.484
 2174ETH      C 8699   3.854   2.756   2.722
 2174ETH      C 8700   3.800   2.791   2.584
 2174ETH      H 8701   3.865   2.645   2.731
 2175ETH      O 8702   0.940   3.165   5.021
 2175ETH      C 8703   1.014   3.358   5.144
 2175ETH      C 8704   0.966   3.303   5.011
 2175ETH      H 8705   0.936   3.344   5.222
 2176ETH      O 8706   5.827   1.169   6.133
 2176ETH      C 8707   5.726   1.067   5.941
 2176ETH      C 8708   5.839   1.153   5.995
 2176ETH      H 8709   5.729   0.966   5.987
 2177ETH      O 8710   3.337   4.766   1.905
 2177ETH      C 8711   3.525   4.619   1.929
 2177ETH      C 8712   3.379   4.633   1.890
 2177ETH      H 8713   3.589   4.683   1.862
 2178ETH      O 8714   3.343   3.889   2.509
 2178ETH      C 8715   3.538   3.953   2.385
 2178ETH      C 8716   3.466   3.843   2.463
 2178ETH      H 8717   3.477   3.982   2.296
 2179ETH      O 8718   2.796   3.321   0.682
 2179ETH      C 8719   2.835   3.500   0.527
 2179ETH      C 8720   2.761   3.370   0.555
 2179ETH      H 8721   2.806   3.577   0.602
 2180ETH      O 8722   2.289   1.345   5.249
 2180ETH      C 8723   2.278   1.293   5.483
 2180ETH      C 8724   2.361   1.349   5.369
 2180ETH      H 8725   2.186   1.354   5.497
 2181ETH      O 8726   4.984   1.511   5.680
 2181ETH      C 8727   5.019   1.700   5.536
 2181ETH      C 8728   5.050   1.634   5.670
 2181ETH      H 8729   5.056   1.635   5.453
 2182ETH      O 8730   2.426   6.498   2.552
 2182ETH      C 8731   2.300   6.671   2.443
 2182ETH      C 8732   2.432   6.631   2.508
 2182ETH      H 8733   2.281   6.607   2.354
 2183ETH      O 8734   2.951   7.053   6.846
 2183ETH      C 8735   2.858   7.072   7.066
 2183ETH      C 8736   2.926   7.143   6.950
 2183ETH      H 8737   2.760   7.031   7.033
 2184ETH      O 8738   6.931   1.443   2.398
 2184ETH      C 8739   7.054   1.627   2.490
 2184ETH      C 8740   7.058   1.483   2.443
 2184ETH      H 8741   7.026   1.694   2.406
 2185ETH      O 8742   0.883   4.737   6.611
 2185ETH      C 8743   1.016   4.634   6.782
 2185ETH      C 8744   0.979   4.763   6.709
 2185ETH      H 8745   0.927   4.592   6.833
 2186ETH      O 8746   3.992   5.449   4.859
 2186ETH      C 8747   4.028   5.510   5.088
 2186ETH      C 8748   4.030   5.399   4.985
 2186ETH      H 8749   4.102   5.589   5.060
 2187ETH      O 8750   6.210   3.811   7.204
 2187ETH      C 8751   6.311   3.780   7.419
 2187ETH      C 8752   6.182   3.793   7.340
 2187ETH      H 8753   6.368   3.691   7.384
 2188ETH      O 8754   7.224   6.522   1.846
 2188ETH      C 8755   7.074   6.694   1.921
 2188ETH      C 8756   7.146   6.630   1.803
 2188ETH      H 8757   7.007   6.620   1.969
 2189ETH      O 8758   7.892   7.603   2.976
 2189ETH      C 8759   7.732   7.424   2.963
 2189ETH      C 8760   7.763   7.570   2.932
 2189ETH      H 8761   7.804   7.357   2.911
 2190ETH      O 8762   4.120   3.204   0.008
 2190ETH      C 8763   4.143   3.240   0.244
 2190ETH      C 8764   4.213   3.227   0.110
 2190ETH      H 8765   4.073   3.327   0.243
 2191ETH      O 8766   4.940   6.461   1.936
 2191ETH      C 8767   5.160   6.378   1.886
 2191ETH      C 8768   5.029   6.435   1.831
 2191ETH      H 8769   5.208   6.452   1.954
 2192ETH      O 8770   5.528   5.733   3.806
 2192ETH      C 8771   5.593   5.958   3.860
 2192ETH      C 8772   5.623   5.809   3.876
 2192ETH      H 8773   5.599   5.987   3.753
 2193ETH      O 8774   1.965   3.628   5.714
 2193ETH      C 8775   2.086   3.663   5.918
 2193ETH      C 8776   2.073   3.697   5.771
 2193ETH      H 8777   1.993   3.694   5.973
 2194ETH      O 8778   1.570   1.936   3.568
 2194ETH      C 8779   1.779   1.821   3.593
 2194ETH      C 8780   1.664   1.892   3.662
 2194ETH      H 8781   1.741   1.731   3.539
 2195ETH      O 8782   4.633   3.186   7.666
 2195ETH      C 8783   4.729   3.046   7.497
 2195ETH      C 8784   4.746   3.110   7.633
 2195ETH      H 8785   4.641   2.977   7.497
 2196ETH      O 8786   7.699   5.825   0.928
 2196ETH      C 8787   7.737   5.769   1.158
 2196ETH      C 8788   7.729   5.879   1.054
 2196ETH      H 8789   7.639   5.717   1.166
 2197ETH      O 8790   7.664   0.864   7.606
 2197ETH      C 8791   7.870   0.914   7.719
 2197ETH      C 8792   7.750   0.821   7.707
 2197ETH      H 8793   7.928   0.913   7.623
 2198ETH      O 8794   2.367   4.239   0.753
 2198ETH      C 8795   2.423   4.117   0.555
 2198ETH      C 8796   2.313   4.180   0.638
 2198ETH      H 8797   2.495   4.194   0.522
 2199ETH      O 8798   7.365   3.009   7.399
 2199ETH      C 8799   7.219   3.200   7.391
 2199ETH      C 8800   7.232   3.049   7.379
 2199ETH      H 8801   7.249   3.232   7.494
 2200ETH      O 8802   3.479   0.499   2.679
 2200ETH      C 8803   3.538   0.662   2.512
 2200ETH      C 8804   3.581   0.585   2.636
 2200ETH      H 8805   3.517   0.590   2.429
 2201ETH      O 8806   5.721   4.339   7.667
 2201ETH      C 8807   5.710   4.385   7.903
 2201ETH      C 8808   5.784   4.408   7.772
 2201ETH      H 8809   5.606   4.424   7.895
 2202ETH      O 8810   2.403   5.227   3.095
 2202ETH      C 8811   2.220   5.116   3.204
 2202ETH      C 8812   2.343   5.102   3.117
 2202ETH      H 8813   2.248   5.158   3.304
 2203ETH      O 8814   3.439   0.093   4.278
 2203ETH      C 8815   3.435   0.092   4.038
 2203ETH      C 8816   3.417   0.012   4.166
 2203ETH      H 8817   3.360   0.175   4.035
 2204ETH      O 8818   7.279   1.172   3.364
 2204ETH      C 8819   7.474   1.042   3.311
 2204ETH      C 8820   7.377   1.088   3.419
 2204ETH      H 8821   7.419   0.983   3.233
 2205ETH      O 8822   0.443   5.200   5.281
 2205ETH      C 8823   0.483   5.064   5.087
 2205ETH      C 8824   0.523   5.187   5.167
 2205ETH      H 8825   0.498   4.973   5.149
 2206ETH      O 8826   3.490  -0.006   1.413
 2206ETH      C 8827   3.581   0.184   1.528
 2206ETH      C 8828   3.513   0.131   1.403
 2206ETH      H 8829   3.516   0.167   1.617
 2207ETH      O 8830   1.762   4.092   3.277
 2207ETH      C 8831   1.674   4.243   3.112
 2207ETH      C 8832   1.644   4.151   3.230
 2207ETH      H 8833   1.742   4.325   3.145
 2208ETH      O 8834   7.459   7.810   1.262
 2208ETH      C 8835   7.554   7.591   1.291
 2208ETH      C 8836   7.472   7.703   1.352
 2208ETH      H 8837   7.504   7.552   1.200
 2209ETH      O 8838   2.038   0.874   1.503
 2209ETH      C 8839   2.040   0.940   1.272
 2209ETH      C 8840   1.964   0.871   1.384
 2209ETH      H 8841   2.057   1.047   1.298
 2210ETH      O 8842   0.547   7.404   7.093
 2210ETH      C 8843   0.446   7.395   6.875
 2210ETH      C 8844   0.562   7.352   6.963
 2210ETH      H 8845   0.350   7.355   6.916
 2211ETH      O 8846   5.583   6.031   6.273
 2211ETH      C 8847   5.628   5.942   6.055
 2211ETH      C 8848   5.662   6.048   6.159
 2211ETH      H 8849   5.650   5.840   6.096
 2212ETH      O 8850   3.013   0.236   5.276
 2212ETH      C 8851   3.132   0.398   5.145
 2212ETH      C 8852   3.107   0.251   5.173
 2212ETH      H 8853   3.037   0.447   5.111
 2213ETH      O 8854   4.218   1.849   0.700
 2213ETH      C 8855   4.138   1.650   0.808
 2213ETH      C 8856   4.174   1.797   0.822
 2213ETH      H 8857   4.055   1.638   0.734
 2214ETH      O 8858   2.958   4.239   2.459
 2214ETH      C 8859   2.926   4.002   2.432
 2214ETH      C 8860   3.023   4.115   2.465
 2214ETH      H 8861   2.843   4.001   2.506
 2215ETH      O 8862   0.876   1.796   2.872
 2215ETH      C 8863   0.869   1.667   2.669
 2215ETH      C 8864   0.939   1.691   2.802
 2215ETH      H 8865   0.763   1.637   2.686
 2216ETH      O 8866   3.088   1.459   3.734
 2216ETH      C 8867   3.048   1.606   3.549
 2216ETH      C 8868   2.989   1.507   3.647
 2216ETH      H 8869   3.091   1.694   3.603
 2217ETH      O 8870   4.176   2.674   6.285
 2217ETH      C 8871   4.032   2.745   6.464
 2217ETH      C 8872   4.158   2.670   6.424
 2217ETH      H 8873   4.041   2.852   6.434
 2218ETH      O 8874   6.554   0.749   1.669
 2218ETH      C 8875   6.444   0.546   1.603
 2218ETH      C 8876   6.501   0.629   1.717
 2218ETH      H 8877   6.360   0.602   1.554
 2219ETH      O 8878   5.834   6.771   5.569
 2219ETH      C 8879   5.760   6.877   5.367
 2219ETH      C 8880   5.771   6.885   5.519
 2219ETH      H 8881   5.861   6.872   5.322
 2220ETH      O 8882   1.370   3.306   3.506
 2220ETH      C 8883   1.318   3.328   3.740
 2220ETH      C 8884   1.287   3.372   3.597
 2220ETH      H 8885   1.299   3.219   3.750
 2221ETH      O 8886   0.926   1.871   2.700
 2221ETH      C 8887   0.962   1.791   2.476
 2221ETH      C 8888   1.022   1.860   2.598
 2221ETH      H 8889   0.930   1.688   2.503
 2222ETH      O 8890   4.314   3.728   0.674
 2222ETH      C 8891   4.103   3.809   0.756
 2222ETH      C 8892   4.224   3.835   0.667
 2222ETH      H 8893   4.050   3.717   0.721
 2223ETH      O 8894   3.152   0.431   6.367
 2223ETH      C 8895   3.377   0.491   6.427
 2223ETH      C 8896   3.257   0.520   6.338
 2223ETH      H 8897   3.349   0.505   6.534
 2224ETH      O 8898   0.473   1.316   4.522
 2224ETH      C 8899   0.437   1.279   4.757
 2224ETH      C 8900   0.405   1.236   4.614
 2224ETH      H 8901   0.546   1.267   4.776
 2225ETH      O 8902   2.154   0.953   4.771
 2225ETH      C 8903   2.156   1.006   4.537
 2225ETH      C 8904   2.073   0.963   4.657
 2225ETH      H 8905   2.201   1.106   4.555
 2226ETH      O 8906   0.248   7.804   6.826
 2226ETH      C 8907   0.150   7.731   6.620
 2226ETH      C 8908   0.135   7.744   6.770
 2226ETH      H 8909   0.161   7.832   6.573
 2227ETH      O 8910   7.054   3.722   6.962
 2227ETH      C 8911   7.124   3.798   7.178
 2227ETH      C 8912   7.158   3.716   7.055
 2227ETH      H 8913   7.109   3.905   7.151
 2228ETH      O 8914   4.939   3.948   1.265
 2228ETH      C 8915   4.952   3.870   1.491
 2228ETH      C 8916   4.885   3.856   1.355
 2228ETH      H 8917   5.061   3.849   1.482
 2229ETH      O 8918   1.722   7.613   2.610
 2229ETH      C 8919   1.648   7.637   2.383
 2229ETH      C 8920   1.687   7.707   2.512
 2229ETH      H 8921   1.734   7.577   2.344
 2230ETH      O 8922   3.788   4.841   7.669
 2230ETH      C 8923   3.738   4.726   7.464
 2230ETH      C 8924   3.729   4.856   7.543
 2230ETH      H 8925   3.844   4.698   7.449
 2231ETH      O 8926   2.187   5.144   7.502
 2231ETH      C 8927   2.197   5.179   7.739
 2231ETH      C 8928   2.261   5.205   7.604
 2231ETH      H 8929   2.094   5.223   7.741
 2232ETH      O 8930   4.771   4.546   2.612
 2232ETH      C 8931   4.584   4.500   2.468
 2232ETH      C 8932   4.736   4.504   2.483
 2232ETH      H 8933   4.541   4.427   2.540
 2233ETH      O 8934   0.459   6.306   1.582
 2233ETH      C 8935   0.370   6.311   1.359
 2233ETH      C 8936   0.432   6.390   1.473
 2233ETH      H 8937   0.440   6.232   1.325
 2234ETH      O 8938   4.731   3.471   4.250
 2234ETH      C 8939   4.930   3.375   4.346
 2234ETH      C 8940   4.785   3.354   4.306
 2234ETH      H 8941   4.991   3.400   4.256
 2235ETH      O 8942   2.784   6.349   0.056
 2235ETH      C 8943   2.676   6.266   0.254
 2235ETH      C 8944   2.779   6.362   0.195
 2235ETH      H 8945   2.575   6.291   0.215
 2236ETH      O 8946   5.207   1.419   6.187
 2236ETH      C 8947   5.084   1.604   6.095
 2236ETH      C 8948   5.120   1.456   6.084
 2236ETH      H 8949   5.032   1.623   6.192
 2237ETH      O 8950   0.663   4.081   7.577
 2237ETH      C 8951   0.625   4.024   7.808
 2237ETH      C 8952   0.574   4.097   7.685
 2237ETH      H 8953   0.632   3.914   7.786
 2238ETH      O 8954   5.073   1.698   2.286
 2238ETH      C 8955   5.203   1.877   2.379
 2238ETH      C 8956   5.111   1.831   2.267
 2238ETH      H 8957   5.150   1.870   2.477
 2239ETH      O 8958   0.080   0.363   1.908
 2239ETH      C 8959   0.007   0.529   2.066
 2239ETH      C 8960   0.042   0.498   1.922
 2239ETH      H 8961  -0.080   0.467   2.098
 2240ETH      O 8962   2.458   0.803   6.472
 2240ETH      C 8963   2.290   0.852   6.308
 2240ETH      C 8964   2.379   0.906   6.419
 2240ETH      H 8965   2.352   0.811   6.225
 2241ETH      O 8966   6.127   3.071   5.459
 2241ETH      C 8967   6.078   3.077   5.224
 2241ETH      C 8968   6.024   3.086   5.366
 2241ETH      H 8969   6.151   3.159   5.206
 2242ETH      O 8970   4.954   5.855   7.445
 2242ETH      C 8971   5.034   5.873   7.670
 2242ETH      C 8972   4.924   5.824   7.578
 2242ETH      H 8973   5.130   5.822   7.645
 2243ETH      O 8974   4.728   7.692   5.007
 2243ETH      C 8975   4.798   7.704   5.236
 2243ETH      C 8976   4.696   7.746   5.132
 2243ETH      H 8977   4.797   7.593   5.247
 2244ETH      O 8978   7.505   7.129   2.047
 2244ETH      C 8979   7.743   7.094   2.053
 2244ETH      C 8980   7.627   7.176   1.997
 2244ETH      H 8981   7.746   7.104   2.164
 2245ETH      O 8982   6.664   0.350   2.215
 2245ETH      C 8983   6.537   0.149   2.249
 2245ETH      C 8984   6.618   0.233   2.152
 2245ETH      H 8985   6.600   0.118   2.336
 2246ETH      O 8986   6.957   7.805   6.883
 2246ETH      C 8987   6.759   7.795   7.017
 2246ETH      C 8988   6.832   7.863   6.902
 2246ETH      H 8989   6.743   7.687   6.993
 2247ETH      O 8990   3.757   3.617   5.585
 2247ETH      C 8991   3.760   3.596   5.346
 2247ETH      C 8992   3.839   3.588   5.475
 2247ETH      H 8993   3.678   3.521   5.347
 2248ETH      O 8994   7.472   2.162   7.250
 2248ETH      C 8995   7.485   2.126   7.488
 2248ETH      C 8996   7.432   2.213   7.374
 2248ETH      H 8997   7.445   2.023   7.479
 2249ETH      O 8998   5.040   0.328   5.622
 2249ETH      C 8999   5.028   0.325   5.861
 2249ETH      C 9000   5.076   0.254   5.735
 2249ETH      H 9001   5.076   0.425   5.870
 2250ETH      O 9002   2.365   2.036   3.061
 2250ETH      C 9003   2.159   2.121   2.972
 2250ETH      C 9004   2.270   2.137   3.075
 2250ETH      H 9005   2.202   2.129   2.869
 2251ETH      O 9006   2.400   3.439   3.421
 2251ETH      C 9007   2.621   3.477   3.505
 2251ETH      C 9008   2.472   3.477   3.535
 2251ETH      H 9009   2.655   3.375   3.476
 2252ETH      O 9010   2.227   5.823   7.048
 2252ETH      C 9011   2.327   5.726   6.852
 2252ETH      C 9012   2.343   5.761   6.999
 2252ETH      H 9013   2.243   5.654   6.840
 2253ETH      O 9014   7.543   7.038   5.564
 2253ETH      C 9015   7.533   7.097   5.796
 2253ETH      C 9016   7.538   7.147   5.653
 2253ETH      H 9017   7.441   7.036   5.812
 2254ETH      O 9018   5.867   3.268   3.203
 2254ETH      C 9019   5.697   3.271   3.033
 2254ETH      C 9020   5.762   3.344   3.150
 2254ETH      H 9021   5.772   3.255   2.952
 2255ETH      O 9022   0.416   2.747   4.716
 2255ETH      C 9023   0.363   2.854   4.508
 2255ETH      C 9024   0.466   2.834   4.619
 2255ETH      H 9025   0.342   2.757   4.458
 2256ETH      O 9026   6.911   1.582   3.204
 2256ETH      C 9027   6.733   1.421   3.196
 2256ETH      C 9028   6.801   1.532   3.275
 2256ETH      H 9029   6.695   1.461   3.099
 2257ETH      O 9030   6.561   3.341   7.392
 2257ETH      C 9031   6.687   3.295   7.592
 2257ETH      C 9032   6.648   3.249   7.452
 2257ETH      H 9033   6.741   3.392   7.585
 2258ETH      O 9034   3.805   1.461   1.700
 2258ETH      C 9035   3.611   1.326   1.741
 2258ETH      C 9036   3.665   1.464   1.711
 2258ETH      H 9037   3.636   1.256   1.658
 2259ETH      O 9038   0.816   1.537   4.682
 2259ETH      C 9039   0.757   1.370   4.520
 2259ETH      C 9040   0.834   1.403   4.647
 2259ETH      H 9041   0.648   1.386   4.537
 2260ETH      O 9042   2.887   5.056   6.782
 2260ETH      C 9043   2.954   4.954   6.575
 2260ETH      C 9044   2.890   5.074   6.643
 2260ETH      H 9045   3.060   4.942   6.610
 2261ETH      O 9046   6.500   7.870   3.812
 2261ETH      C 9047   6.502   7.798   3.583
 2261ETH      C 9048   6.489   7.915   3.680
 2261ETH      H 9049   6.602   7.750   3.595
 2262ETH      O 9050   3.564   2.126   0.688
 2262ETH      C 9051   3.725   2.239   0.826
 2262ETH      C 9052   3.698   2.126   0.729
 2262ETH      H 9053   3.705   2.337   0.777
 2263ETH      O 9054   1.214   2.287   6.280
 2263ETH      C 9055   1.209   2.248   6.517
 2263ETH      C 9056   1.251   2.341   6.404
 2263ETH      H 9057   1.098   2.236   6.517
 2264ETH      O 9058   0.440   7.785   7.877
 2264ETH      C 9059   0.526   7.934   7.710
 2264ETH      C 9060   0.455   7.802   7.739
 2264ETH      H 9061   0.465   8.019   7.747
 2265ETH      O 9062   2.402   6.382   3.116
 2265ETH      C 9063   2.512   6.335   3.324
 2265ETH      C 9064   2.407   6.292   3.223
 2265ETH      H 9065   2.612   6.337   3.277
 2266ETH      O 9066   4.045   4.283   5.104
 2266ETH      C 9067   3.848   4.373   5.207
 2266ETH      C 9068   3.907   4.304   5.086
 2266ETH      H 9069   3.860   4.309   5.297
 2267ETH      O 9070   3.135   3.003   3.380
 2267ETH      C 9071   3.162   3.089   3.603
 2267ETH      C 9072   3.211   2.991   3.498
 2267ETH      H 9073   3.174   3.194   3.566
 2268ETH      O 9074   3.722   5.232   4.833
 2268ETH      C 9075   3.597   5.208   5.036
 2268ETH      C 9076   3.595   5.248   4.890
 2268ETH      H 9077   3.625   5.101   5.046
 2269ETH      O 9078   5.031   2.051   6.307
 2269ETH      C 9079   5.154   2.032   6.513
 2269ETH      C 9080   5.116   1.968   6.380
 2269ETH      H 9081   5.208   2.128   6.495
 2270ETH      O 9082   7.324   2.193   3.279
 2270ETH      C 9083   7.471   2.364   3.362
 2270ETH      C 9084   7.349   2.277   3.388
 2270ETH      H 9085   7.561   2.299   3.348
 2271ETH      O 9086   7.114   7.009   4.014
 2271ETH      C 9087   7.266   7.045   4.197
 2271ETH      C 9088   7.172   6.948   4.126
 2271ETH      H 9089   7.348   7.075   4.128
 2272ETH      O 9090   3.800   1.166   4.386
 2272ETH      C 9091   3.715   1.204   4.607
 2272ETH      C 9092   3.821   1.240   4.503
 2272ETH      H 9093   3.614   1.230   4.568
 2273ETH      O 9094   0.261   2.972   7.676
 2273ETH      C 9095   0.064   2.912   7.553
 2273ETH      C 9096   0.215   2.929   7.551
 2273ETH      H 9097   0.036   2.834   7.627
 2274ETH      O 9098   6.258   6.017   6.498
 2274ETH      C 9099   6.451   6.157   6.469
 2274ETH      C 9100   6.304   6.150   6.505
 2274ETH      H 9101   6.511   6.098   6.541
 2275ETH      O 9102   4.427   4.289   0.302
 2275ETH      C 9103   4.363   4.278   0.533
 2275ETH      C 9104   4.368   4.207   0.399
 2275ETH      H 9105   4.466   4.302   0.567
 2276ETH      O 9106   1.666   1.536   1.877
 2276ETH      C 9107   1.897   1.480   1.907
 2276ETH      C 9108   1.796   1.587   1.871
 2276ETH      H 9109   1.879   1.445   2.012
 2277ETH      O 9110   0.408   7.826   0.578
 2277ETH      C 9111   0.563   7.645   0.605
 2277ETH      C 9112   0.440   7.715   0.658
 2277ETH      H 9113   0.544   7.607   0.501
 2278ETH      O 9114   2.914   7.192   4.681
 2278ETH      C 9115   2.722   7.130   4.812
 2278ETH      C 9116   2.781   7.148   4.673
 2278ETH      H 9117   2.779   7.053   4.869
 2279ETH      O 9118   5.335   3.900   2.374
 2279ETH      C 9119   5.277   4.113   2.467
 2279ETH      C 9120   5.336   3.976   2.492
 2279ETH      H 9121   5.338   4.168   2.391
 2280ETH      O 9122   4.102   0.464   4.983
 2280ETH      C 9123   4.042   0.496   5.213
 2280ETH      C 9124   3.998   0.447   5.076
 2280ETH      H 9125   4.129   0.436   5.248
 2281ETH      O 9126   3.600   7.786   2.273
 2281ETH      C 9127   3.496   7.943   2.125
 2281ETH      C 9128   3.508   7.798   2.168
 2281ETH      H 9129   3.459   8.005   2.210
 2282ETH      O 9130   4.017   4.989   5.519
 2282ETH      C 9131   4.080   4.920   5.297
 2282ETH      C 9132   3.969   4.930   5.401
 2282ETH      H 9133   4.118   5.021   5.272
 2283ETH      O 9134   6.995   5.456   7.187
 2283ETH      C 9135   7.069   5.506   7.410
 2283ETH      C 9136   7.103   5.505   7.262
 2283ETH      H 9137   6.982   5.573   7.429
 2284ETH      O 9138   5.601   1.491   5.689
 2284ETH      C 9139   5.525   1.701   5.779
 2284ETH      C 9140   5.544   1.614   5.655
 2284ETH      H 9141   5.455   1.650   5.850
 2285ETH      O 9142   1.895   1.193   4.111
 2285ETH      C 9143   1.835   1.423   4.148
 2285ETH      C 9144   1.922   1.325   4.070
 2285ETH      H 9145   1.727   1.402   4.128
 2286ETH      O 9146   4.492   0.470   5.369
 2286ETH      C 9147   4.414   0.503   5.144
 2286ETH      C 9148   4.489   0.562   5.263
 2286ETH      H 9149   4.466   0.412   5.108
 2287ETH      O 9150   0.664   5.617   2.827
 2287ETH      C 9151   0.612   5.697   3.047
 2287ETH      C 9152   0.562   5.671   2.906
 2287ETH      H 9153   0.645   5.602   3.094
 2288ETH      O 9154   0.048   6.257   1.296
 2288ETH      C 9155   0.154   6.211   1.506
 2288ETH      C 9156   0.131   6.166   1.363
 2288ETH      H 9157   0.204   6.310   1.508
 2289ETH      O 9158   1.238   4.018   6.241
 2289ETH      C 9159   1.036   4.114   6.328
 2289ETH      C 9160   1.187   4.102   6.341
 2289ETH      H 9161   1.009   4.159   6.230
 2290ETH      O 9162   2.347   2.315   2.571
 2290ETH      C 9163   2.351   2.086   2.640
 2290ETH      C 9164   2.432   2.208   2.599
 2290ETH      H 9165   2.293   2.108   2.733
 2291ETH      O 9166   3.308   2.102   1.091
 2291ETH      C 9167   3.246   2.321   1.013
 2291ETH      C 9168   3.329   2.196   0.989
 2291ETH      H 9169   3.137   2.295   1.013
 2292ETH      O 9170   1.017   6.092   1.884
 2292ETH      C 9171   1.073   6.229   1.695
 2292ETH      C 9172   1.038   6.090   1.745
 2292ETH      H 9173   0.988   6.299   1.715
 2293ETH      O 9174   0.569   2.470   3.683
 2293ETH      C 9175   0.521   2.541   3.458
 2293ETH      C 9176   0.466   2.511   3.597
 2293ETH      H 9177   0.595   2.624   3.464
 2294ETH      O 9178   4.991   5.738   2.161
 2294ETH      C 9179   4.896   5.610   1.982
 2294ETH      C 9180   5.005   5.620   2.088
 2294ETH      H 9181   4.796   5.608   2.030
 2295ETH      O 9182   6.788   2.041   0.372
 2295ETH      C 9183   6.732   1.993   0.600
 2295ETH      C 9184   6.840   2.032   0.501
 2295ETH      H 9185   6.651   2.071   0.601
 2296ETH      O 9186   3.536   3.426   1.119
 2296ETH      C 9187   3.662   3.436   1.323
 2296ETH      C 9188   3.633   3.499   1.187
 2296ETH      H 9189   3.569   3.437   1.385
 2297ETH      O 9190   1.079   2.148   4.248
 2297ETH      C 9191   1.211   2.044   4.419
 2297ETH      C 9192   1.076   2.052   4.350
 2297ETH      H 9193   1.290   2.013   4.346
 2298ETH      O 9194   6.611   1.967   2.306
 2298ETH      C 9195   6.550   1.960   2.074
 2298ETH      C 9196   6.584   1.881   2.199
 2298ETH      H 9197   6.459   2.022   2.092
 2299ETH      O 9198   6.426   7.183   3.754
 2299ETH      C 9199   6.499   7.108   3.538
 2299ETH      C 9200   6.431   7.072   3.669
 2299ETH      H 9201   6.442   7.188   3.486
 2300ETH      O 9202   6.939   2.255   2.016
 2300ETH      C 9203   6.967   2.318   2.246
 2300ETH      C 9204   6.944   2.364   2.103
 2300ETH      H 9205   6.883   2.252   2.279
 2301ETH      O 9206   3.468   2.288   7.861
 2301ETH      C 9207   3.498   2.167   7.656
 2301ETH      C 9208   3.541   2.285   7.741
 2301ETH      H 9209   3.519   2.072   7.710
 2302ETH      O 9210   0.695   7.267   6.799
 2302ETH      C 9211   0.807   7.388   6.974
 2302ETH      C 9212   0.820   7.289   6.859
 2302ETH      H 9213   0.770   7.486   6.936
 2303ETH      O 9214   2.607   5.980   4.505
 2303ETH      C 9215   2.429   5.880   4.630
 2303ETH      C 9216   2.474   5.997   4.544
 2303ETH      H 9217   2.435   5.785   4.572
 2304ETH      O 9218   7.477   2.853   7.309
 2304ETH      C 9219   7.699   2.937   7.269
 2304ETH      C 9220   7.556   2.925   7.218
 2304ETH      H 9221   7.700   2.992   7.366
 2305ETH      O 9222   5.579   0.688   4.282
 2305ETH      C 9223   5.623   0.683   4.046
 2305ETH      C 9224   5.673   0.723   4.184
 2305ETH      H 9225   5.608   0.572   4.041
 2306ETH      O 9226   2.783   1.543   3.072
 2306ETH      C 9227   2.678   1.544   3.288
 2306ETH      C 9228   2.808   1.543   3.210
 2306ETH      H 9229   2.620   1.637   3.264
 2307ETH      O 9230   1.936   0.566   7.833
 2307ETH      C 9231   1.734   0.450   7.894
 2307ETH      C 9232   1.800   0.549   7.800
 2307ETH      H 9233   1.784   0.350   7.885
 2308ETH      O 9234   6.384   2.736   3.092
 2308ETH      C 9235   6.549   2.824   3.243
 2308ETH      C 9236   6.508   2.800   3.099
 2308ETH      H 9237   6.474   2.890   3.293
 2309ETH      O 9238   2.469   1.333   1.999
 2309ETH      C 9239   2.258   1.254   2.082
 2309ETH      C 9240   2.381   1.340   2.107
 2309ETH      H 9241   2.204   1.291   1.992
 2310ETH      O 9242   7.274   4.811   5.240
 2310ETH      C 9243   7.487   4.843   5.133
 2310ETH      C 9244   7.373   4.747   5.164
 2310ETH      H 9245   7.449   4.929   5.073
 2311ETH      O 9246   3.089   7.808   6.959
 2311ETH      C 9247   3.128   7.803   6.722
 2311ETH      C 9248   3.154   7.874   6.853
 2311ETH      H 9249   3.167   7.698   6.726
 2312ETH      O 9250   4.175   6.212   3.352
 2312ETH      C 9251   4.111   6.115   3.142
 2312ETH      C 9252   4.067   6.191   3.266
 2312ETH      H 9253   4.187   6.175   3.086
 2313ETH      O 9254   4.568   7.101   1.219
 2313ETH      C 9255   4.366   7.228   1.239
 2313ETH      C 9256   4.436   7.110   1.174
 2313ETH      H 9257   4.363   7.215   1.350
 2314ETH      O 9258   6.106   4.897   6.955
 2314ETH      C 9259   5.871   4.867   6.995
 2314ETH      C 9260   6.001   4.805   6.946
 2314ETH      H 9261   5.881   4.897   7.102
 2315ETH      O 9262   7.865   7.275   3.613
 2315ETH      C 9263   7.909   7.239   3.380
 2315ETH      C 9264   7.965   7.239   3.521
 2315ETH      H 9265   7.826   7.165   3.371
 2316ETH      O 9266   4.291   2.386   2.127
 2316ETH      C 9267   4.200   2.166   2.096
 2316ETH      C 9268   4.207   2.289   2.185
 2316ETH      H 9269   4.158   2.192   1.997
 2317ETH      O 9270   6.268   5.822   7.763
 2317ETH      C 9271   6.380   5.990   7.632
 2317ETH      C 9272   6.256   5.953   7.713
 2317ETH      H 9273   6.470   5.986   7.696
 2318ETH      O 9274   2.722   2.129   6.326
 2318ETH      C 9275   2.742   2.231   6.543
 2318ETH      C 9276   2.814   2.167   6.425
 2318ETH      H 9277   2.689   2.323   6.509
 2319ETH      O 9278   5.134   1.806   0.496
 2319ETH      C 9279   5.095   1.585   0.411
 2319ETH      C 9280   5.034   1.713   0.465
 2319ETH      H 9281   5.151   1.606   0.317
 2320ETH      O 9282   4.229   4.886   6.482
 2320ETH      C 9283   4.169   4.654   6.488
 2320ETH      C 9284   4.121   4.798   6.475
 2320ETH      H 9285   4.238   4.629   6.404
 2321ETH      O 9286   6.421   2.713   6.171
 2321ETH      C 9287   6.574   2.898   6.160
 2321ETH      C 9288   6.484   2.803   6.083
 2321ETH      H 9289   6.514   2.958   6.232
 2322ETH      O 9290   2.097   3.912   5.163
 2322ETH      C 9291   2.320   3.892   5.248
 2322ETH      C 9292   2.231   3.943   5.137
 2322ETH      H 9293   2.293   3.941   5.345
 2323ETH      O 9294   1.018   3.116   2.155
 2323ETH      C 9295   0.929   2.981   2.332
 2323ETH      C 9296   1.052   3.046   2.272
 2323ETH      H 9297   0.854   3.058   2.360
 2324ETH      O 9298   6.983   0.977   4.491
 2324ETH      C 9299   6.902   1.018   4.269
 2324ETH      C 9300   6.910   1.068   4.412
 2324ETH      H 9301   7.004   1.010   4.225
 2325ETH      O 9302   0.450   6.882   6.161
 2325ETH      C 9303   0.465   6.963   5.935
 2325ETH      C 9304   0.385   6.882   6.037
 2325ETH      H 9305   0.473   7.069   5.969
 2326ETH      O 9306   1.605   5.653   4.304
 2326ETH      C 9307   1.709   5.657   4.520
 2326ETH      C 9308   1.726   5.631   4.371
 2326ETH      H 9309   1.680   5.763   4.537
 2327ETH      O 9310   6.118   6.037   7.068
 2327ETH      C 9311   6.332   5.949   7.131
 2327ETH      C 9312   6.184   5.921   7.110
 2327ETH      H 9313   6.379   5.982   7.036
 2328ETH      O 9314   1.437   1.657   7.171
 2328ETH      C 9315   1.333   1.472   7.060
 2328ETH      C 9316   1.396   1.609   7.046
 2328ETH      H 9317   1.408   1.400   7.101
 2329ETH      O 9318   1.895   6.707   3.015
 2329ETH      C 9319   1.824   6.936   3.033
 2329ETH      C 9320   1.845   6.816   2.942
 2329ETH      H 9321   1.749   6.911   3.112
 2330ETH      O 9322   7.104   7.249   1.438
 2330ETH      C 9323   7.311   7.290   1.323
 2330ETH      C 9324   7.173   7.225   1.318
 2330ETH      H 9325   7.301   7.400   1.336
 2331ETH      O 9326   5.503   1.829   6.851
 2331ETH      C 9327   5.728   1.898   6.801
 2331ETH      C 9328   5.615   1.895   6.904
 2331ETH      H 9329   5.759   1.794   6.776
 2332ETH      O 9330   0.156   6.612   3.196
 2332ETH      C 9331   0.059   6.481   3.019
 2332ETH      C 9332   0.157   6.591   3.057
 2332ETH      H 9333   0.088   6.385   3.068
 2333ETH      O 9334  -0.131   2.822   2.440
 2333ETH      C 9335   0.103   2.813   2.390
 2333ETH      C 9336  -0.024   2.896   2.387
 2333ETH      H 9337   0.130   2.787   2.495
 2334ETH      O 9338   7.195   7.162   0.870
 2334ETH      C 9339   7.273   7.228   0.653
 2334ETH      C 9340   7.188   7.131   0.733
 2334ETH      H 9341   7.234   7.332   0.665
 2335ETH      O 9342   1.334   3.871   7.721
 2335ETH      C 9343   1.380   3.860   7.486
 2335ETH      C 9344   1.433   3.891   7.625
 2335ETH      H 9345   1.350   3.753   7.480
 2336ETH      O 9346   2.021   4.755   5.562
 2336ETH      C 9347   2.014   4.955   5.429
 2336ETH      C 9348   1.954   4.877   5.545
 2336ETH      H 9349   2.121   4.979   5.450
 2337ETH      O 9350   7.449   5.907   7.936
 2337ETH      C 9351   7.524   5.997   7.727
 2337ETH      C 9352   7.522   6.012   7.878
 2337ETH      H 9353   7.574   5.901   7.698
 2338ETH      O 9354   2.608   2.396   0.487
 2338ETH      C 9355   2.811   2.486   0.578
 2338ETH      C 9356   2.693   2.393   0.599
 2338ETH      H 9357   2.870   2.453   0.489
 2339ETH      O 9358   2.760   6.418   4.879
 2339ETH      C 9359   2.644   6.266   5.024
 2339ETH      C 9360   2.729   6.392   5.013
 2339ETH      H 9361   2.548   6.280   4.969
 2340ETH      O 9362   7.773   5.776   2.734
 2340ETH      C 9363   7.763   5.611   2.909
 2340ETH      C 9364   7.701   5.665   2.781
 2340ETH      H 9365   7.868   5.577   2.889
 2341ETH      O 9366   2.215   5.722   2.140
 2341ETH      C 9367   2.217   5.818   2.359
 2341ETH      C 9368   2.265   5.828   2.215
 2341ETH      H 9369   2.106   5.824   2.363
 2342ETH      O 9370   7.712   4.565   7.324
 2342ETH      C 9371   7.821   4.536   7.536
 2342ETH      C 9372   7.835   4.577   7.390
 2342ETH      H 9373   7.748   4.602   7.587
 2343ETH      O 9374   2.513   7.838   1.929
 2343ETH      C 9375   2.466   7.665   2.090
 2343ETH      C 9376   2.570   7.760   2.031
 2343ETH      H 9377   2.382   7.724   2.135
 2344ETH      O 9378   3.729   2.814   6.243
 2344ETH      C 9379   3.518   2.847   6.353
 2344ETH      C 9380   3.608   2.885   6.237
 2344ETH      H 9381   3.493   2.738   6.348
 2345ETH      O 9382   6.119   7.856   1.740
 2345ETH      C 9383   6.241   7.826   1.534
 2345ETH      C 9384   6.198   7.765   1.667
 2345ETH      H 9385   6.151   7.850   1.473
 2346ETH      O 9386   0.587   5.469   0.527
 2346ETH      C 9387   0.413   5.343   0.634
 2346ETH      C 9388   0.542   5.339   0.554
 2346ETH      H 9389   0.430   5.394   0.732
 2347ETH      O 9390   5.838   3.558   0.912
 2347ETH      C 9391   5.860   3.747   1.059
 2347ETH      C 9392   5.871   3.694   0.916
 2347ETH      H 9393   5.756   3.737   1.095
 2348ETH      O 9394   3.070   6.668   6.497
 2348ETH      C 9395   3.082   6.665   6.737
 2348ETH      C 9396   3.000   6.702   6.614
 2348ETH      H 9397   3.100   6.555   6.739
 2349ETH      O 9398   5.990   3.563   3.209
 2349ETH      C 9399   6.041   3.544   2.975
 2349ETH      C 9400   6.054   3.627   3.101
 2349ETH      H 9401   6.090   3.444   2.989
 2350ETH      O 9402   7.104   7.735   7.596
 2350ETH      C 9403   6.971   7.916   7.509
 2350ETH      C 9404   6.977   7.794   7.600
 2350ETH      H 9405   7.045   7.992   7.544
 2351ETH      O 9406   4.136   7.650   2.787
 2351ETH      C 9407   4.327   7.551   2.680
 2351ETH      C 9408   4.222   7.661   2.677
 2351ETH      H 9409   4.389   7.560   2.772
 2352ETH      O 9410   5.497   3.722   7.770
 2352ETH      C 9411   5.590   3.504   7.729
 2352ETH      C 9412   5.557   3.641   7.672
 2352ETH      H 9413   5.662   3.514   7.814
 2353ETH      O 9414   3.425   1.878   7.140
 2353ETH      C 9415   3.560   2.005   7.292
 2353ETH      C 9416   3.432   1.998   7.211
 2353ETH      H 9417   3.563   1.922   7.366
 2354ETH      O 9418   3.434   0.196   2.368
 2354ETH      C 9419   3.467   0.425   2.306
 2354ETH      C 9420   3.402   0.292   2.272
 2354ETH      H 9421   3.429   0.462   2.404
 2355ETH      O 9422   1.978   3.233   0.824
 2355ETH      C 9423   1.861   3.097   0.664
 2355ETH      C 9424   1.854   3.174   0.795
 2355ETH      H 9425   1.885   3.166   0.580
 2356ETH      O 9426   7.259   5.075   7.532
 2356ETH      C 9427   7.388   5.155   7.346
 2356ETH      C 9428   7.389   5.083   7.480
 2356ETH      H 9429   7.326   5.099   7.273
 2357ETH      O 9430   5.153   2.058   1.898
 2357ETH      C 9431   5.100   2.047   1.665
 2357ETH      C 9432   5.173   1.983   1.782
 2357ETH      H 9433   4.990   2.049   1.685
 2358ETH      O 9434   3.822   2.794   1.121
 2358ETH      C 9435   3.809   2.737   1.354
 2358ETH      C 9436   3.864   2.701   1.216
 2358ETH      H 9437   3.847   2.837   1.385
 2359ETH      O 9438   1.840   4.643   2.905
 2359ETH      C 9439   1.823   4.836   2.763
 2359ETH      C 9440   1.851   4.687   2.772
 2359ETH      H 9441   1.719   4.857   2.797
 2360ETH      O 9442   0.894   0.370   4.980
 2360ETH      C 9443   0.970   0.215   5.147
 2360ETH      C 9444   0.909   0.234   5.009
 2360ETH      H 9445   1.071   0.261   5.151
 2361ETH      O 9446   5.206   5.786   1.543
 2361ETH      C 9447   5.306   5.993   1.473
 2361ETH      C 9448   5.317   5.842   1.478
 2361ETH      H 9449   5.215   6.023   1.416
 2362ETH      O 9450   2.025   1.214   5.737
 2362ETH      C 9451   2.006   1.055   5.558
 2362ETH      C 9452   2.093   1.157   5.628
 2362ETH      H 9453   1.980   0.972   5.628
 2363ETH      O 9454   2.087   1.738   5.400
 2363ETH      C 9455   2.136   1.759   5.166
 2363ETH      C 9456   2.157   1.815   5.306
 2363ETH      H 9457   2.175   1.655   5.160
 2364ETH      O 9458   3.075   4.079   4.410
 2364ETH      C 9459   3.070   3.967   4.622
 2364ETH      C 9460   3.005   3.984   4.486
 2364ETH      H 9461   3.174   3.929   4.610
 2365ETH      O 9462   5.527   0.092   7.352
 2365ETH      C 9463   5.581   0.266   7.507
 2365ETH      C 9464   5.522   0.128   7.487
 2365ETH      H 9465   5.688   0.267   7.477
 2366ETH      O 9466   4.595   3.154   5.521
 2366ETH      C 9467   4.497   3.208   5.309
 2366ETH      C 9468   4.475   3.188   5.458
 2366ETH      H 9469   4.568   3.292   5.292
 2367ETH      O 9470   5.717   1.682   7.032
 2367ETH      C 9471   5.766   1.622   7.260
 2367ETH      C 9472   5.785   1.590   7.112
 2367ETH      H 9473   5.808   1.723   7.282
 2368ETH      O 9474   2.010   0.273   1.208
 2368ETH      C 9475   2.016   0.491   1.308
 2368ETH      C 9476   2.096   0.373   1.254
 2368ETH      H 9477   1.954   0.535   1.227
 2369ETH      O 9478   6.307   0.249   5.489
 2369ETH      C 9479   6.261   0.252   5.725
 2369ETH      C 9480   6.217   0.295   5.586
 2369ETH      H 9481   6.262   0.140   5.731
 2370ETH      O 9482   5.726   1.068   4.889
 2370ETH      C 9483   5.745   0.978   5.111
 2370ETH      C 9484   5.692   1.090   5.023
 2370ETH      H 9485   5.700   0.881   5.080
 2371ETH      O 9486   2.098   1.301   5.932
 2371ETH      C 9487   2.289   1.318   6.076
 2371ETH      C 9488   2.161   1.383   6.026
 2371ETH      H 9489   2.266   1.221   6.126
 2372ETH      O 9490   6.267   6.230   1.926
 2372ETH      C 9491   6.321   6.298   2.150
 2372ETH      C 9492   6.326   6.188   2.046
 2372ETH      H 9493   6.378   6.387   2.114
 2373ETH      O 9494   6.524   7.473   7.121
 2373ETH      C 9495   6.296   7.524   7.180
 2373ETH      C 9496   6.423   7.569   7.108
 2373ETH      H 9497   6.259   7.429   7.135
 2374ETH      O 9498   7.863   2.796   3.879
 2374ETH      C 9499   7.751   2.949   3.732
 2374ETH      C 9500   7.758   2.888   3.871
 2374ETH      H 9501   7.846   3.004   3.709
 2375ETH      O 9502   5.958   4.065   5.890
 2375ETH      C 9503   5.909   4.083   6.125
 2375ETH      C 9504   5.926   4.156   5.992
 2375ETH      H 9505   5.826   4.009   6.117
 2376ETH      O 9506   6.802   0.921   5.024
 2376ETH      C 9507   6.680   1.128   5.034
 2376ETH      C 9508   6.687   0.986   4.978
 2376ETH      H 9509   6.675   1.125   5.145
 2377ETH      O 9510   2.710   2.973   1.301
 2377ETH      C 9511   2.818   2.832   1.138
 2377ETH      C 9512   2.833   2.945   1.239
 2377ETH      H 9513   2.784   2.739   1.190
 2378ETH      O 9514   3.153   7.249   0.980
 2378ETH      C 9515   3.101   7.313   0.754
 2378ETH      C 9516   3.202   7.249   0.849
 2378ETH      H 9517   3.006   7.254   0.755
 2379ETH      O 9518   6.257   1.632   3.570
 2379ETH      C 9519   6.240   1.467   3.397
 2379ETH      C 9520   6.330   1.536   3.498
 2379ETH      H 9521   6.157   1.414   3.449
 2380ETH      O 9522   2.165   0.578   1.448
 2380ETH      C 9523   2.216   0.549   1.681
 2380ETH      C 9524   2.162   0.486   1.554
 2380ETH      H 9525   2.322   0.580   1.666
 2381ETH      O 9526   0.743   5.034   3.100
 2381ETH      C 9527   0.876   4.906   2.946
 2381ETH      C 9528   0.827   5.044   2.988
 2381ETH      H 9529   0.935   4.859   3.028
 2382ETH      O 9530   6.730   3.104   7.819
 2382ETH      C 9531   6.553   2.945   7.852
 2382ETH      C 9532   6.678   3.011   7.910
 2382ETH      H 9533   6.475   3.022   7.833
 2383ETH      O 9534   3.448   6.105   1.376
 2383ETH      C 9535   3.330   6.164   1.175
 2383ETH      C 9536   3.405   6.213   1.298
 2383ETH      H 9537   3.397   6.101   1.112
 2384ETH      O 9538   5.299   1.672   4.709
 2384ETH      C 9539   5.354   1.606   4.485
 2384ETH      C 9540   5.292   1.711   4.575
 2384ETH      H 9541   5.462   1.593   4.510
 2385ETH      O 9542   0.572   0.382   7.042
 2385ETH      C 9543   0.794   0.302   6.997
 2385ETH      C 9544   0.646   0.291   6.964
 2385ETH      H 9545   0.831   0.404   6.974
 2386ETH      O 9546   6.603   3.415   4.305
 2386ETH      C 9547   6.541   3.566   4.481
 2386ETH      C 9548   6.634   3.539   4.364
 2386ETH      H 9549   6.435   3.571   4.446
 2387ETH      O 9550   4.457   3.286   3.999
 2387ETH      C 9551   4.671   3.370   3.928
 2387ETH      C 9552   4.528   3.337   3.889
 2387ETH      H 9553   4.672   3.448   4.007
 2388ETH      O 9554   3.866   3.048   3.277
 2388ETH      C 9555   3.959   2.840   3.199
 2388ETH      C 9556   3.932   2.987   3.169
 2388ETH      H 9557   4.025   2.831   3.288
 2389ETH      O 9558   4.993   1.874   4.538
 2389ETH      C 9559   5.144   2.035   4.631
 2389ETH      C 9560   5.033   1.935   4.658
 2389ETH      H 9561   5.233   1.983   4.588
 2390ETH      O 9562   0.369   1.714   4.183
 2390ETH      C 9563   0.537   1.809   4.326
 2390ETH      C 9564   0.436   1.697   4.305
 2390ETH      H 9565   0.614   1.808   4.245
 2391ETH      O 9566   6.907   0.115   1.640
 2391ETH      C 9567   6.778   0.317   1.636
 2391ETH      C 9568   6.856   0.214   1.556
 2391ETH      H 9569   6.692   0.269   1.687
 2392ETH      O 9570   5.034   2.455   4.459
 2392ETH      C 9571   5.220   2.595   4.520
 2392ETH      C 9572   5.109   2.567   4.420
 2392ETH      H 9573   5.176   2.617   4.620
 2393ETH      O 9574   0.286   3.692   1.875
 2393ETH      C 9575   0.295   3.728   1.637
 2393ETH      C 9576   0.284   3.791   1.776
 2393ETH      H 9577   0.391   3.673   1.628
 2394ETH      O 9578   4.314   1.235   6.478
 2394ETH      C 9579   4.501   1.228   6.628
 2394ETH      C 9580   4.360   1.277   6.604
 2394ETH      H 9581   4.503   1.116   6.628
 2395ETH      O 9582   2.760   3.667   0.956
 2395ETH      C 9583   2.657   3.809   0.791
 2395ETH      C 9584   2.714   3.797   0.932
 2395ETH      H 9585   2.736   3.787   0.716
 2396ETH      O 9586   2.644   6.651   0.980
 2396ETH      C 9587   2.409   6.599   0.988
 2396ETH      C 9588   2.519   6.685   0.927
 2396ETH      H 9589   2.428   6.491   0.965
 2397ETH      O 9590   3.417   3.588   3.131
 2397ETH      C 9591   3.450   3.594   2.894
 2397ETH      C 9592   3.501   3.637   3.031
 2397ETH      H 9593   3.450   3.483   2.886
 2398ETH      O 9594   0.531   1.433   5.636
 2398ETH      C 9595   0.469   1.664   5.623
 2398ETH      C 9596   0.465   1.528   5.557
 2398ETH      H 9597   0.416   1.660   5.722
 2399ETH      O 9598   1.402   5.535   1.956
 2399ETH      C 9599   1.491   5.562   2.178
 2399ETH      C 9600   1.368   5.537   2.092
 2399ETH      H 9601   1.565   5.480   2.163
 2400ETH      O 9602   6.123   0.931   0.682
 2400ETH      C 9603   5.898   0.937   0.765
 2400ETH      C 9604   6.000   0.863   0.680
 2400ETH      H 9605   5.932   0.941   0.871
 2401ETH      O 9606   3.575   6.765   1.368
 2401ETH      C 9607   3.536   6.812   1.601
 2401ETH      C 9608   3.580   6.866   1.465
 2401ETH      H 9609   3.431   6.776   1.595
 2402ETH      O 9610   3.637   5.221   2.835
 2402ETH      C 9611   3.462   5.281   2.987
 2402ETH      C 9612   3.595   5.319   2.925
 2402ETH      H 9613   3.384   5.272   2.908
 2403ETH      O 9614   3.344   3.259   0.304
 2403ETH      C 9615   3.529   3.404   0.354
 2403ETH      C 9616   3.416   3.317   0.409
 2403ETH      H 9617   3.600   3.341   0.295
 2404ETH      O 9618   2.597   0.316   2.288
 2404ETH      C 9619   2.620   0.517   2.158
 2404ETH      C 9620   2.549   0.447   2.273
 2404ETH      H 9621   2.729   0.524   2.179
 2405ETH      O 9622   5.047   2.599   5.827
 2405ETH      C 9623   5.006   2.652   6.057
 2405ETH      C 9624   5.021   2.705   5.915
 2405ETH      H 9625   4.920   2.582   6.063
 2406ETH      O 9626   7.084   4.476   0.389
 2406ETH      C 9627   7.122   4.689   0.494
 2406ETH      C 9628   7.167   4.544   0.480
 2406ETH      H 9629   7.130   4.741   0.396
 2407ETH      O 9630   7.271   4.622   1.812
 2407ETH      C 9631   7.257   4.636   1.573
 2407ETH      C 9632   7.284   4.709   1.703
 2407ETH      H 9633   7.332   4.554   1.559
 2408ETH      O 9634   1.836   0.940   2.576
 2408ETH      C 9635   1.921   1.000   2.360
 2408ETH      C 9636   1.799   0.982   2.448
 2408ETH      H 9637   1.988   1.078   2.403
 2409ETH      O 9638   3.204   7.380   3.312
 2409ETH      C 9639   3.301   7.203   3.441
 2409ETH      C 9640   3.182   7.294   3.421
 2409ETH      H 9641   3.317   7.140   3.351
 2410ETH      O 9642   0.881   5.012   5.397
 2410ETH      C 9643   1.032   4.875   5.523
 2410ETH      C 9644   0.907   4.960   5.525
 2410ETH      H 9645   1.019   4.788   5.455
 2411ETH      O 9646   0.910   3.396   7.909
 2411ETH      C 9647   0.952   3.604   7.797
 2411ETH      C 9648   0.971   3.521   7.923
 2411ETH      H 9649   1.000   3.553   7.710
 2412ETH      O 9650   4.938   7.724   6.464
 2412ETH      C 9651   5.177   7.719   6.442
 2412ETH      C 9652   5.048   7.638   6.449
 2412ETH      H 9653   5.175   7.787   6.354
 2413ETH      O 9654   1.120   0.169   6.710
 2413ETH      C 9655   1.086   0.168   6.472
 2413ETH      C 9656   1.043   0.225   6.606
 2413ETH      H 9657   1.193   0.193   6.452
 2414ETH      O 9658   6.276   4.571   0.510
 2414ETH      C 9659   6.060   4.526   0.606
 2414ETH      C 9660   6.147   4.624   0.528
 2414ETH      H 9661   6.050   4.431   0.548
 2415ETH      O 9662   1.769   5.641   6.598
 2415ETH      C 9663   1.591   5.667   6.757
 2415ETH      C 9664   1.635   5.608   6.624
 2415ETH      H 9665   1.653   5.625   6.840
 2416ETH      O 9666   4.460   7.652   2.009
 2416ETH      C 9667   4.512   7.785   1.816
 2416ETH      C 9668   4.546   7.752   1.960
 2416ETH      H 9669   4.525   7.694   1.752
 2417ETH      O 9670   5.346   7.396   6.157
 2417ETH      C 9671   5.219   7.354   6.356
 2417ETH      C 9672   5.247   7.449   6.241
 2417ETH      H 9673   5.181   7.256   6.317
 2418ETH      O 9674   7.178   3.034   4.633
 2418ETH      C 9675   7.026   3.007   4.450
 2418ETH      C 9676   7.115   3.102   4.528
 2418ETH      H 9677   7.086   2.925   4.405
 2419ETH      O 9678   1.962   1.468   6.182
 2419ETH      C 9679   1.956   1.473   6.422
 2419ETH      C 9680   2.038   1.498   6.297
 2419ETH      H 9681   1.866   1.540   6.423
 2420ETH      O 9682   5.449   5.330   1.081
 2420ETH      C 9683   5.555   5.140   1.183
 2420ETH      C 9684   5.573   5.269   1.104
 2420ETH      H 9685   5.509   5.162   1.283
 2421ETH      O 9686   3.813   2.720   0.283
 2421ETH      C 9687   3.837   2.762   0.048
 2421ETH      C 9688   3.815   2.821   0.186
 2421ETH      H 9689   3.935   2.709   0.044
 2422ETH      O 9690   0.793   4.346   5.207
 2422ETH      C 9691   0.658   4.306   5.401
 2422ETH      C 9692   0.764   4.393   5.336
 2422ETH      H 9693   0.564   4.310   5.342
 2423ETH      O 9694   7.219   0.028   7.024
 2423ETH      C 9695   7.333   0.093   6.822
 2423ETH      C 9696   7.212   0.114   6.913
 2423ETH      H 9697   7.427   0.117   6.878
 2424ETH      O 9698   5.000   0.123   3.476
 2424ETH      C 9699   4.965   0.153   3.712
 2424ETH      C 9700   4.906   0.109   3.579
 2424ETH      H 9701   5.053   0.089   3.738
 2425ETH      O 9702   2.408   0.271   2.689
 2425ETH      C 9703   2.593   0.290   2.841
 2425ETH      C 9704   2.516   0.201   2.744
 2425ETH      H 9705   2.635   0.378   2.787
 2426ETH      O 9706   1.622   1.382   4.709
 2426ETH      C 9707   1.691   1.325   4.932
 2426ETH      C 9708   1.701   1.293   4.784
 2426ETH      H 9709   1.728   1.429   4.952
 2427ETH      O 9710   6.541   1.051   2.392
 2427ETH      C 9711   6.451   0.896   2.232
 2427ETH      C 9712   6.574   0.968   2.284
 2427ETH      H 9713   6.409   0.831   2.312
 2428ETH      O 9714   0.280   3.238   2.305
 2428ETH      C 9715   0.292   3.379   2.110
 2428ETH      C 9716   0.364   3.280   2.201
 2428ETH      H 9717   0.203   3.330   2.064
 2429ETH      O 9718   2.260   4.284   7.304
 2429ETH      C 9719   2.329   4.057   7.268
 2429ETH      C 9720   2.364   4.204   7.253
 2429ETH      H 9721   2.317   4.031   7.376
 2430ETH      O 9722   2.868   6.062   6.950
 2430ETH      C 9723   2.789   6.100   6.727
 2430ETH      C 9724   2.755   6.093   6.875
 2430ETH      H 9725   2.864   6.181   6.709
 2431ETH      O 9726   6.678   4.995   4.365
 2431ETH      C 9727   6.567   5.204   4.322
 2431ETH      C 9728   6.552   5.056   4.355
 2431ETH      H 9729   6.623   5.256   4.403
 2432ETH      O 9730   1.557   6.459   3.508
 2432ETH      C 9731   1.667   6.417   3.299
 2432ETH      C 9732   1.622   6.360   3.432
 2432ETH      H 9733   1.579   6.452   3.240
 2433ETH      O 9734   5.538   3.189   1.973
 2433ETH      C 9735   5.392   3.005   1.926
 2433ETH      C 9736   5.477   3.117   1.870
 2433ETH      H 9737   5.456   2.934   1.983
 2434ETH      O 9738   1.753   1.998   3.934
 2434ETH      C 9739   1.991   2.031   3.938
 2434ETH      C 9740   1.857   2.062   4.003
 2434ETH      H 9741   2.010   1.921   3.941
 2435ETH      O 9742   7.453   4.725   3.772
 2435ETH      C 9743   7.432   4.490   3.728
 2435ETH      C 9744   7.367   4.615   3.784
 2435ETH      H 9745   7.454   4.503   3.619
 2436ETH      O 9746   7.782   1.163   3.319
 2436ETH      C 9747   7.860   1.018   3.144
 2436ETH      C 9748   7.859   1.158   3.202
 2436ETH      H 9749   7.905   0.947   3.217
 2437ETH      O 9750   3.268   0.437   2.699
 2437ETH      C 9751   3.400   0.567   2.852
 2437ETH      C 9752   3.275   0.561   2.766
 2437ETH      H 9753   3.397   0.487   2.930
 2438ETH      O 9754   5.391   1.480   2.381
 2438ETH      C 9755   5.394   1.679   2.516
 2438ETH      C 9756   5.467   1.593   2.414
 2438ETH      H 9757   5.297   1.714   2.473
 2439ETH      O 9758   3.194   6.880   4.271
 2439ETH      C 9759   3.302   6.781   4.461
 2439ETH      C 9760   3.171   6.807   4.388
 2439ETH      H 9761   3.370   6.721   4.397
 2440ETH      O 9762   6.489   2.619   0.708
 2440ETH      C 9763   6.490   2.406   0.597
 2440ETH      C 9764   6.423   2.496   0.700
 2440ETH      H 9765   6.485   2.454   0.496
 2441ETH      O 9766   3.124   4.981   4.316
 2441ETH      C 9767   3.160   4.985   4.554
 2441ETH      C 9768   3.194   4.919   4.421
 2441ETH      H 9769   3.191   5.092   4.552
 2442ETH      O 9770   6.017   6.942   1.422
 2442ETH      C 9771   6.073   6.966   1.654
 2442ETH      C 9772   5.963   6.941   1.551
 2442ETH      H 9773   6.149   6.885   1.649
 2443ETH      O 9774   2.004   3.032   3.712
 2443ETH      C 9775   1.947   3.085   3.485
 2443ETH      C 9776   2.038   3.007   3.579
 2443ETH      H 9777   1.841   3.052   3.500
 2444ETH      O 9778   1.543   4.582   1.635
 2444ETH      C 9779   1.718   4.431   1.571
 2444ETH      C 9780   1.632   4.550   1.532
 2444ETH      H 9781   1.779   4.456   1.661
 2445ETH      O 9782   2.364   3.204   2.159
 2445ETH      C 9783   2.310   3.165   1.928
 2445ETH      C 9784   2.292   3.121   2.073
 2445ETH      H 9785   2.271   3.268   1.915
 2446ETH      O 9786   0.215   4.041   5.098
 2446ETH      C 9787   0.183   3.807   5.144
 2446ETH      C 9788   0.257   3.935   5.180
 2446ETH      H 9789   0.074   3.820   5.160
 2447ETH      O 9790   6.150   3.142   3.880
 2447ETH      C 9791   5.927   3.107   3.800
 2447ETH      C 9792   6.021   3.196   3.880
 2447ETH      H 9793   5.960   3.102   3.694
 2448ETH      O 9794   4.311   5.072   6.608
 2448ETH      C 9795   4.392   4.863   6.694
 2448ETH      C 9796   4.358   5.008   6.723
 2448ETH      H 9797   4.301   4.808   6.659
 2449ETH      O 9798   2.723   2.379   5.850
 2449ETH      C 9799   2.498   2.365   5.768
 2449ETH      C 9800   2.633   2.434   5.758
 2449ETH      H 9801   2.509   2.257   5.744
 2450ETH      O 9802   0.996   4.894   7.784
 2450ETH      C 9803   1.084   4.729   7.633
 2450ETH      C 9804   1.095   4.795   7.770
 2450ETH      H 9805   0.985   4.679   7.622
 2451ETH      O 9806   1.214   6.621   3.883
 2451ETH      C 9807   1.225   6.596   3.644
 2451ETH      C 9808   1.261   6.538   3.780
 2451ETH      H 9809   1.114   6.604   3.634
 2452ETH      O 9810   1.899   1.689   2.068
 2452ETH      C 9811   1.980   1.859   2.217
 2452ETH      C 9812   1.897   1.827   2.094
 2452ETH      H 9813   1.938   1.807   2.306
 2453ETH      O 9814   4.215   7.474   5.833
 2453ETH      C 9815   4.412   7.481   5.970
 2453ETH      C 9816   4.353   7.500   5.832
 2453ETH      H 9817   4.365   7.552   6.042
 2454ETH      O 9818   7.626   2.671   7.582
 2454ETH      C 9819   7.703   2.554   7.777
 2454ETH      C 9820   7.671   2.689   7.713
 2454ETH      H 9821   7.611   2.492   7.782
 2455ETH      O 9822   5.771   2.260   1.355
 2455ETH      C 9823   5.631   2.214   1.545
 2455ETH      C 9824   5.690   2.162   1.414
 2455ETH      H 9825   5.713   2.238   1.616
 2456ETH      O 9826   6.436   1.475   5.902
 2456ETH      C 9827   6.446   1.507   6.140
 2456ETH      C 9828   6.482   1.561   6.003
 2456ETH      H 9829   6.335   1.500   6.150
 2457ETH      O 9830   7.771   5.402   1.249
 2457ETH      C 9831   7.744   5.446   1.484
 2457ETH      C 9832   7.756   5.504   1.344
 2457ETH      H 9833   7.654   5.381   1.490
 2458ETH      O 9834   1.489   3.840   6.992
 2458ETH      C 9835   1.305   3.928   6.866
 2458ETH      C 9836   1.426   3.959   6.953
 2458ETH      H 9837   1.336   3.875   6.773
 2459ETH      O 9838   0.843   3.820   3.196
 2459ETH      C 9839   0.688   4.003   3.190
 2459ETH      C 9840   0.714   3.859   3.232
 2459ETH      H 9841   0.759   4.071   3.242
 2460ETH      O 9842   2.113   7.898   1.989
 2460ETH      C 9843   2.115   7.743   1.806
 2460ETH      C 9844   2.090   7.885   1.851
 2460ETH      H 9845   2.221   7.715   1.824
 2461ETH      O 9846   6.139   4.365   4.106
 2461ETH      C 9847   6.119   4.317   3.872
 2461ETH      C 9848   6.206   4.310   3.996
 2461ETH      H 9849   6.026   4.258   3.887
 2462ETH      O 9850   5.527   2.276   0.499
 2462ETH      C 9851   5.569   2.499   0.421
 2462ETH      C 9852   5.474   2.380   0.423
 2462ETH      H 9853   5.584   2.537   0.524
 2463ETH      O 9854   4.596   5.091   4.276
 2463ETH      C 9855   4.600   5.024   4.045
 2463ETH      C 9856   4.571   4.984   4.189
 2463ETH      H 9857   4.533   5.108   4.015
 2464ETH      O 9858   3.224   4.485   6.929
 2464ETH      C 9859   3.053   4.652   6.906
 2464ETH      C 9860   3.201   4.623   6.922
 2464ETH      H 9861   3.015   4.607   6.811
 2465ETH      O 9862   4.424   4.318   6.335
 2465ETH      C 9863   4.422   4.331   6.575
 2465ETH      C 9864   4.349   4.363   6.446
 2465ETH      H 9865   4.434   4.221   6.586
 2466ETH      O 9866   5.932   0.483   3.437
 2466ETH      C 9867   5.837   0.410   3.229
 2466ETH      C 9868   5.945   0.491   3.298
 2466ETH      H 9869   5.846   0.302   3.257
 2467ETH      O 9870   0.795   4.364   0.939
 2467ETH      C 9871   0.800   4.510   0.748
 2467ETH      C 9872   0.754   4.489   0.891
 2467ETH      H 9873   0.912   4.507   0.743
 2468ETH      O 9874   4.137   6.430   5.422
 2468ETH      C 9875   4.190   6.600   5.583
 2468ETH      C 9876   4.232   6.469   5.518
 2468ETH      H 9877   4.185   6.680   5.506
 2469ETH      O 9878   2.574   3.950   2.603
 2469ETH      C 9879   2.636   3.981   2.373
 2469ETH      C 9880   2.613   4.046   2.508
 2469ETH      H 9881   2.718   3.906   2.380
 2470ETH      O 9882   0.533   1.320   5.397
 2470ETH      C 9883   0.301   1.260   5.398
 2470ETH      C 9884   0.403   1.371   5.386
 2470ETH      H 9885   0.315   1.186   5.315
 2471ETH      O 9886   6.444   3.984   4.014
 2471ETH      C 9887   6.451   4.029   3.778
 2471ETH      C 9888   6.513   4.055   3.914
 2471ETH      H 9889   6.458   3.920   3.753
 2472ETH      O 9890   2.113   6.026   2.663
 2472ETH      C 9891   2.046   5.797   2.687
 2472ETH      C 9892   2.073   5.929   2.756
 2472ETH      H 9893   1.963   5.809   2.613
 2473ETH      O 9894   5.010   2.129   7.980
 2473ETH      C 9895   4.898   2.075   7.774
 2473ETH      C 9896   4.965   2.023   7.901
 2473ETH      H 9897   4.810   2.137   7.801
 2474ETH      O 9898   3.967   5.099   2.606
 2474ETH      C 9899   4.098   5.004   2.783
 2474ETH      C 9900   4.073   5.012   2.633
 2474ETH      H 9901   4.127   5.105   2.821
 2475ETH      O 9902   2.878   2.282   7.326
 2475ETH      C 9903   2.925   2.512   7.378
 2475ETH      C 9904   2.928   2.367   7.425
 2475ETH      H 9905   2.990   2.523   7.288
 2476ETH      O 9906   0.436   1.305   6.668
 2476ETH      C 9907   0.509   1.211   6.459
 2476ETH      C 9908   0.545   1.245   6.603
 2476ETH      H 9909   0.425   1.139   6.457
 2477ETH      O 9910   0.230   1.502   1.680
 2477ETH      C 9911   0.267   1.737   1.712
 2477ETH      C 9912   0.268   1.598   1.775
 2477ETH      H 9913   0.341   1.741   1.629
 2478ETH      O 9914   3.387   6.403   6.937
 2478ETH      C 9915   3.406   6.353   7.171
 2478ETH      C 9916   3.433   6.307   7.028
 2478ETH      H 9917   3.460   6.448   7.191
 2479ETH      O 9918   4.373   3.337   7.290
 2479ETH      C 9919   4.590   3.427   7.241
 2479ETH      C 9920   4.453   3.390   7.188
 2479ETH      H 9921   4.580   3.505   7.320
 2480ETH      O 9922   7.128   1.657   6.911
 2480ETH      C 9923   7.260   1.617   7.108
 2480ETH      C 9924   7.245   1.695   6.978
 2480ETH      H 9925   7.174   1.639   7.175
 2481ETH      O 9926   4.528   1.340   1.914
 2481ETH      C 9927   4.352   1.484   1.836
 2481ETH      C 9928   4.391   1.345   1.885
 2481ETH      H 9929   4.373   1.559   1.915
 2482ETH      O 9930   1.691   4.858   7.345
 2482ETH      C 9931   1.483   4.790   7.443
 2482ETH      C 9932   1.559   4.821   7.315
 2482ETH      H 9933   1.530   4.704   7.495
 2483ETH      O 9934   5.874   4.933   5.067
 2483ETH      C 9935   5.912   4.927   5.304
 2483ETH      C 9936   5.974   4.929   5.165
 2483ETH      H 9937   5.853   5.020   5.320
 2484ETH      O 9938   0.131   4.555   4.950
 2484ETH      C 9939   0.133   4.407   5.139
 2484ETH      C 9940   0.179   4.432   4.996
 2484ETH      H 9941   0.174   4.486   5.206
 2485ETH      O 9942   7.001   1.314   0.093
 2485ETH      C 9943   6.990   1.308   0.333
 2485ETH      C 9944   7.076   1.332   0.210
 2485ETH      H 9945   6.906   1.381   0.336
 2486ETH      O 9946   1.286   7.626   1.941
 2486ETH      C 9947   1.264   7.847   2.031
 2486ETH      C 9948   1.207   7.741   1.938
 2486ETH      H 9949   1.266   7.809   2.136
 2487ETH      O 9950   3.721   3.269   7.349
 2487ETH      C 9951   3.760   3.210   7.579
 2487ETH      C 9952   3.751   3.162   7.435
 2487ETH      H 9953   3.842   3.285   7.589
 2488ETH      O 9954   3.457   3.346   6.375
 2488ETH      C 9955   3.366   3.279   6.587
 2488ETH      C 9956   3.452   3.241   6.467
 2488ETH      H 9957   3.409   3.367   6.638
 2489ETH      O 9958   0.191   5.671   6.793
 2489ETH      C 9959   0.164   5.766   6.574
 2489ETH      C 9960   0.130   5.775   6.722
 2489ETH      H 9961   0.274   5.776   6.560
 2490ETH      O 9962   1.215   2.229   2.430
 2490ETH      C 9963   1.233   2.454   2.349
 2490ETH      C 9964   1.196   2.310   2.318
 2490ETH      H 9965   1.168   2.494   2.430
 2491ETH      O 9966   6.783   5.785   6.757
 2491ETH      C 9967   6.607   5.880   6.890
 2491ETH      C 9968   6.749   5.894   6.839
 2491ETH      H 9969   6.535   5.878   6.805
 2492ETH      O 9970   3.629   4.850   0.702
 2492ETH      C 9971   3.826   4.976   0.646
 2492ETH      C 9972   3.694   4.973   0.722
 2492ETH      H 9973   3.894   4.896   0.684
 2493ETH      O 9974   7.500   2.202   7.687
 2493ETH      C 9975   7.562   2.248   7.915
 2493ETH      C 9976   7.601   2.184   7.783
 2493ETH      H 9977   7.548   2.358   7.901
 2494ETH      O 9978   4.912   4.940   1.846
 2494ETH      C 9979   4.990   5.104   2.003
 2494ETH      C 9980   4.947   4.960   1.980
 2494ETH      H 9981   5.079   5.128   1.941
 2495ETH      O 9982   0.765   0.124   2.315
 2495ETH      C 9983   0.952   0.235   2.213
 2495ETH      C 9984   0.866   0.218   2.337
 2495ETH      H 9985   1.002   0.138   2.189
 2496ETH      O 9986   5.948   2.042   7.535
 2496ETH      C 9987   5.889   1.883   7.705
 2496ETH      C 9988   5.899   2.029   7.666
 2496ETH      H 9989   5.818   1.830   7.637
 2497ETH      O 9990   6.495   4.016   5.072
 2497ETH      C 9991   6.718   4.100   5.045
 2497ETH      C 9992   6.616   4.038   5.139
 2497ETH      H 9993   6.739   4.031   4.960
 2498ETH      O 9994   1.362   0.345   1.332
 2498ETH      C 9995   1.447   0.126   1.286
 2498ETH      C 9996   1.457   0.275   1.257
 2498ETH      H 9997   1.469   0.107   1.394
 2499ETH      O 9998   0.050   5.387   3.695
 2499ETH      C 9999   0.203   5.331   3.871
 2499ETH      C10000   0.136   5.287   3.742
 2499ETH      H10001   0.264   5.422   3.853
 2500ETH      O10002   4.013   7.510   1.589
 2500ETH      C10003   4.188   7.664   1.529
 2500ETH      C10004   4.103   7.544   1.487
 2500ETH      H10005   4.122   7.752   1.548
 2501ETH      O10006   5.679   2.489   7.993
 2501ETH      C10007   5.737   2.490   7.760
 2501ETH      C10008   5.780   2.457   7.902
 2501ETH      H10009   5.647   2.429   7.733
 2502ETH      O10010   6.100   3.073   4.466
 2502ETH      C10011   6.127   2.882   4.323
 2502ETH      C10012   6.041   3.001   4.362
 2502ETH      H10013   6.227   2.917   4.287
 2503ETH      O10014   4.144   3.251   2.434
 2503ETH      C10015   4.278   3.117   2.580
 2503ETH      C10016   4.193   3.242   2.564
 2503ETH      H10017   4.216   3.026   2.561
 2504ETH      O10018   2.844   3.537   1.243
 2504ETH      C10019   2.968   3.411   1.080
 2504ETH      C10020   2.902   3.412   1.218
 2504ETH      H10021   2.891   3.429   1.001
 2505ETH      O10022   4.733   1.271   5.274
 2505ETH      C10023   4.678   1.178   5.489
 2505ETH      C10024   4.708   1.151   5.342
 2505ETH      H10025   4.767   1.226   5.537
 2506ETH      O10026   0.298   5.559   4.708
 2506ETH      C10027   0.496   5.552   4.572
 2506ETH      C10028   0.437   5.580   4.709
 2506ETH      H10029   0.479   5.446   4.544
 2507ETH      O10030   7.095   2.119   2.599
 2507ETH      C10031   7.061   2.108   2.836
 2507ETH      C10032   7.063   2.032   2.704
 2507ETH      H10033   7.161   2.151   2.857
 2508ETH      O10034   0.597   0.914   1.143
 2508ETH      C10035   0.391   0.910   1.021
 2508ETH      C10036   0.495   0.995   1.093
 2508ETH      H10037   0.438   0.857   0.935
 2509ETH      O10038   3.001   5.508   4.561
 2509ETH      C10039   3.032   5.344   4.389
 2509ETH      C10040   2.956   5.467   4.435
 2509ETH      H10041   3.141   5.368   4.380
 2510ETH      O10042   2.282   0.321   7.784
 2510ETH      C10043   2.258   0.123   7.918
 2510ETH      C10044   2.340   0.247   7.888
 2510ETH      H10045   2.155   0.153   7.951
 2511ETH      O10046   5.975   5.007   7.197
 2511ETH      C10047   6.102   4.939   7.390
 2511ETH      C10048   6.102   5.013   7.257
 2511ETH      H10049   6.029   4.987   7.460
 2512ETH      O10050   6.104   7.425   2.720
 2512ETH      C10051   6.064   7.278   2.535
 2512ETH      C10052   6.166   7.357   2.614
 2512ETH      H10053   6.016   7.201   2.600
 2513ETH      O10054   6.901   3.928   1.838
 2513ETH      C10055   7.094   3.855   1.715
 2513ETH      C10056   7.037   3.897   1.849
 2513ETH      H10057   7.041   3.764   1.678
 2514ETH      O10058   0.089   1.306   4.305
 2514ETH      C10059  -0.004   1.314   4.527
 2514ETH      C10060  -0.031   1.317   4.377
 2514ETH      H10061   0.044   1.218   4.555
 2515ETH      O10062   1.846   4.765   3.926
 2515ETH      C10063   1.646   4.758   3.795
 2515ETH      C10064   1.707   4.772   3.934
 2515ETH      H10065   1.680   4.841   3.729
 2516ETH      O10066   0.422   5.717   5.250
 2516ETH      C10067   0.661   5.696   5.229
 2516ETH      C10068   0.532   5.751   5.170
 2516ETH      H10069   0.678   5.740   5.330
 2517ETH      O10070   0.192   4.736   6.621
 2517ETH      C10071   0.051   4.772   6.812
 2517ETH      C10072   0.069   4.702   6.679
 2517ETH      H10073   0.131   4.740   6.883
 2518ETH      O10074   0.607   7.292   0.307
 2518ETH      C10075   0.647   7.321   0.542
 2518ETH      C10076   0.544   7.318   0.430
 2518ETH      H10077   0.698   7.222   0.550
 2519ETH      O10078   5.371   3.154   6.958
 2519ETH      C10079   5.407   3.248   7.176
 2519ETH      C10080   5.433   3.260   7.027
 2519ETH      H10081   5.297   3.255   7.196
 2520ETH      O10082   1.600   3.746   0.227
 2520ETH      C10083   1.485   3.820   0.029
 2520ETH      C10084   1.478   3.737   0.157
 2520ETH      H10085   1.502   3.927   0.054
 2521ETH      O10086   1.598   5.272   3.050
 2521ETH      C10087   1.622   5.150   3.256
 2521ETH      C10088   1.595   5.284   3.190
 2521ETH      H10089   1.543   5.076   3.226
 2522ETH      O10090   6.779   4.436   0.830
 2522ETH      C10091   6.580   4.557   0.889
 2522ETH      C10092   6.687   4.458   0.933
 2522ETH      H10093   6.627   4.655   0.864
 2523ETH      O10094   6.961   2.090   1.528
 2523ETH      C10095   6.944   2.008   1.302
 2523ETH      C10096   6.961   1.973   1.450
 2523ETH      H10097   6.847   2.059   1.286
 2524ETH      O10098   1.114   4.412   7.530
 2524ETH      C10099   1.243   4.571   7.406
 2524ETH      C10100   1.111   4.540   7.475
 2524ETH      H10101   1.326   4.568   7.481
 2525ETH      O10102   0.376   1.942   7.515
 2525ETH      C10103   0.371   1.982   7.279
 2525ETH      C10104   0.350   2.039   7.418
 2525ETH      H10105   0.477   1.950   7.266
 2526ETH      O10106   6.878   4.636   3.248
 2526ETH      C10107   6.657   4.627   3.155
 2526ETH      C10108   6.742   4.621   3.280
 2526ETH      H10109   6.669   4.726   3.105
 2527ETH      O10110   5.545   7.174   5.804
 2527ETH      C10111   5.430   7.375   5.867
 2527ETH      C10112   5.558   7.313   5.814
 2527ETH      H10113   5.346   7.354   5.796
 2528ETH      O10114   0.658   3.619   7.038
 2528ETH      C10115   0.725   3.797   6.891
 2528ETH      C10116   0.744   3.652   6.932
 2528ETH      H10117   0.620   3.813   6.856
 2529ETH      O10118   4.047   6.438   4.176
 2529ETH      C10119   4.108   6.639   4.293
 2529ETH      C10120   4.053   6.497   4.303
 2529ETH      H10121   4.212   6.636   4.252
 2530ETH      O10122   0.141   6.593   0.591
 2530ETH      C10123   0.065   6.820   0.606
 2530ETH      C10124   0.136   6.704   0.675
 2530ETH      H10125   0.121   6.849   0.514
 2531ETH      O10126   0.874   2.145   2.232
 2531ETH      C10127   0.827   1.964   2.383
 2531ETH      C10128   0.771   2.077   2.298
 2531ETH      H10129   0.880   1.891   2.318
 2532ETH      O10130   5.591   6.217  -0.006
 2532ETH      C10131   5.642   6.239   0.227
 2532ETH      C10132   5.649   6.302   0.088
 2532ETH      H10133   5.535   6.224   0.256
 2533ETH      O10134   1.802   7.086   7.249
 2533ETH      C10135   1.579   7.170   7.219
 2533ETH      C10136   1.687   7.076   7.168
 2533ETH      H10137   1.549   7.142   7.323
 2534ETH      O10138   1.550   1.972   6.501
 2534ETH      C10139   1.322   1.922   6.558
 2534ETH      C10140   1.469   1.903   6.593
 2534ETH      H10141   1.295   2.030   6.564
 2535ETH      O10142   1.754   5.159   5.586
 2535ETH      C10143   1.833   4.980   5.725
 2535ETH      C10144   1.786   5.023   5.586
 2535ETH      H10145   1.925   5.036   5.753
 2536ETH      O10146   0.188   2.924   6.098
 2536ETH      C10147   0.237   3.147   6.026
 2536ETH      C10148   0.162   3.059   6.124
 2536ETH      H10149   0.347   3.131   6.037
 2537ETH      O10150   3.323   7.176   7.277
 2537ETH      C10151   3.089   7.181   7.221
 2537ETH      C10152   3.200   7.111   7.297
 2537ETH      H10153   3.078   7.286   7.258
 2538ETH      O10154   2.836   2.110   5.816
 2538ETH      C10155   2.760   2.119   5.589
 2538ETH      C10156   2.723   2.127   5.737
 2538ETH      H10157   2.831   2.201   5.564
 2539ETH      O10158   2.019   7.387   5.881
 2539ETH      C10159   2.197   7.310   6.022
 2539ETH      C10160   2.103   7.278   5.907
 2539ETH      H10161   2.261   7.397   5.996
 2540ETH      O10162   4.454   2.630   7.428
 2540ETH      C10163   4.499   2.827   7.297
 2540ETH      C10164   4.509   2.759   7.433
 2540ETH      H10165   4.557   2.769   7.222
 2541ETH      O10166   4.944   5.961   2.620
 2541ETH      C10167   4.940   6.093   2.419
 2541ETH      C10168   4.923   5.955   2.481
 2541ETH      H10169   4.865   6.163   2.461
 2542ETH      O10170   2.549   4.372   4.852
 2542ETH      C10171   2.598   4.328   5.083
 2542ETH      C10172   2.562   4.432   4.978
 2542ETH      H10173   2.517   4.252   5.090
 2543ETH      O10174   2.251   6.541   3.716
 2543ETH      C10175   2.047   6.648   3.647
 2543ETH      C10176   2.123   6.579   3.759
 2543ETH      H10177   2.101   6.741   3.616
 2544ETH      O10178   3.092   7.548   4.363
 2544ETH      C10179   2.920   7.485   4.208
 2544ETH      C10180   2.977   7.594   4.298
 2544ETH      H10181   2.995   7.457   4.130
 2545ETH      O10182   2.380   6.201   2.176
 2545ETH      C10183   2.357   6.273   1.948
 2545ETH      C10184   2.387   6.158   2.042
 2545ETH      H10185   2.254   6.311   1.965
 2546ETH      O10186   4.484   0.681   4.720
 2546ETH      C10187   4.594   0.607   4.920
 2546ETH      C10188   4.503   0.571   4.804
 2546ETH      H10189   4.694   0.638   4.882
 2547ETH      O10190   4.408   2.208   5.735
 2547ETH      C10191   4.386   2.399   5.879
 2547ETH      C10192   4.334   2.260   5.842
 2547ETH      H10193   4.492   2.392   5.912
 2548ETH      O10194   4.487   0.420   0.761
 2548ETH      C10195   4.417   0.490   0.980
 2548ETH      C10196   4.504   0.519   0.859
 2548ETH      H10197   4.309   0.490   0.951
 2549ETH      O10198   7.461   4.570   4.121
 2549ETH      C10199   7.615   4.736   4.201
 2549ETH      C10200   7.512   4.698   4.096
 2549ETH      H10201   7.568   4.737   4.302
 2550ETH      O10202   4.890   7.081   3.922
 2550ETH      C10203   4.749   6.888   3.894
 2550ETH      C10204   4.800   6.997   3.988
 2550ETH      H10205   4.694   6.935   3.809
 2551ETH      O10206   7.099   0.161   3.939
 2551ETH      C10207   7.232   0.337   3.841
 2551ETH      C10208   7.223   0.189   3.879
 2551ETH      H10209   7.152   0.362   3.767
 2552ETH      O10210   2.322   7.178   6.119
 2552ETH      C10211   2.150   7.033   6.203
 2552ETH      C10212   2.258   7.055   6.098
 2552ETH      H10213   2.196   7.031   6.305
 2553ETH      O10214   7.759   5.857   4.217
 2553ETH      C10215   7.867   5.647   4.175
 2553ETH      C10216   7.737   5.718   4.208
 2553ETH      H10217   7.905   5.681   4.076
 2554ETH      O10218   4.968   2.726   2.401
 2554ETH      C10219   4.859   2.737   2.187
 2554ETH      C10220   4.881   2.803   2.322
 2554ETH      H10221   4.956   2.729   2.132
 2555ETH      O10222   5.861   7.113   6.186
 2555ETH      C10223   5.631   7.082   6.128
 2555ETH      C10224   5.743   7.181   6.153
 2555ETH      H10225   5.657   7.015   6.042
 2556ETH      O10226   4.094   1.458   4.081
 2556ETH      C10227   4.036   1.435   4.313
 2556ETH      C10228   3.988   1.467   4.172
 2556ETH      H10229   4.075   1.331   4.317
 2557ETH      O10230   6.170   1.590   2.960
 2557ETH      C10231   6.356   1.536   2.818
 2557ETH      C10232   6.268   1.493   2.934
 2557ETH      H10233   6.294   1.546   2.725
 2558ETH      O10234   4.144   2.339   4.982
 2558ETH      C10235   4.061   2.416   4.770
 2558ETH      C10236   4.030   2.386   4.916
 2558ETH      H10237   4.139   2.496   4.764
 2559ETH      O10238   3.732   4.991   7.099
 2559ETH      C10239   3.853   4.793   7.159
 2559ETH      C10240   3.811   4.888   7.048
 2559ETH      H10241   3.914   4.847   7.235
 2560ETH      O10242   0.873   6.320   4.311
 2560ETH      C10243   0.818   6.371   4.082
 2560ETH      C10244   0.774   6.376   4.228
 2560ETH      H10245   0.911   6.431   4.069
 2561ETH      O10246   2.310   1.562   6.234
 2561ETH      C10247   2.497   1.412   6.244
 2561ETH      C10248   2.375   1.468   6.315
 2561ETH      H10249   2.466   1.360   6.151
 2562ETH      O10250   5.268   2.835   6.909
 2562ETH      C10251   5.403   2.662   6.812
 2562ETH      C10252   5.277   2.746   6.801
 2562ETH      H10253   5.493   2.727   6.809
 2563ETH      O10254   3.925   4.600   2.048
 2563ETH      C10255   3.876   4.507   2.264
 2563ETH      C10256   3.866   4.491   2.113
 2563ETH      H10257   3.983   4.510   2.295
 2564ETH      O10258   3.413   0.278   3.821
 2564ETH      C10259   3.381   0.394   3.613
 2564ETH      C10260   3.326   0.291   3.712
 2564ETH      H10261   3.389   0.493   3.662
 2565ETH      O10262   0.639   6.566   2.941
 2565ETH      C10263   0.650   6.656   3.163
 2565ETH      C10264   0.662   6.684   3.014
 2565ETH      H10265   0.547   6.621   3.188
 2566ETH      O10266   0.576   7.681   6.654
 2566ETH      C10267   0.525   7.802   6.854
 2566ETH      C10268   0.633   7.742   6.766
 2566ETH      H10269   0.468   7.880   6.798
 2567ETH      O10270   5.193   1.246   3.677
 2567ETH      C10271   5.239   1.384   3.868
 2567ETH      C10272   5.202   1.379   3.721
 2567ETH      H10273   5.161   1.334   3.929
 2568ETH      O10274   4.731   7.783   2.638
 2568ETH      C10275   4.827   7.922   2.809
 2568ETH      C10276   4.776   7.913   2.666
 2568ETH      H10277   4.745   7.899   2.881
   7.90000   7.90000   7.90000
