[ Oxygen ]
   1    5    9   13   17   21   25   29   33   37   41   45   49   53   57
  61   65   69   73   77   81   85   89   93   97  101  105  109  113  117
 121  125  129  133  137  141  145  149  153  157  161  165  169  173  177
 181  185  189  193  197  201  205  209  213  217  221  225  229  233  237
 241  245  249  253  257  261  265  269  273  277  281  285  289  293  297
 301  305  309  313  317  321  325  329  333  337  341  345  349  353  357
 361  365  369  373  377  381  385  389  393  397  401  405  409  413  417
 421  425  429  433  437  441  445  449  453  457  461  465  469  473  477
 481  485  489  493  497  501  505  509  513  517  521  525  529  533  537
 541  545  549  553  557  561  565  569  573  577  581  585  589  593  597
 601  605  609  613  617  621  625  629  633  637  641  645  649  653  657
 661  665  669  673  677  681  685  689  693  697  701  705  709  713  717
 721  725  729  733  737  741  745  749  753  757  761  765  769  773  777
 781  785  789  793  797  801  805  809  813  817  821  825  829  833  837
 841  845  849  853  857  861  865  869  873  877  881  885  889  893  897
 901  905  909  913  917  921  925  929  933  937  941  945  949  953  957
 961  965  969  973  977  981  985  989  993  997 1001 1005 1009 1013 1017
1021 1025 1029 1033 1037 1041 1045 1049 1053 1057 1061 1065 1069 1073 1077
1081 1085 1089 1093 1097 1101 1105 1109 1113 1117 1121 1125 1129 1133 1137
1141 1145 1149 1153 1157 1161 1165 1169 1173 1177 1181 1185 1189 1193 1197
1201 1205 1209 1213 1217 1221 1225 1229 1233 1237 1241 1245 1249 1253 1257
1261 1265 1269 1273 1277 1281 1285 1289 1293 1297 1301 1305 1309 1313 1317
1321 1325 1329 1333 1337 1341 1345 1349 1353 1357 1361 1365 1369 1373 1377
1381 1385 1389 1393 1397 1401 1405 1409 1413 1417 1421 1425 1429 1433 1437
1441 1445 1449 1453 1457 1461 1465 1469 1473 1477 1481 1485 1489 1493 1497
1501 1505 1509 1513 1517 1521 1525 1529 1533 1537 1541 1545 1549 1553 1557
1561 1565 1569 1573 1577 1581 1585 1589 1593 1597 1601 1605 1609 1613 1617
1621 1625 1629 1633 1637 1641 1645 1649 1653 1657 1661 1665 1669 1673 1677
1681 1685 1689 1693 1697 1701 1705 1709 1713 1717 1721 1725 1729 1733 1737
1741 1745 1749 1753 1757 1761 1765 1769 1773 1777 1781 1785 1789 1793 1797
1801 1805 1809 1813 1817 1821 1825 1829 1833 1837 1841 1845 1849 1853 1857
1861 1865 1869 1873 1877 1881 1885 1889 1893 1897 1901 1905 1909 1913 1917
1921 1925 1929 1933 1937 1941 1945 1949 1953 1957 1961 1965 1969 1973 1977
1981 1985 1989 1993 1997 2001 2005 2009 2013 2017 2021 2025 2029 2033 2037
2041 2045 2049 2053 2057 2061 2065 2069 2073 2077 2081 2085 2089 2093 2097
2101 2105 2109 2113 2117 2121 2125 2129 2133 2137 2141 2145 2149 2153 2157
2161 2165 2169 2173 2177 2181 2185 2189 2193 2197 2201 2205 2209 2213 2217
2221 2225 2229 2233 2237 2241 2245 2249 2253 2257 2261 2265 2269 2273 2277
2281 2285 2289 2293 2297 2301 2305 2309 2313 2317 2321 2325 2329 2333 2337
2341 2345 2349 2353 2357 2361 2365 2369 2373 2377 2381 2385 2389 2393 2397
2401 2405 2409 2413 2417 2421 2425 2429 2433 2437 2441 2445 2449 2453 2457
2461 2465 2469 2473 2477 2481 2485 2489 2493 2497 2501 2505 2509 2513 2517
2521 2525 2529 2533 2537 2541 2545 2549 2553 2557 2561 2565 2569 2573 2577
2581 2585 2589 2593 2597 2601 2605 2609 2613 2617 2621 2625 2629 2633 2637
2641 2645 2649 2653 2657 2661 2665 2669 2673 2677 2681 2685 2689 2693 2697
2701 2705 2709 2713 2717 2721 2725 2729 2733 2737 2741 2745 2749 2753 2757
2761 2765 2769 2773 2777 2781 2785 2789 2793 2797 2801 2805 2809 2813 2817
2821 2825 2829 2833 2837 2841 2845 2849 2853 2857 2861 2865 2869 2873 2877
2881 2885 2889 2893 2897 2901 2905 2909 2913 2917 2921 2925 2929 2933 2937
2941 2945 2949 2953 2957 2961 2965 2969 2973 2977 2981 2985 2989 2993 2997
3001 3005 3009 3013 3017 3021 3025 3029 3033 3037 3041 3045 3049 3053 3057
3061 3065 3069 3073 3077 3081 3085 3089 3093 3097 3101 3105 3109 3113 3117
3121 3125 3129 3133 3137 3141 3145 3149 3153 3157 3161 3165 3169 3173 3177
3181 3185 3189 3193 3197 3201 3205 3209 3213 3217 3221 3225 3229 3233 3237
3241 3245 3249 3253 3257 3261 3265 3269 3273 3277 3281 3285 3289 3293 3297
3301 3305 3309 3313 3317 3321 3325 3329 3333 3337 3341 3345 3349 3353 3357
3361 3365 3369 3373 3377 3381 3385 3389 3393 3397 3401 3405 3409 3413 3417
3421 3425 3429 3433 3437 3441 3445 3449 3453 3457 3461 3465 3469 3473 3477
3481 3485 3489 3493 3497 3501 3505 3509 3513 3517 3521 3525 3529 3533 3537
3541 3545 3549 3553 3557 3561 3565 3569 3573 3577 3581 3585 3589 3593 3597
[ Hydrogen ]
   2    3    6    7   10   11   14   15   18   19   22   23   26   27   30
  31   34   35   38   39   42   43   46   47   50   51   54   55   58   59
  62   63   66   67   70   71   74   75   78   79   82   83   86   87   90
  91   94   95   98   99  102  103  106  107  110  111  114  115  118  119
 122  123  126  127  130  131  134  135  138  139  142  143  146  147  150
 151  154  155  158  159  162  163  166  167  170  171  174  175  178  179
 182  183  186  187  190  191  194  195  198  199  202  203  206  207  210
 211  214  215  218  219  222  223  226  227  230  231  234  235  238  239
 242  243  246  247  250  251  254  255  258  259  262  263  266  267  270
 271  274  275  278  279  282  283  286  287  290  291  294  295  298  299
 302  303  306  307  310  311  314  315  318  319  322  323  326  327  330
 331  334  335  338  339  342  343  346  347  350  351  354  355  358  359
 362  363  366  367  370  371  374  375  378  379  382  383  386  387  390
 391  394  395  398  399  402  403  406  407  410  411  414  415  418  419
 422  423  426  427  430  431  434  435  438  439  442  443  446  447  450
 451  454  455  458  459  462  463  466  467  470  471  474  475  478  479
 482  483  486  487  490  491  494  495  498  499  502  503  506  507  510
 511  514  515  518  519  522  523  526  527  530  531  534  535  538  539
 542  543  546  547  550  551  554  555  558  559  562  563  566  567  570
 571  574  575  578  579  582  583  586  587  590  591  594  595  598  599
 602  603  606  607  610  611  614  615  618  619  622  623  626  627  630
 631  634  635  638  639  642  643  646  647  650  651  654  655  658  659
 662  663  666  667  670  671  674  675  678  679  682  683  686  687  690
 691  694  695  698  699  702  703  706  707  710  711  714  715  718  719
 722  723  726  727  730  731  734  735  738  739  742  743  746  747  750
 751  754  755  758  759  762  763  766  767  770  771  774  775  778  779
 782  783  786  787  790  791  794  795  798  799  802  803  806  807  810
 811  814  815  818  819  822  823  826  827  830  831  834  835  838  839
 842  843  846  847  850  851  854  855  858  859  862  863  866  867  870
 871  874  875  878  879  882  883  886  887  890  891  894  895  898  899
 902  903  906  907  910  911  914  915  918  919  922  923  926  927  930
 931  934  935  938  939  942  943  946  947  950  951  954  955  958  959
 962  963  966  967  970  971  974  975  978  979  982  983  986  987  990
 991  994  995  998  999 1002 1003 1006 1007 1010 1011 1014 1015 1018 1019
1022 1023 1026 1027 1030 1031 1034 1035 1038 1039 1042 1043 1046 1047 1050
1051 1054 1055 1058 1059 1062 1063 1066 1067 1070 1071 1074 1075 1078 1079
1082 1083 1086 1087 1090 1091 1094 1095 1098 1099 1102 1103 1106 1107 1110
1111 1114 1115 1118 1119 1122 1123 1126 1127 1130 1131 1134 1135 1138 1139
1142 1143 1146 1147 1150 1151 1154 1155 1158 1159 1162 1163 1166 1167 1170
1171 1174 1175 1178 1179 1182 1183 1186 1187 1190 1191 1194 1195 1198 1199
1202 1203 1206 1207 1210 1211 1214 1215 1218 1219 1222 1223 1226 1227 1230
1231 1234 1235 1238 1239 1242 1243 1246 1247 1250 1251 1254 1255 1258 1259
1262 1263 1266 1267 1270 1271 1274 1275 1278 1279 1282 1283 1286 1287 1290
1291 1294 1295 1298 1299 1302 1303 1306 1307 1310 1311 1314 1315 1318 1319
1322 1323 1326 1327 1330 1331 1334 1335 1338 1339 1342 1343 1346 1347 1350
1351 1354 1355 1358 1359 1362 1363 1366 1367 1370 1371 1374 1375 1378 1379
1382 1383 1386 1387 1390 1391 1394 1395 1398 1399 1402 1403 1406 1407 1410
1411 1414 1415 1418 1419 1422 1423 1426 1427 1430 1431 1434 1435 1438 1439
1442 1443 1446 1447 1450 1451 1454 1455 1458 1459 1462 1463 1466 1467 1470
1471 1474 1475 1478 1479 1482 1483 1486 1487 1490 1491 1494 1495 1498 1499
1502 1503 1506 1507 1510 1511 1514 1515 1518 1519 1522 1523 1526 1527 1530
1531 1534 1535 1538 1539 1542 1543 1546 1547 1550 1551 1554 1555 1558 1559
1562 1563 1566 1567 1570 1571 1574 1575 1578 1579 1582 1583 1586 1587 1590
1591 1594 1595 1598 1599 1602 1603 1606 1607 1610 1611 1614 1615 1618 1619
1622 1623 1626 1627 1630 1631 1634 1635 1638 1639 1642 1643 1646 1647 1650
1651 1654 1655 1658 1659 1662 1663 1666 1667 1670 1671 1674 1675 1678 1679
1682 1683 1686 1687 1690 1691 1694 1695 1698 1699 1702 1703 1706 1707 1710
1711 1714 1715 1718 1719 1722 1723 1726 1727 1730 1731 1734 1735 1738 1739
1742 1743 1746 1747 1750 1751 1754 1755 1758 1759 1762 1763 1766 1767 1770
1771 1774 1775 1778 1779 1782 1783 1786 1787 1790 1791 1794 1795 1798 1799
1802 1803 1806 1807 1810 1811 1814 1815 1818 1819 1822 1823 1826 1827 1830
1831 1834 1835 1838 1839 1842 1843 1846 1847 1850 1851 1854 1855 1858 1859
1862 1863 1866 1867 1870 1871 1874 1875 1878 1879 1882 1883 1886 1887 1890
1891 1894 1895 1898 1899 1902 1903 1906 1907 1910 1911 1914 1915 1918 1919
1922 1923 1926 1927 1930 1931 1934 1935 1938 1939 1942 1943 1946 1947 1950
1951 1954 1955 1958 1959 1962 1963 1966 1967 1970 1971 1974 1975 1978 1979
1982 1983 1986 1987 1990 1991 1994 1995 1998 1999 2002 2003 2006 2007 2010
2011 2014 2015 2018 2019 2022 2023 2026 2027 2030 2031 2034 2035 2038 2039
2042 2043 2046 2047 2050 2051 2054 2055 2058 2059 2062 2063 2066 2067 2070
2071 2074 2075 2078 2079 2082 2083 2086 2087 2090 2091 2094 2095 2098 2099
2102 2103 2106 2107 2110 2111 2114 2115 2118 2119 2122 2123 2126 2127 2130
2131 2134 2135 2138 2139 2142 2143 2146 2147 2150 2151 2154 2155 2158 2159
2162 2163 2166 2167 2170 2171 2174 2175 2178 2179 2182 2183 2186 2187 2190
2191 2194 2195 2198 2199 2202 2203 2206 2207 2210 2211 2214 2215 2218 2219
2222 2223 2226 2227 2230 2231 2234 2235 2238 2239 2242 2243 2246 2247 2250
2251 2254 2255 2258 2259 2262 2263 2266 2267 2270 2271 2274 2275 2278 2279
2282 2283 2286 2287 2290 2291 2294 2295 2298 2299 2302 2303 2306 2307 2310
2311 2314 2315 2318 2319 2322 2323 2326 2327 2330 2331 2334 2335 2338 2339
2342 2343 2346 2347 2350 2351 2354 2355 2358 2359 2362 2363 2366 2367 2370
2371 2374 2375 2378 2379 2382 2383 2386 2387 2390 2391 2394 2395 2398 2399
2402 2403 2406 2407 2410 2411 2414 2415 2418 2419 2422 2423 2426 2427 2430
2431 2434 2435 2438 2439 2442 2443 2446 2447 2450 2451 2454 2455 2458 2459
2462 2463 2466 2467 2470 2471 2474 2475 2478 2479 2482 2483 2486 2487 2490
2491 2494 2495 2498 2499 2502 2503 2506 2507 2510 2511 2514 2515 2518 2519
2522 2523 2526 2527 2530 2531 2534 2535 2538 2539 2542 2543 2546 2547 2550
2551 2554 2555 2558 2559 2562 2563 2566 2567 2570 2571 2574 2575 2578 2579
2582 2583 2586 2587 2590 2591 2594 2595 2598 2599 2602 2603 2606 2607 2610
2611 2614 2615 2618 2619 2622 2623 2626 2627 2630 2631 2634 2635 2638 2639
2642 2643 2646 2647 2650 2651 2654 2655 2658 2659 2662 2663 2666 2667 2670
2671 2674 2675 2678 2679 2682 2683 2686 2687 2690 2691 2694 2695 2698 2699
2702 2703 2706 2707 2710 2711 2714 2715 2718 2719 2722 2723 2726 2727 2730
2731 2734 2735 2738 2739 2742 2743 2746 2747 2750 2751 2754 2755 2758 2759
2762 2763 2766 2767 2770 2771 2774 2775 2778 2779 2782 2783 2786 2787 2790
2791 2794 2795 2798 2799 2802 2803 2806 2807 2810 2811 2814 2815 2818 2819
2822 2823 2826 2827 2830 2831 2834 2835 2838 2839 2842 2843 2846 2847 2850
2851 2854 2855 2858 2859 2862 2863 2866 2867 2870 2871 2874 2875 2878 2879
2882 2883 2886 2887 2890 2891 2894 2895 2898 2899 2902 2903 2906 2907 2910
2911 2914 2915 2918 2919 2922 2923 2926 2927 2930 2931 2934 2935 2938 2939
2942 2943 2946 2947 2950 2951 2954 2955 2958 2959 2962 2963 2966 2967 2970
2971 2974 2975 2978 2979 2982 2983 2986 2987 2990 2991 2994 2995 2998 2999
3002 3003 3006 3007 3010 3011 3014 3015 3018 3019 3022 3023 3026 3027 3030
3031 3034 3035 3038 3039 3042 3043 3046 3047 3050 3051 3054 3055 3058 3059
3062 3063 3066 3067 3070 3071 3074 3075 3078 3079 3082 3083 3086 3087 3090
3091 3094 3095 3098 3099 3102 3103 3106 3107 3110 3111 3114 3115 3118 3119
3122 3123 3126 3127 3130 3131 3134 3135 3138 3139 3142 3143 3146 3147 3150
3151 3154 3155 3158 3159 3162 3163 3166 3167 3170 3171 3174 3175 3178 3179
3182 3183 3186 3187 3190 3191 3194 3195 3198 3199 3202 3203 3206 3207 3210
3211 3214 3215 3218 3219 3222 3223 3226 3227 3230 3231 3234 3235 3238 3239
3242 3243 3246 3247 3250 3251 3254 3255 3258 3259 3262 3263 3266 3267 3270
3271 3274 3275 3278 3279 3282 3283 3286 3287 3290 3291 3294 3295 3298 3299
3302 3303 3306 3307 3310 3311 3314 3315 3318 3319 3322 3323 3326 3327 3330
3331 3334 3335 3338 3339 3342 3343 3346 3347 3350 3351 3354 3355 3358 3359
3362 3363 3366 3367 3370 3371 3374 3375 3378 3379 3382 3383 3386 3387 3390
3391 3394 3395 3398 3399 3402 3403 3406 3407 3410 3411 3414 3415 3418 3419
3422 3423 3426 3427 3430 3431 3434 3435 3438 3439 3442 3443 3446 3447 3450
3451 3454 3455 3458 3459 3462 3463 3466 3467 3470 3471 3474 3475 3478 3479
3482 3483 3486 3487 3490 3491 3494 3495 3498 3499 3502 3503 3506 3507 3510
3511 3514 3515 3518 3519 3522 3523 3526 3527 3530 3531 3534 3535 3538 3539
3542 3543 3546 3547 3550 3551 3554 3555 3558 3559 3562 3563 3566 3567 3570
3571 3574 3575 3578 3579 3582 3583 3586 3587 3590 3591 3594 3595 3598 3599
