[ defaults ]
; nbfunc        comb-rule       gen-pairs       fudgeLJ fudgeQQ
1               2               yes             0.5     0.5
; nb type 1 is LJ, CB rule 2 is lorentz-berthelot CR in TRAPPE FF

[ atomtypes ]
;name        typ    MW           q                V@nm         W@kj/mol
 spce_O     OW      15.99940    -0.820       A    3.16557e-01  6.50194e-01 ; water OW (SPCE)
 spce_H     HW       1.00800     0.410       A    0.00000e+00  0.00000e+00 ; water HW (SPCE)
 TIP4P2_O   OW      15.99940     0.000       A    3.15890e-01  7.74900e-01 ; water OW (TIP4P2005)
 TIP4P2_H   HW       1.00800     0.5564      A    0.00000e+00  0.00000e+00 ; water HW (TIP4P2005)
 TIP4P2_M   MW       0.00000    -1.1128      D    0.00000e+00  0.00000e+00 ; water MW (TIP4P2005)


[ moleculetype ]
; molname       nrexcl
SOL             2

[ atoms ]
; id    at type res nr  residu name     at name cg nr   charge
1       TIP4P2_O        1       SOL      OW     1       0.0
2       TIP4P2_H        1       SOL     HW1     1       0.5564
3       TIP4P2_H        1       SOL     HW2     1       0.5564
4       TIP4P2_M        1       SOL      MW     1      -1.1128

[ settles ]
; OW    funct   doh        dhh
1       1       0.09572    0.15139

[ exclusions ]
1       2       3       4
2       1       3       4
3       1       2       4
4       1       2       3

; The position of the virtual site is computed as follows:
;
;               O
;
;               D
;
;       H               H
;
; const = distance (OD) / [ cos (angle(DOH))    * distance (OH) ]
;         0.01546 nm      / [ cos (52.26 deg)     * 0.09572 nm    ]

; Vsite pos x4 = x1 + a*(x2-x1) + b*(x3-x1)

[ virtual_sites3 ]
; Vsite from                    funct   a               b
4       1       2       3       1       0.131937768     0.131937768


[ system ]

propane in hexadecane

[ molecules ]
SOL  900

