Phenol_AA
   13
    1PHE      C    1   2.614   2.654   2.540
    1PHE      C    2   2.477   2.682   2.538
    1PHE      C    3   2.384   2.578   2.548
    1PHE      C    4   2.428   2.445   2.560
    1PHE      C    5   2.565   2.417   2.562
    1PHE      C    6   2.659   2.521   2.552
    1PHE      O    7   2.795   2.492   2.554
    1PHE      H    8   2.686   2.735   2.533
    1PHE      H    9   2.443   2.784   2.529
    1PHE      H   10   2.278   2.599   2.546
    1PHE      H   11   2.356   2.365   2.568
    1PHE      H   12   2.599   2.315   2.571
    1PHE      H   13   2.865   2.565   2.548
   5.10000   5.10000   5.10000
