Phenol_UA
13
    1PHE  C        1   0.072   0.090   0.042
    1PHE  C        2  -0.059   0.136   0.027
    1PHE  C        3  -0.159   0.050  -0.021
    1PHE  C        4  -0.128  -0.082  -0.053
    1PHE  C        5   0.003  -0.129  -0.037
    1PHE  C        6   0.103  -0.043   0.011
    1PHE  O        7   0.233  -0.091   0.026
    1PHE  H        8   0.148   0.157   0.079
    1PHE  H        9  -0.084   0.239   0.051
    1PHE  H       10  -0.260   0.086  -0.033
    1PHE  H       11  -0.205  -0.149  -0.090
    1PHE  H       12   0.027  -0.232  -0.062
    1PHE  H       13   0.308  -0.031   0.060
   0.00000   0.00000   0.00000