phenol
 6084
    1PHE     CO    1   1.371   1.548   0.204 -0.4756  0.2945 -0.0578
    1PHE     CH    2   1.396   1.685   0.222  0.0088  0.1662  0.2528
    1PHE     CH    3   1.483   1.755   0.138  0.7440 -0.5933  0.3582
    1PHE     CH    4   1.552   1.684   0.039  0.4130  0.0065 -0.3182
    1PHE     CH    5   1.527   1.546   0.026  0.8420 -0.1895  0.7983
    1PHE     CH    6   1.430   1.477   0.098  0.2625  0.2063  0.4115
    1PHE     OH    7   1.277   1.486   0.281 -0.3225 -0.1167 -0.1996
    1PHE     HC    8   1.349   1.735   0.305 -0.2064 -0.4759  0.5221
    1PHE     HC    9   1.488   1.860   0.164 -4.2184 -0.3771  1.4175
    1PHE     HC   10   1.612   1.732   5.063 -0.2883  0.5288 -0.5587
    1PHE     HC   11   1.572   1.490   5.045  0.7046 -0.0885  0.6509
    1PHE     HC   12   1.415   1.371   0.082 -2.4786  0.4603  0.7692
    1PHE     HO   13   1.227   1.544   0.336  1.4106  0.1246  1.2188
    2PHE     CO   14   1.747   1.792   2.807 -0.1001  0.2341  0.2282
    2PHE     CH   15   1.786   1.896   2.892 -0.1295  0.0813  0.4274
    2PHE     CH   16   1.697   2.001   2.919 -0.1784  0.0887  0.2341
    2PHE     CH   17   1.577   2.007   2.848 -0.0127 -0.0679 -0.0629
    2PHE     CH   18   1.536   1.898   2.769 -0.2198  0.1925 -0.3188
    2PHE     CH   19   1.623   1.792   2.742 -0.3297 -0.1594  0.6659
    2PHE     OH   20   1.831   1.686   2.794  0.4498  0.6700  0.1519
    2PHE     HC   21   1.886   1.892   2.932  0.6110 -1.3506 -1.4439
    2PHE     HC   22   1.729   2.078   2.987  2.7882 -1.9642  1.3905
    2PHE     HC   23   1.512   2.093   2.853  1.8283  1.4065 -0.6193
    2PHE     HC   24   1.433   1.902   2.737 -0.7849  1.8654  1.4705
    2PHE     HC   25   1.591   1.714   2.674 -1.4191  1.5635 -0.8938
    2PHE     HO   26   1.794   1.610   2.837  1.6097  0.1718  0.3148
    3PHE     CO   27   0.425   4.079   3.083 -0.3393 -0.4142  0.1049
    3PHE     CH   28   0.493   3.975   3.147 -0.0471 -0.1818  0.1732
    3PHE     CH   29   0.485   3.845   3.095 -0.5383 -0.3389  0.6332
    3PHE     CH   30   0.410   3.826   2.978 -0.0752  0.7925  0.1434
    3PHE     CH   31   0.327   3.926   2.925 -0.4546  0.3035 -0.1914
    3PHE     CH   32   0.343   4.057   2.971  0.5797  0.3785 -0.7389
    3PHE     OH   33   0.438   4.202   3.140 -0.0114 -0.3180 -0.1734
    3PHE     HC   34   0.550   3.999   3.236  0.3915 -0.2113 -0.0982
    3PHE     HC   35   0.532   3.758   3.139  0.7851  0.8036  1.5496
    3PHE     HC   36   0.412   3.727   2.936  0.2057  0.3376  1.1940
    3PHE     HC   37   0.276   3.909   2.832 -1.1738 -0.1379  0.2742
    3PHE     HC   38   0.300   4.144   2.922 -0.2958 -0.6352 -1.8209
    3PHE     HO   39   0.384   4.271   3.106 -1.3784 -1.3135 -0.1304
    4PHE     CO   40   3.162   4.949   0.633 -0.1968  0.1725  0.0152
    4PHE     CH   41   3.039   4.992   0.584 -0.2628 -0.3855 -0.3109
    4PHE     CH   42   2.931   4.995   0.674  0.0529 -0.0693  0.0596
    4PHE     CH   43   2.933   4.930   0.797  0.2982 -0.5690 -0.2067
    4PHE     CH   44   3.056   4.878   0.841  0.2770 -0.2468  0.2429
    4PHE     CH   45   3.170   4.899   0.764  0.0113 -0.2210 -0.1475
    4PHE     OH   46   3.270   4.943   0.550 -0.2439 -0.1736 -0.0215
    4PHE     HC   47   3.028   5.023   0.481  0.2227 -0.2663 -0.3291
    4PHE     HC   48   2.844   5.048   0.637  0.7438  1.6992  0.8487
    4PHE     HC   49   2.845   4.925   0.859 -0.2635 -2.0237 -1.0594
    4PHE     HC   50   3.054   4.815   0.929 -2.4537 -0.7846 -0.0967
    4PHE     HC   51   3.260   4.853   0.802  0.7715  0.6016 -0.9044
    4PHE     HO   52   3.237   4.920   0.465  1.6891  0.2644 -0.9566
    5PHE     CO   53   4.897   0.798   2.760  0.0889  0.2647 -0.1166
    5PHE     CH   54   5.018   0.731   2.745 -0.0830 -0.0128 -0.2755
    5PHE     CH   55   5.022   0.596   2.707 -0.5629  0.2013 -1.0984
    5PHE     CH   56   4.908   0.516   2.713 -0.2342 -0.1947  0.0251
    5PHE     CH   57   4.787   0.582   2.738 -0.0979 -0.2867  0.9585
    5PHE     CH   58   4.780   0.720   2.756  0.3417 -0.1155 -0.1198
    5PHE     OH   59   4.885   0.930   2.791 -0.8302  0.1861 -0.0896
    5PHE     HC   60   0.011   0.786   2.746 -0.9320  1.4814  1.0024
    5PHE     HC   61   0.017   0.554   2.675  0.2380  0.1365  1.1668
    5PHE     HC   62   4.906   0.413   2.680  2.4455 -0.1908 -0.3396
    5PHE     HC   63   4.697   0.523   2.729 -1.2388  1.6081 -0.7860
    5PHE     HC   64   4.688   0.768   2.785  0.3586 -1.3308  2.2092
    5PHE     HO   65   4.966   0.967   2.757  0.2629 -0.0501  2.0595
    6PHE     CO   66   3.194   4.434   0.833 -0.0989 -0.0088 -0.0787
    6PHE     CH   67   3.237   4.462   0.964 -0.0929  0.4735 -0.1828
    6PHE     CH   68   3.141   4.471   1.065 -0.3053  0.3345 -0.3701
    6PHE     CH   69   3.004   4.452   1.040 -0.4625 -0.1088  0.7679
    6PHE     CH   70   2.963   4.413   0.913  0.5748  0.0827  0.3641
    6PHE     CH   71   3.061   4.394   0.815 -0.1645  0.3764 -0.4508
    6PHE     OH   72   3.279   4.426   0.726 -0.4817 -0.9101 -0.3229
    6PHE     HC   73   3.343   4.478   0.973 -0.0798  0.5489 -0.4424
    6PHE     HC   74   3.182   4.494   1.162 -0.4501  2.2763 -0.7284
    6PHE     HC   75   2.933   4.457   1.121 -1.6151  0.0789 -0.2246
    6PHE     HC   76   2.857   4.396   0.897  0.8738  0.3584 -2.5329
    6PHE     HC   77   3.029   4.369   0.715  0.0347 -2.9029  0.1959
    6PHE     HO   78   3.365   4.399   0.755 -1.2128 -1.1803  1.7579
    7PHE     CO   79   4.641   4.297   0.759 -0.0209  0.7202  0.1714
    7PHE     CH   80   4.725   4.317   0.648  0.2944 -0.1468  0.2481
    7PHE     CH   81   4.664   4.324   0.523  0.4553  0.0040  0.1790
    7PHE     CH   82   4.527   4.306   0.506  0.4449  0.1523  0.0997
    7PHE     CH   83   4.448   4.275   0.617  0.6497 -0.4946  0.0714
    7PHE     CH   84   4.506   4.266   0.745  0.2817 -0.7150  0.2235
    7PHE     OH   85   4.688   4.295   0.887  0.8342 -0.4455 -0.1473
    7PHE     HC   86   4.832   4.328   0.655  0.3672  0.5378 -1.5359
    7PHE     HC   87   4.718   4.349   0.432 -3.2583  0.2687 -2.1304
    7PHE     HC   88   4.480   4.317   0.409 -1.5030 -0.7139  0.8880
    7PHE     HC   89   4.343   4.252   0.608  0.7815 -0.2822 -2.5016
    7PHE     HC   90   4.443   4.242   0.829 -0.1139 -1.9270 -0.4020
    7PHE     HO   91   4.628   4.277   0.958 -2.3741  0.6323 -2.3815
    8PHE     CO   92   1.668   0.056   3.540 -0.7388 -0.0809 -0.4118
    8PHE     CH   93   1.745   0.030   3.427 -0.0867  0.0922 -0.0113
    8PHE     CH   94   1.813   0.132   3.359 -0.0951 -0.0416 -0.2234
    8PHE     CH   95   1.800   0.262   3.410  0.1111 -0.2159  0.2839
    8PHE     CH   96   1.725   0.288   3.525 -0.6556 -0.0387 -0.2466
    8PHE     CH   97   1.657   0.186   3.592 -0.1993 -0.1924 -0.0136
    8PHE     OH   98   1.600   5.049   3.592  0.0308 -0.2086  0.3564
    8PHE     HC   99   1.761   5.031   3.386 -0.5372  0.1388 -0.2988
    8PHE     HC  100   1.870   0.111   3.270  2.4429  2.6240  0.6133
    8PHE     HC  101   1.857   0.344   3.369 -0.9334 -0.2100 -1.2499
    8PHE     HC  102   1.720   0.389   3.564 -0.6495 -0.2251  0.2378
    8PHE     HC  103   1.599   0.204   3.681  1.4192 -1.8624  1.4832
    8PHE     HO  104   1.509   5.070   3.601  0.4912  2.9887 -1.0556
    9PHE     CO  105   2.022   0.978   1.122 -0.0626 -0.0831  0.8085
    9PHE     CH  106   2.144   0.926   1.168  0.2952  0.0119 -0.0029
    9PHE     CH  107   2.143   0.812   1.250 -0.2312  0.3181  0.4258
    9PHE     CH  108   2.023   0.749   1.285 -0.1809  0.2892  0.5441
    9PHE     CH  109   1.904   0.801   1.231  0.0443  0.2942  0.0433
    9PHE     CH  110   1.900   0.918   1.155 -0.4544  0.2730  0.0317
    9PHE     OH  111   2.027   1.092   1.048  0.3330 -0.2922  0.5039
    9PHE     HC  112   2.243   0.969   1.157  0.5466  0.7696  3.7703
    9PHE     HC  113   2.239   0.788   1.291 -0.4012 -0.6950  0.2652
    9PHE     HC  114   2.032   0.668   1.355  1.5771 -0.2014 -0.2165
    9PHE     HC  115   1.813   0.758   1.271  0.9387 -2.7790 -0.8919
    9PHE     HC  116   1.805   0.960   1.126 -0.7034 -0.1258  0.2615
    9PHE     HO  117   1.943   1.116   1.010  0.2139 -3.0837 -1.3527
   10PHE     CO  118   3.556   0.050   1.377  0.1571 -0.1755 -0.0526
   10PHE     CH  119   3.427   0.066   1.428  0.0400  0.0601 -0.4160
   10PHE     CH  120   3.409   0.095   1.564 -0.1114  0.3061 -0.4872
   10PHE     CH  121   3.518   0.124   1.648 -0.0428 -0.5136 -0.2810
   10PHE     CH  122   3.647   0.112   1.596  0.1865  0.3867  0.0717
   10PHE     CH  123   3.665   0.080   1.461 -0.0166 -0.1876  0.1792
   10PHE     OH  124   3.572   0.004   1.250  0.0991 -0.1392 -0.0732
   10PHE     HC  125   3.339   0.051   1.367  0.9801  0.8836 -2.0241
   10PHE     HC  126   3.304   0.091   1.590  0.0292  0.1275  0.0820
   10PHE     HC  127   3.499   0.143   1.752 -4.1135 -2.1773 -0.5067
   10PHE     HC  128   3.723   0.151   1.662 -0.5478  1.9720  0.0252
   10PHE     HC  129   3.764   0.084   1.417 -0.1421  3.2176 -0.0592
   10PHE     HO  130   3.504   0.030   1.191  1.0434  0.2814 -1.0180
   11PHE     CO  131   2.761   0.890   3.873  0.2461 -0.0544  0.1764
   11PHE     CH  132   2.797   0.894   4.009  0.2432 -0.3105  0.1853
   11PHE     CH  133   2.922   0.951   4.036 -0.1748  0.6798  0.0707
   11PHE     CH  134   3.007   1.003   3.938 -0.0324  0.4757  0.0854
   11PHE     CH  135   2.973   0.987   3.803  0.0956  0.1282  0.0924
   11PHE     CH  136   2.845   0.939   3.773  0.1488 -0.0236  0.1098
   11PHE     OH  137   2.638   0.839   3.843  0.4262 -0.1446 -0.4168
   11PHE     HC  138   2.739   0.849   4.088  0.1186  0.1766  0.3732
   11PHE     HC  139   2.940   0.957   4.142 -1.0552  0.8428  0.2202
   11PHE     HC  140   3.099   1.051   3.968 -0.2877 -0.3130  2.3002
   11PHE     HC  141   3.048   1.015   3.731  4.4194 -1.4028  3.5648
   11PHE     HC  142   2.820   0.935   3.668  2.5500 -0.3897 -0.5137
   11PHE     HO  143   2.644   0.783   3.767 -1.8357 -0.1000 -0.6909
   12PHE     CO  144   2.262   3.162   1.652 -0.3725  0.0914  0.0552
   12PHE     CH  145   2.294   3.298   1.666 -0.0792  0.0451 -0.1681
   12PHE     CH  146   2.416   3.338   1.723 -0.3007 -0.2965  0.5582
   12PHE     CH  147   2.501   3.237   1.771 -0.1766 -0.1681  0.6070
   12PHE     CH  148   2.470   3.102   1.756  0.1821 -0.1970  0.1158
   12PHE     CH  149   2.351   3.062   1.693 -0.1996  0.4076  0.4536
   12PHE     OH  150   2.148   3.123   1.587 -0.4270 -0.0681  0.2467
   12PHE     HC  151   2.228   3.376   1.632 -1.1415 -0.8600 -0.2284
   12PHE     HC  152   2.446   3.441   1.725  0.6672 -0.5086 -1.0652
   12PHE     HC  153   2.600   3.255   1.810 -0.5241  2.0343  0.6061
   12PHE     HC  154   2.533   3.022   1.792 -1.7579 -0.5745  3.0450
   12PHE     HC  155   2.317   2.960   1.687 -1.0497  0.6703  0.5551
   12PHE     HO  156   2.086   3.194   1.589  0.2500  0.5355  1.7807
   13PHE     CO  157   2.332   4.606   2.367 -0.0693  0.1023 -0.3613
   13PHE     CH  158   2.201   4.605   2.415 -0.0614 -0.8314 -0.3496
   13PHE     CH  159   2.150   4.488   2.474 -0.4804 -0.2836  0.3978
   13PHE     CH  160   2.240   4.382   2.489  0.4068  0.4762  0.5430
   13PHE     CH  161   2.378   4.388   2.466  0.2750  0.0391 -0.4165
   13PHE     CH  162   2.422   4.505   2.403  0.0282  0.2384 -0.2221
   13PHE     OH  163   2.374   4.713   2.293  0.0775 -0.0157 -0.4495
   13PHE     HC  164   2.127   4.683   2.403  0.8060 -0.0762 -0.8225
   13PHE     HC  165   2.047   4.482   2.507 -0.2274 -0.3458  1.1970
   13PHE     HC  166   2.192   4.293   2.528  0.6517  0.2415  0.3062
   13PHE     HC  167   2.440   4.301   2.481 -3.6455 -2.8507  0.7835
   13PHE     HC  168   2.524   4.523   2.373 -0.4688  3.0253 -0.4991
   13PHE     HO  169   2.320   4.788   2.314  2.4061  1.3842  1.1326
   14PHE     CO  170   1.768   4.991   2.643  0.2041  0.2850 -0.0238
   14PHE     CH  171   1.806   4.865   2.595 -0.8383  0.2503 -0.7998
   14PHE     CH  172   1.840   4.760   2.681 -0.4862  0.9649 -0.0534
   14PHE     CH  173   1.831   4.775   2.820 -0.0575 -0.1165  0.0980
   14PHE     CH  174   1.797   4.901   2.869 -0.2308 -0.0736 -0.1303
   14PHE     CH  175   1.758   5.004   2.782 -0.0055  0.1042 -0.0222
   14PHE     OH  176   1.748   5.097   2.559 -0.0558  0.0895 -0.2118
   14PHE     HC  177   1.827   4.860   2.489  1.9607  2.0653 -0.4327
   14PHE     HC  178   1.879   4.668   2.640  1.6405  1.9016 -0.2885
   14PHE     HC  179   1.853   4.692   2.885  1.4325 -0.3618 -0.6767
   14PHE     HC  180   1.797   4.922   2.975 -1.5420 -2.3094  0.3790
   14PHE     HC  181   1.732   0.003   2.816  2.9392  0.3010  2.0271
   14PHE     HO  182   1.784   5.078   2.474 -0.7984  1.1474 -0.7908
   15PHE     CO  183   3.484   0.736   2.209  0.1418  0.3662 -0.0692
   15PHE     CH  184   3.347   0.711   2.218 -0.0096  1.2289  0.0746
   15PHE     CH  185   3.268   0.746   2.107 -0.5556 -0.4901 -0.1044
   15PHE     CH  186   3.319   0.794   1.987 -0.5213 -0.2786 -0.0047
   15PHE     CH  187   3.458   0.815   1.984 -0.5211 -0.2193  0.3811
   15PHE     CH  188   3.542   0.786   2.092  0.3053 -0.2670 -0.2669
   15PHE     OH  189   3.565   0.698   2.312  0.4764  0.0201 -0.4546
   15PHE     HC  190   3.300   0.670   2.306  1.5368  0.7006  0.6791
   15PHE     HC  191   3.164   0.731   2.132 -1.0381  1.1216 -1.0080
   15PHE     HC  192   3.245   0.819   1.912  0.0159  0.6819 -0.2414
   15PHE     HC  193   3.488   0.858   1.890 -1.2699 -0.1493  0.1643
   15PHE     HC  194   3.648   0.805   2.085  0.2998 -0.8584 -3.0817
   15PHE     HO  195   3.535   0.618   2.354 -0.1203  1.1620  1.4050
   16PHE     CO  196   3.694   4.836   0.712  0.1010  0.0514  0.2425
   16PHE     CH  197   3.594   4.755   0.656 -0.2175  0.3075  0.4400
   16PHE     CH  198   3.478   4.722   0.728 -0.1680 -0.1837  0.2961
   16PHE     CH  199   3.467   4.752   0.864 -0.9470  0.2619  0.1387
   16PHE     CH  200   3.562   4.840   0.916  0.2537 -1.1285  0.3600
   16PHE     CH  201   3.678   4.874   0.846  0.0749 -0.4439  0.3811
   16PHE     OH  202   3.798   4.883   0.637 -0.2447  0.3378 -0.0623
   16PHE     HC  203   3.606   4.724   0.554 -0.4417  1.8462 -0.0816
   16PHE     HC  204   3.405   4.663   0.675 -1.1922  1.3487 -0.0553
   16PHE     HC  205   3.382   4.715   0.919  0.2069  0.2292  1.9822
   16PHE     HC  206   3.549   4.880   1.016 -0.5320  0.8528 -0.4775
   16PHE     HC  207   3.744   4.932   0.909  2.6746 -0.9415 -1.7081
   16PHE     HO  208   3.815   4.822   0.567 -0.0453  1.2558 -0.8383
   17PHE     CO  209   3.490   4.589   2.656  1.1863  1.2198  0.1715
   17PHE     CH  210   3.457   4.651   2.535 -0.1491  0.0212 -0.1013
   17PHE     CH  211   3.525   4.606   2.421  0.2064  0.0640  0.0938
   17PHE     CH  212   3.630   4.513   2.431  0.5477  0.4753  0.3912
   17PHE     CH  213   3.662   4.452   2.553  0.6789  0.0985  0.1718
   17PHE     CH  214   3.589   4.491   2.666  0.1740  0.1420 -0.1636
   17PHE     OH  215   3.427   4.625   2.772 -0.0309  0.1270 -0.1222
   17PHE     HC  216   3.387   4.733   2.528 -1.1132 -0.8627 -1.3780
   17PHE     HC  217   3.502   4.648   2.325  1.3166 -2.8653 -1.5912
   17PHE     HC  218   3.686   4.496   2.340 -2.0380 -0.7772 -1.0987
   17PHE     HC  219   3.743   4.382   2.550 -2.3184 -3.6721 -0.0919
   17PHE     HC  220   3.614   4.448   2.762 -4.0695 -1.0775  0.6299
   17PHE     HO  221   3.440   4.565   2.843  1.1930  1.1159  0.5367
   18PHE     CO  222   4.864   0.236   0.662 -0.1136  0.6236 -0.1283
   18PHE     CH  223   4.904   0.192   0.789 -0.1734 -0.2027 -0.3917
   18PHE     CH  224   5.036   0.148   0.804 -0.1892 -0.1343 -0.0487
   18PHE     CH  225   0.025   0.149   0.696 -0.1490 -0.5508 -0.0242
   18PHE     CH  226   5.080   0.194   0.571 -0.0886 -0.1010  0.1143
   18PHE     CH  227   4.949   0.240   0.551  0.0122  0.1142 -0.0539
   18PHE     OH  228   4.738   0.285   0.642 -0.1088  0.4275 -0.6562
   18PHE     HC  229   4.844   0.189   0.878 -1.2330  0.7857 -1.0498
   18PHE     HC  230   5.083   0.133   0.900 -2.1068  0.3965  1.0259
   18PHE     HC  231   0.131   0.136   0.715  0.3204  1.4099 -0.9899
   18PHE     HC  232   0.055   0.204   0.495 -0.2319  0.0769 -0.0044
   18PHE     HC  233   4.906   0.275   0.458  3.1194 -1.0054 -2.0663
   18PHE     HO  234   4.696   0.298   0.725 -0.7386 -1.5162 -0.6219
   19PHE     CO  235   1.082   4.496   4.208 -0.2660 -0.0709  0.1648
   19PHE     CH  236   1.217   4.508   4.172 -0.3893  0.2759 -0.1829
   19PHE     CH  237   1.307   4.575   4.256  0.2317 -0.7214 -0.0414
   19PHE     CH  238   1.257   4.631   4.374 -0.0941 -0.5257 -0.2711
   19PHE     CH  239   1.124   4.616   4.415  0.0008 -0.2956  0.1278
   19PHE     CH  240   1.038   4.544   4.331 -0.0548 -0.6158  0.4577
   19PHE     OH  241   1.004   4.417   4.128  0.2442 -0.2266 -0.1858
   19PHE     HC  242   1.245   4.460   4.079 -1.6177 -0.1026 -0.3765
   19PHE     HC  243   1.413   4.578   4.233 -0.1972  0.7544 -2.0851
   19PHE     HC  244   1.321   4.679   4.446 -1.7053 -0.0671  0.8926
   19PHE     HC  245   1.102   4.665   4.508  3.2155  1.8173 -0.0726
   19PHE     HC  246   0.940   4.517   4.367  0.0451 -2.8911 -0.7657
   19PHE     HO  247   0.918   4.411   4.166  1.2179  0.5128  2.3250
   20PHE     CO  248   0.842   4.527   1.328 -0.3733 -0.1895  0.4893
   20PHE     CH  249   0.958   4.477   1.267 -0.8493 -0.0064 -0.6063
   20PHE     CH  250   0.961   4.414   1.142  0.4797  0.1210 -0.6596
   20PHE     CH  251   0.842   4.410   1.068  0.0383 -0.4608  0.0659
   20PHE     CH  252   0.723   4.458   1.124  0.1100  0.0097 -0.1763
   20PHE     CH  253   0.724   4.507   1.255 -0.0026  0.0215 -0.1798
   20PHE     OH  254   0.839   4.588   1.449 -0.0344  0.1568  0.3252
   20PHE     HC  255   1.057   4.486   1.311 -1.1314 -2.0375  0.5456
   20PHE     HC  256   1.050   4.382   1.090  1.3219  1.3038  0.0016
   20PHE     HC  257   0.844   4.376   0.965  1.4557 -1.6039  0.4293
   20PHE     HC  258   0.634   4.449   1.064 -0.2718  1.0551  0.2209
   20PHE     HC  259   0.634   4.544   1.302  0.7917  0.5180  1.0059
   20PHE     HO  260   0.918   4.638   1.468  0.6055 -0.4173 -0.7418
   21PHE     CO  261   1.820   3.841   0.328 -0.1650  0.2189 -0.0815
   21PHE     CH  262   1.689   3.800   0.357  0.1755 -0.3775  0.6379
   21PHE     CH  263   1.624   3.878   0.454  0.3369  0.0350  0.4173
   21PHE     CH  264   1.682   3.992   0.511  0.1673  0.6928 -0.6969
   21PHE     CH  265   1.817   4.021   0.487  0.3015  0.4102 -0.2960
   21PHE     CH  266   1.885   3.950   0.387 -0.0651  0.4180 -0.5529
   21PHE     OH  267   1.892   3.763   0.243 -0.6596  0.1793 -0.4725
   21PHE     HC  268   1.649   3.707   0.320  2.1519 -0.9752 -0.1377
   21PHE     HC  269   1.526   3.857   0.494 -1.1465  4.8866 -0.0748
   21PHE     HC  270   1.634   4.041   0.593 -0.2442  0.5847 -0.8723
   21PHE     HC  271   1.861   4.103   0.542 -1.6754 -0.6521  3.2355
   21PHE     HC  272   1.988   3.972   0.363  0.3406 -0.8414 -0.0378
   21PHE     HO  273   1.969   3.810   0.214 -1.4924  0.9300 -1.5411
   22PHE     CO  274   2.469   0.193   3.138 -0.1545  0.0471  0.6104
   22PHE     CH  275   2.456   0.318   3.199 -0.1154  0.1478  0.4156
   22PHE     CH  276   2.570   0.382   3.249 -0.2467  0.1953  0.6594
   22PHE     CH  277   2.697   0.323   3.236 -0.0937  0.7039 -0.2485
   22PHE     CH  278   2.705   0.195   3.180 -0.5817  0.3278  0.5104
   22PHE     CH  279   2.592   0.125   3.135 -0.1424  0.0927 -0.2603
   22PHE     OH  280   2.356   0.129   3.097 -0.4480  0.8471  0.1685
   22PHE     HC  281   2.361   0.361   3.227 -1.1483 -1.0611 -1.0509
   22PHE     HC  282   2.561   0.477   3.300 -2.0723  0.0773  0.6243
   22PHE     HC  283   2.781   0.377   3.276 -0.7867  1.3158  0.4140
   22PHE     HC  284   2.805   0.155   3.172 -0.3376  1.2426 -2.1054
   22PHE     HC  285   2.596   0.029   3.087  1.0873  0.0941 -0.1799
   22PHE     HO  286   2.367   0.046   3.054  0.0359  0.9273  0.1373
   23PHE     CO  287   0.760   2.299   1.422 -0.3296  0.3588 -0.4216
   23PHE     CH  288   0.857   2.319   1.322  0.3286  0.0705  0.1476
   23PHE     CH  289   0.932   2.208   1.281  0.2511  0.1675 -0.2661
   23PHE     CH  290   0.898   2.079   1.324 -0.0416  0.1750 -0.4686
   23PHE     CH  291   0.798   2.061   1.420 -0.1022  0.4711 -0.4762
   23PHE     CH  292   0.727   2.172   1.468 -0.1683  0.3568 -0.3112
   23PHE     OH  293   0.693   2.411   1.462 -0.2199  0.2399  0.0925
   23PHE     HC  294   0.864   2.417   1.277  0.6601 -0.7937 -1.7635
   23PHE     HC  295   1.003   2.226   1.202  1.9176 -0.2205  1.0891
   23PHE     HC  296   0.945   1.989   1.287 -0.7744 -0.5882  0.3948
   23PHE     HC  297   0.787   1.964   1.465  1.3891  0.4418 -0.1421
   23PHE     HC  298   0.649   2.158   1.542  1.2624 -1.7792  0.9135
   23PHE     HO  299   0.612   2.397   1.509 -0.0943 -0.7405  0.0264
   24PHE     CO  300   0.232   5.096   1.102 -0.5072  0.2857 -0.2859
   24PHE     CH  301   0.332   0.080   1.053 -0.0183 -0.3438 -0.3829
   24PHE     CH  302   0.410   0.034   0.946  0.1810  0.0866 -0.4251
   24PHE     CH  303   0.394   5.005   0.894  0.3094 -0.1947  0.2212
   24PHE     CH  304   0.299   4.917   0.947  0.0847 -0.1038 -0.0231
   24PHE     CH  305   0.216   4.968   1.048 -0.1061  0.2675 -0.3650
   24PHE     OH  306   0.147   0.045   1.197 -0.6226 -0.2273 -0.1162
   24PHE     HC  307   0.355   0.175   1.099  1.6837 -0.6630 -0.4908
   24PHE     HC  308   0.492   0.092   0.907 -1.0529 -0.2049 -3.8154
   24PHE     HC  309   0.458   4.980   0.811  1.1154  3.1734 -0.3376
   24PHE     HC  310   0.288   4.816   0.912  1.4074 -1.7980  3.8587
   24PHE     HC  311   0.142   4.901   1.089 -0.4006 -0.5253 -2.1067
   24PHE     HO  312   0.144   0.139   1.207 -2.3460 -0.2934  0.2784
   25PHE     CO  313   1.365   0.662   2.667 -0.0704  0.5963  0.1844
   25PHE     CH  314   1.374   0.683   2.529  0.4215  0.1223  0.1389
   25PHE     CH  315   1.493   0.653   2.463  0.1614  0.2042 -0.3712
   25PHE     CH  316   1.603   0.608   2.537 -0.1452  0.5340  0.2921
   25PHE     CH  317   1.597   0.595   2.676 -0.0580  0.5353  0.2962
   25PHE     CH  318   1.473   0.611   2.740 -0.3177 -0.2279 -0.0144
   25PHE     OH  319   1.246   0.678   2.733 -0.0772 -0.3532  0.4214
   25PHE     HC  320   1.283   0.710   2.477 -0.9349  1.5144  2.9791
   25PHE     HC  321   1.495   0.673   2.357 -2.5935 -1.7020 -0.8756
   25PHE     HC  322   1.699   0.581   2.496  0.6746 -3.1123  3.9680
   25PHE     HC  323   1.681   0.565   2.737 -0.1082  0.8724  0.5386
   25PHE     HC  324   1.462   0.586   2.845 -1.5965 -0.5708 -0.2143
   25PHE     HO  325   1.218   0.599   2.776  1.0204 -0.3360  1.2121
   26PHE     CO  326   1.554   1.191   3.466  0.7409  0.1198 -0.0815
   26PHE     CH  327   1.504   1.116   3.359  0.5307 -0.0361  0.1216
   26PHE     CH  328   1.557   0.987   3.350 -0.0461 -0.2617 -0.0756
   26PHE     CH  329   1.648   0.933   3.442  0.3261 -0.0477 -0.3143
   26PHE     CH  330   1.691   1.007   3.552  0.0064 -0.2550 -0.0479
   26PHE     CH  331   1.642   1.138   3.561  0.5399 -0.0598  0.0088
   26PHE     OH  332   1.503   1.316   3.484 -0.3063 -0.4836  1.4421
   26PHE     HC  333   1.426   1.156   3.296  1.5768  1.7932 -0.0775
   26PHE     HC  334   1.530   0.926   3.264  0.4311 -0.8707  0.1924
   26PHE     HC  335   1.685   0.832   3.427  2.3804  0.4441  1.0986
   26PHE     HC  336   1.763   0.962   3.618  1.6500  2.0503 -0.1707
   26PHE     HC  337   1.672   1.192   3.650  0.5229  0.5790 -0.3677
   26PHE     HO  338   1.422   1.329   3.437  0.8907  5.0836  0.2024
   27PHE     CO  339   0.315   4.809   3.943  0.2378 -0.0460  0.2084
   27PHE     CH  340   0.389   4.801   4.062 -0.4825 -0.2396  0.6531
   27PHE     CH  341   0.424   4.674   4.111  0.7850 -0.2175 -0.1372
   27PHE     CH  342   0.382   4.558   4.045 -0.1150  0.1233 -0.1861
   27PHE     CH  343   0.303   4.567   3.930  0.1246 -0.7330 -0.4235
   27PHE     CH  344   0.271   4.693   3.878  0.6807 -0.2794  0.3213
   27PHE     OH  345   0.268   4.925   3.891  0.1157 -0.3559 -0.3788
   27PHE     HC  346   0.415   4.887   4.121 -0.3120  0.6804 -0.7252
   27PHE     HC  347   0.474   4.668   4.206  1.1391  2.4566 -0.0691
   27PHE     HC  348   0.418   4.459   4.071 -0.3447  0.0369 -0.1961
   27PHE     HC  349   0.277   4.472   3.884  2.3450 -1.0813 -1.1076
   27PHE     HC  350   0.219   4.700   3.784  4.1684  0.4549 -1.7382
   27PHE     HO  351   0.312   5.002   3.922  2.7591 -1.8238 -0.2347
   28PHE     CO  352   4.264   4.692   3.671  0.1639 -0.1276  0.2982
   28PHE     CH  353   4.286   4.557   3.642  0.1360  0.1311 -0.9745
   28PHE     CH  354   4.238   4.456   3.726  0.1665  0.2061 -0.8667
   28PHE     CH  355   4.165   4.488   3.841  0.1493 -0.0216 -0.8151
   28PHE     CH  356   4.134   4.623   3.861 -0.1024 -0.1463 -0.3469
   28PHE     CH  357   4.187   4.727   3.783 -0.0528  0.1434  0.0675
   28PHE     OH  358   4.327   4.791   3.601 -0.3325 -0.1268 -0.1511
   28PHE     HC  359   4.354   4.528   3.563  1.6399  0.3939  0.1776
   28PHE     HC  360   4.272   4.357   3.702 -0.4283 -0.1222 -0.3776
   28PHE     HC  361   4.135   4.408   3.907  1.3679 -0.3647 -0.6476
   28PHE     HC  362   4.070   4.643   3.946  0.4672 -3.3435  0.9785
   28PHE     HC  363   4.161   4.829   3.808 -1.8770 -0.1718 -0.3786
   28PHE     HO  364   4.357   4.766   3.515  0.5217 -0.4113  0.2239
   29PHE     CO  365   3.493   0.742   4.498  0.0296 -0.4505 -0.1964
   29PHE     CH  366   3.445   0.855   4.565 -0.4294 -0.7988  0.0713
   29PHE     CH  367   3.452   0.982   4.506  0.4907 -0.6981  0.3799
   29PHE     CH  368   3.491   0.992   4.371  0.3623  0.1013  0.3969
   29PHE     CH  369   3.536   0.880   4.302 -0.3380 -0.0623  0.2013
   29PHE     CH  370   3.543   0.756   4.368  0.3843 -0.1449 -0.0261
   29PHE     OH  371   3.484   0.622   4.561  0.3714 -0.4226 -0.0937
   29PHE     HC  372   3.416   0.838   4.667  1.9737 -0.0341  0.9640
   29PHE     HC  373   3.430   1.077   4.553  0.2280 -0.6199  0.1018
   29PHE     HC  374   3.500   1.087   4.321  4.3506  1.0758  2.5317
   29PHE     HC  375   3.570   0.878   4.199  0.2203  0.7387  0.3610
   29PHE     HC  376   3.569   0.662   4.323 -0.8384 -0.4378 -0.1458
   29PHE     HO  377   3.502   0.548   4.505  0.3186 -0.3415 -0.2181
   30PHE     CO  378   0.903   2.192   1.895  0.1301 -0.5914  0.0278
   30PHE     CH  379   1.017   2.268   1.924 -0.0141 -0.6069  0.6624
   30PHE     CH  380   1.027   2.336   2.045  0.2983  0.3526  0.1105
   30PHE     CH  381   0.930   2.323   2.145  0.2313 -0.5749 -0.0639
   30PHE     CH  382   0.822   2.238   2.119 -0.3293  0.0409  0.2249
   30PHE     CH  383   0.802   2.184   1.992  0.1818  0.0489  0.1394
   30PHE     OH  384   0.899   2.119   1.780  0.1281  0.1660 -0.4560
   30PHE     HC  385   1.104   2.285   1.861  1.1320 -1.6250  1.8992
   30PHE     HC  386   1.110   2.405   2.056 -0.9950  1.7363  1.8601
   30PHE     HC  387   0.936   2.375   2.240  2.4329  0.8407 -0.9024
   30PHE     HC  388   0.749   2.217   2.196  0.5268 -0.6600  0.8672
   30PHE     HC  389   0.706   2.141   1.968  0.4273 -0.8219  0.6744
   30PHE     HO  390   0.948   2.162   1.710 -0.0724  0.1711 -0.5954
   31PHE     CO  391   2.294   4.256   0.126 -0.0408  0.2217  0.0464
   31PHE     CH  392   2.245   4.251   0.257  0.3532  0.0447  0.1891
   31PHE     CH  393   2.108   4.232   0.280  0.4608 -0.9281  0.0937
   31PHE     CH  394   2.016   4.217   0.176 -0.0253  0.1756  0.3439
   31PHE     CH  395   2.068   4.206   0.046  0.2172  0.1893  0.4402
   31PHE     CH  396   2.204   4.229   0.022  0.2503 -0.4797 -0.0278
   31PHE     OH  397   2.425   4.284   0.101 -0.1614  0.3433 -0.4465
   31PHE     HC  398   2.301   4.272   0.347 -3.1560 -0.6027  2.7576
   31PHE     HC  399   2.078   4.239   0.384  3.4198 -0.8259  1.0508
   31PHE     HC  400   1.911   4.210   0.201  0.1232 -0.9771  0.6963
   31PHE     HC  401   2.002   4.176   5.067 -1.7768 -1.8180  2.7373
   31PHE     HC  402   2.237   4.234   5.019  0.8561 -1.1441  0.1196
   31PHE     HO  403   2.436   4.334   0.022  2.1439 -0.8895 -1.0084
   32PHE     CO  404   3.026   1.454   2.026  0.4174  0.2552  0.0427
   32PHE     CH  405   2.992   1.571   1.956 -0.2441 -0.2224 -0.4478
   32PHE     CH  406   3.074   1.611   1.850  0.2627 -0.2959 -0.0846
   32PHE     CH  407   3.193   1.541   1.824 -0.0104 -0.4815 -0.8442
   32PHE     CH  408   3.229   1.427   1.897 -0.4272 -0.1027 -0.0377
   32PHE     CH  409   3.145   1.384   2.000  0.3355 -0.0907  0.5973
   32PHE     OH  410   2.940   1.414   2.123  0.6090  0.2960  0.2306
   32PHE     HC  411   2.897   1.613   1.987  0.3315  0.1456  0.8880
   32PHE     HC  412   3.043   1.702   1.802 -0.0115 -0.6240 -0.5429
   32PHE     HC  413   3.258   1.588   1.751 -0.6495  1.1830 -0.3905
   32PHE     HC  414   3.321   1.377   1.874 -1.2477 -2.2334  1.0564
   32PHE     HC  415   3.165   1.303   2.068  0.3428 -0.9739 -0.4420
   32PHE     HO  416   2.987   1.340   2.159 -0.0272  0.1634  0.8217
   33PHE     CO  417   0.438   3.752   0.565 -0.2154 -0.1322 -0.4408
   33PHE     CH  418   0.345   3.690   0.481 -0.1638  0.0850 -0.6602
   33PHE     CH  419   0.301   3.558   0.500 -0.6928  0.3135 -0.2819
   33PHE     CH  420   0.347   3.489   0.612  0.0696  0.5101 -0.4674
   33PHE     CH  421   0.441   3.546   0.698  0.1924  0.2576 -0.4338
   33PHE     CH  422   0.487   3.676   0.671  0.4116  0.1627 -0.5152
   33PHE     OH  423   0.493   3.872   0.530 -0.3312 -0.1240 -0.5937
   33PHE     HC  424   0.299   3.736   0.395  0.9484  3.1356  0.2375
   33PHE     HC  425   0.242   3.513   0.422 -1.3597 -0.8571  0.8566
   33PHE     HC  426   0.307   3.393   0.641  0.3645  0.9909  1.7781
   33PHE     HC  427   0.486   3.494   0.782  0.0394  1.3209  0.3384
   33PHE     HC  428   0.555   3.723   0.741 -0.8110  0.2091  0.6680
   33PHE     HO  429   0.580   3.879   0.567 -0.1916 -3.3947 -0.0252
   34PHE     CO  430   3.929   0.360   2.203 -0.1887 -0.4983 -0.2603
   34PHE     CH  431   3.949   0.259   2.298  0.2081  0.1784  0.3920
   34PHE     CH  432   4.057   0.173   2.277 -0.0798 -0.2925  0.8197
   34PHE     CH  433   4.136   0.186   2.162 -0.5252 -0.1519  0.5212
   34PHE     CH  434   4.101   0.276   2.062  0.4990  0.1442  0.4141
   34PHE     CH  435   3.997   0.368   2.081 -0.0244 -0.3158 -0.1583
   34PHE     OH  436   3.842   0.463   2.220  0.4802  0.1711 -0.8090
   34PHE     HC  437   3.894   0.253   2.391 -1.7112  0.8117 -0.6400
   34PHE     HC  438   4.081   0.101   2.354 -0.6497 -3.4362 -1.6966
   34PHE     HC  439   4.224   0.124   2.147 -0.8332 -0.2504 -0.9750
   34PHE     HC  440   4.169   0.263   1.979  0.1799 -1.0252  0.3161
   34PHE     HC  441   3.967   0.447   2.013  1.4444  0.4896  0.0890
   34PHE     HO  442   3.819   0.515   2.144  3.0406 -0.7378 -2.3247
   35PHE     CO  443   1.684   4.386   0.917  0.2285  0.6408 -0.2046
   35PHE     CH  444   1.686   4.256   0.866  0.0831  0.5576 -0.0000
   35PHE     CH  445   1.764   4.152   0.918  0.3998  0.9148  0.2316
   35PHE     CH  446   1.823   4.174   1.044  0.5617  0.2099  0.2785
   35PHE     CH  447   1.805   4.299   1.104 -1.1495 -0.1229  0.5048
   35PHE     CH  448   1.733   4.404   1.047 -0.3897  0.1830  0.1035
   35PHE     OH  449   1.618   4.482   0.847 -0.1979  0.4659 -0.0515
   35PHE     HC  450   1.640   4.244   0.768  0.4038  2.2627 -0.3871
   35PHE     HC  451   1.777   4.063   0.859  0.2158  0.2436  1.1790
   35PHE     HC  452   1.881   4.093   1.087  0.5254  0.7227  1.3029
   35PHE     HC  453   1.863   4.321   1.193  1.1817  0.3630 -1.0358
   35PHE     HC  454   1.738   4.506   1.081 -1.4683  1.3352 -2.8453
   35PHE     HO  455   1.621   4.556   0.906 -1.9838  0.2557  0.3525
   36PHE     CO  456   0.181   3.987   0.403  0.5140 -0.6655  0.3648
   36PHE     CH  457   0.065   4.010   0.327  0.5583 -0.2061  0.4324
   36PHE     CH  458   5.039   4.011   0.388  0.1511 -0.0726 -0.4011
   36PHE     CH  459   5.031   4.010   0.528 -0.1049  0.6341 -0.4065
   36PHE     CH  460   0.048   4.000   0.603 -0.0338  0.0372 -0.5865
   36PHE     CH  461   0.174   3.986   0.543  0.4448  0.1411  0.3712
   36PHE     OH  462   0.302   3.980   0.342  0.1027 -0.4019 -0.5001
   36PHE     HC  463   0.083   4.008   0.221  0.6476  0.8317  0.4217
   36PHE     HC  464   4.960   4.014   0.314 -0.0624  2.7928 -0.1496
   36PHE     HC  465   4.935   4.009   0.576 -0.2966 -2.9261 -0.5499
   36PHE     HC  466   0.045   3.990   0.711 -0.9174 -3.4692 -0.8320
   36PHE     HC  467   0.263   3.971   0.602  1.6171  0.3678 -1.2777
   36PHE     HO  468   0.366   3.934   0.395 -0.7456 -0.2292  0.7150
   37PHE     CO  469   0.452   3.694   1.560  0.7937 -0.2089  0.2653
   37PHE     CH  470   0.470   3.572   1.494  0.6118  0.0606 -0.2855
   37PHE     CH  471   0.463   3.569   1.354  0.0273 -0.4985 -0.2488
   37PHE     CH  472   0.453   3.691   1.287 -0.0722 -0.3915 -0.0399
   37PHE     CH  473   0.435   3.814   1.352 -0.2624 -0.2044 -0.4433
   37PHE     CH  474   0.422   3.811   1.491 -0.4737 -0.9510 -0.4731
   37PHE     OH  475   0.475   3.698   1.695  0.8905 -0.1801  0.2480
   37PHE     HC  476   0.486   3.494   1.567 -0.2153  0.8255  0.7360
   37PHE     HC  477   0.471   3.485   1.287  1.1088 -0.1619 -0.5630
   37PHE     HC  478   0.459   3.693   1.179 -2.9968 -0.6665 -0.2859
   37PHE     HC  479   0.413   3.901   1.291  0.5993  0.0715 -0.3711
   37PHE     HC  480   0.411   3.900   1.551 -0.6689 -0.4584 -1.2212
   37PHE     HO  481   0.465   3.781   1.737 -0.0173  0.1919 -0.6669
   38PHE     CO  482   0.144   3.989   1.574 -0.0911  0.3216 -0.3092
   38PHE     CH  483   0.076   3.869   1.548  0.4025 -0.0441  0.0628
   38PHE     CH  484   5.080   3.823   1.639 -0.0460  0.2357 -0.2624
   38PHE     CH  485   5.045   3.902   1.749  0.3294 -0.3179  0.2633
   38PHE     CH  486   0.013   4.021   1.776 -0.1087 -0.0554  0.2242
   38PHE     CH  487   0.114   4.063   1.689 -0.4347 -0.0497 -0.1536
   38PHE     OH  488   0.229   4.043   1.483  0.7949 -0.1521  0.2300
   38PHE     HC  489   0.085   3.829   1.448  0.7066 -0.9441  0.4428
   38PHE     HC  490   5.033   3.727   1.622  1.5262 -0.5724 -0.2117
   38PHE     HC  491   4.960   3.878   1.812 -1.3856  2.0111 -0.9832
   38PHE     HC  492   5.092   4.077   1.866 -1.4671 -0.1102 -0.0315
   38PHE     HC  493   0.163   4.156   1.715  0.3560 -0.0277 -1.5922
   38PHE     HO  494   0.264   4.125   1.515 -1.1582  1.1864 -0.8906
   39PHE     CO  495   1.699   3.813   1.030  0.1487  0.7048 -0.3993
   39PHE     CH  496   1.835   3.779   1.023  0.0740  0.4043 -0.4009
   39PHE     CH  497   1.878   3.714   0.906 -0.2970 -0.3617 -0.1194
   39PHE     CH  498   1.793   3.694   0.797 -0.7468  0.0689  0.1465
   39PHE     CH  499   1.658   3.729   0.805 -0.7293  0.2110 -0.1918
   39PHE     CH  500   1.611   3.780   0.926 -0.2534 -0.5088  0.3033
   39PHE     OH  501   1.646   3.873   1.140  0.4365  0.5823 -0.1942
   39PHE     HC  502   1.900   3.794   1.108 -0.3142  0.1947 -0.0616
   39PHE     HC  503   1.977   3.677   0.886 -0.0654  0.1760  0.0000
   39PHE     HC  504   1.834   3.634   0.717 -2.4569 -2.4360  1.0331
   39PHE     HC  505   1.584   3.703   0.730 -0.4792 -0.4994 -0.1982
   39PHE     HC  506   1.507   3.805   0.946 -0.1475  0.7581 -0.5849
   39PHE     HO  507   1.709   3.916   1.197 -0.0002  1.3913 -0.3042
   40PHE     CO  508   2.264   0.074   4.136  0.0407 -0.0523 -0.0312
   40PHE     CH  509   2.275   5.069   4.044  1.1865  0.2496 -0.2593
   40PHE     CH  510   2.326   4.947   4.091 -0.0338 -0.3839 -0.5265
   40PHE     CH  511   2.355   4.932   4.227 -0.6419  0.3988 -0.3037
   40PHE     CH  512   2.330   5.032   4.321 -0.2923 -0.1821  0.4217
   40PHE     CH  513   2.289   0.057   4.273  0.0008 -0.2656 -0.0502
   40PHE     OH  514   2.223   0.197   4.093 -0.9771 -0.2773  0.2618
   40PHE     HC  515   2.253   5.075   3.939  2.4757  0.2580 -0.5401
   40PHE     HC  516   2.346   4.870   4.018  0.7999 -0.0820 -0.6376
   40PHE     HC  517   2.387   4.833   4.257 -0.0634 -0.5112 -3.4913
   40PHE     HC  518   2.346   5.026   4.427  2.1164  0.9531  0.1783
   40PHE     HC  519   2.281   0.148   4.331  0.7913 -1.6855  2.4299
   40PHE     HO  520   2.153   0.194   4.031 -2.4857  0.7961  1.8219
   41PHE     CO  521   5.074   4.908   5.064 -0.4290 -0.0222 -0.3115
   41PHE     CH  522   5.085   4.852   0.092  0.2298  0.3467 -0.2020
   41PHE     CH  523   5.090   4.937   0.203  0.2743  0.2769 -0.1502
   41PHE     CH  524   5.077   5.075   0.185  0.1615  0.2805 -0.0447
   41PHE     CH  525   5.085   0.034   0.058  1.3776 -0.2203 -0.2179
   41PHE     CH  526   5.081   5.047   5.048  0.2299 -0.0513 -0.3177
   41PHE     OH  527   5.083   4.831   4.952  0.5008  0.1269 -0.3452
   41PHE     HC  528   5.093   4.746   0.108 -0.8808 -0.0761 -2.1454
   41PHE     HC  529   0.006   4.893   0.300  0.3824 -2.5786 -1.3457
   41PHE     HC  530   5.082   0.039   0.273  0.6360 -0.8149  0.7476
   41PHE     HC  531   5.092   0.141   0.050 -1.8901  0.0867 -0.5521
   41PHE     HC  532   5.089   5.092   4.951  0.1229  2.1990  0.6521
   41PHE     HO  533   5.065   4.739   4.963  1.4365  0.2471  3.5372
   42PHE     CO  534   2.005   1.184   0.649 -0.2079 -0.0050  0.1632
   42PHE     CH  535   1.959   1.209   0.519  0.6760 -0.4131 -0.2387
   42PHE     CH  536   2.027   1.299   0.437  0.3036  0.1350  0.0484
   42PHE     CH  537   2.140   1.365   0.486 -0.3960  1.0345  0.4825
   42PHE     CH  538   2.183   1.341   0.617 -0.2492  0.6716  0.3691
   42PHE     CH  539   2.114   1.254   0.703 -0.2927  0.2924 -0.0466
   42PHE     OH  540   1.946   1.087   0.724 -0.3638 -0.4330 -0.5065
   42PHE     HC  541   1.878   1.156   0.472  1.6565 -2.1817 -0.0201
   42PHE     HC  542   1.996   1.319   0.336 -0.5260 -0.4845  0.1694
   42PHE     HC  543   2.199   1.419   0.412  1.3002 -1.4463 -0.1061
   42PHE     HC  544   2.282   1.377   0.642  0.5204 -1.3019  0.3513
   42PHE     HC  545   2.158   1.234   0.799 -0.7614  0.2589  0.1632
   42PHE     HO  546   1.869   1.046   0.688 -0.8764 -1.5325  1.7042
   43PHE     CO  547   0.108   4.095   4.619  0.6221 -0.3877 -0.1256
   43PHE     CH  548   0.236   4.141   4.653  0.0942  0.4903  0.7317
   43PHE     CH  549   0.323   4.174   4.548 -0.3170 -0.2398  0.1518
   43PHE     CH  550   0.279   4.174   4.415  0.1581 -0.4711 -0.0037
   43PHE     CH  551   0.157   4.113   4.382 -0.0895  0.0726 -0.0922
   43PHE     CH  552   0.077   4.065   4.486  0.0245 -0.0549 -0.0624
   43PHE     OH  553   0.031   4.058   4.724 -0.2387  0.0222 -0.6044
   43PHE     HC  554   0.265   4.149   4.757 -0.1715  1.4009  0.7373
   43PHE     HC  555   0.424   4.207   4.566  0.3693 -0.7497 -2.3273
   43PHE     HC  556   0.341   4.210   4.334 -0.4906 -1.2472 -0.8707
   43PHE     HC  557   0.137   4.114   4.276  2.8184  0.9763 -0.7449
   43PHE     HC  558   5.076   4.032   4.466  0.6247 -0.9559 -1.8690
   43PHE     HO  559   0.069   4.093   4.804 -0.2819 -0.4485 -0.3759
   44PHE     CO  560   1.961   4.108   3.454 -0.2137  0.2448 -0.6530
   44PHE     CH  561   2.063   4.179   3.519 -0.4323  0.5697 -0.6621
   44PHE     CH  562   2.028   4.273   3.616  0.1984 -0.0331  0.1558
   44PHE     CH  563   1.895   4.289   3.654  0.0080 -0.3932 -0.3495
   44PHE     CH  564   1.793   4.218   3.590 -0.3709 -0.0356 -0.1492
   44PHE     CH  565   1.828   4.124   3.493  0.0007 -0.5026  0.4310
   44PHE     OH  566   1.995   4.006   3.369 -0.0899 -0.1233 -0.1680
   44PHE     HC  567   2.169   4.171   3.503  0.1940  1.0763  2.5399
   44PHE     HC  568   2.104   4.325   3.673  0.2936  1.1014 -0.9525
   44PHE     HC  569   1.873   4.357   3.736  0.6037 -0.0005 -0.5091
   44PHE     HC  570   1.690   4.233   3.621 -0.4748 -0.1785 -0.4225
   44PHE     HC  571   1.750   4.063   3.449 -0.3582  0.6215 -0.5516
   44PHE     HO  572   2.085   3.981   3.361 -0.2903 -1.0527  0.3587
   45PHE     CO  573   0.364   4.509   3.001  0.3827 -0.6000 -0.6324
   45PHE     CH  574   0.501   4.523   3.023  0.1998 -0.5644  0.5134
   45PHE     CH  575   0.559   4.650   3.007 -0.1120 -0.4418  0.3492
   45PHE     CH  576   0.487   4.758   2.955 -0.0207 -0.3783  0.3562
   45PHE     CH  577   0.350   4.741   2.934  0.0605 -0.4623 -0.1102
   45PHE     CH  578   0.287   4.618   2.957  0.2833 -0.6861 -0.6715
   45PHE     OH  579   0.292   4.397   3.030  0.3450 -0.4101  0.0225
   45PHE     HC  580   0.554   4.435   3.056  0.6393  0.1845  1.8982
   45PHE     HC  581   0.663   4.674   3.022 -0.1877  1.3926 -1.6685
   45PHE     HC  582   0.517   4.860   2.934  0.1517 -0.3729  0.6257
   45PHE     HC  583   0.309   4.836   2.906  2.0215  0.1301 -1.1023
   45PHE     HC  584   0.180   4.615   2.970  0.1937  1.7308 -0.4956
   45PHE     HO  585   0.223   4.378   2.968 -1.6739  1.0170  1.6777
   46PHE     CO  586   0.671   0.124   2.687  0.4214 -0.0577 -0.2735
   46PHE     CH  587   0.667   0.122   2.827  0.1065 -0.0966 -0.2833
   46PHE     CH  588   0.715   0.017   2.905 -0.7118 -0.1256  0.1945
   46PHE     CH  589   0.794   5.022   2.839 -0.0776  0.4321  0.1421
   46PHE     CH  590   0.806   5.017   2.700  0.2345  0.2389  0.1739
   46PHE     CH  591   0.741   0.018   2.627  0.5763  0.0861 -0.3497
   46PHE     OH  592   0.610   0.218   2.610  0.3554  0.2684  0.1724
   46PHE     HC  593   0.606   0.197   2.876  1.3464  0.0508  1.1114
   46PHE     HC  594   0.683   0.012   3.008 -0.4934 -0.8192  0.2373
   46PHE     HC  595   0.834   4.938   2.894 -3.2104 -0.6830  0.9377
   46PHE     HC  596   0.855   4.937   2.647  1.1375 -1.1515  2.9368
   46PHE     HC  597   0.736   0.009   2.520 -0.3107 -1.8150 -0.1963
   46PHE     HO  598   0.606   0.303   2.649 -0.9209  0.5940 -0.5847
   47PHE     CO  599   4.154   0.254   4.520  0.1099 -0.1481 -0.0428
   47PHE     CH  600   4.117   0.285   4.388 -0.5095  0.0427  0.1751
   47PHE     CH  601   4.154   0.199   4.285  0.1129  0.4856  0.0204
   47PHE     CH  602   4.246   0.096   4.311  0.1922  0.5207 -0.1209
   47PHE     CH  603   4.285   0.062   4.441  0.0971 -0.0821 -0.2495
   47PHE     CH  604   4.230   0.139   4.544 -0.1458 -0.3470 -0.1773
   47PHE     OH  605   4.121   0.332   4.627 -0.4451  0.0396 -0.3448
   47PHE     HC  606   4.059   0.374   4.368 -1.0179 -0.7116 -1.8999
   47PHE     HC  607   4.121   0.230   4.187  0.8934 -1.8878 -1.0822
   47PHE     HC  608   4.277   0.031   4.230  0.2759 -1.9363  1.7712
   47PHE     HC  609   4.355   5.081   4.453 -0.2907 -0.2630  0.8589
   47PHE     HC  610   4.256   0.122   4.647  0.8818 -0.4912 -0.4461
   47PHE     HO  611   4.147   0.303   4.713 -1.6197 -1.2026 -0.3743
   48PHE     CO  612   4.302   0.759   2.809  0.6719  0.9972  0.5410
   48PHE     CH  613   4.243   0.874   2.755  0.2922  0.5436 -0.0114
   48PHE     CH  614   4.168   0.962   2.834 -0.1892  0.1470 -0.0242
   48PHE     CH  615   4.142   0.926   2.967  0.1643  0.1320  0.0412
   48PHE     CH  616   4.192   0.806   3.019  0.2017  0.2654  0.3145
   48PHE     CH  617   4.267   0.719   2.939  0.1445  0.3269  0.1940
   48PHE     OH  618   4.391   0.683   2.739 -0.2932  0.3557 -0.0117
   48PHE     HC  619   4.254   0.906   2.652  1.4111 -2.0633 -0.8003
   48PHE     HC  620   4.131   1.055   2.793 -0.9472  0.9338  2.2957
   48PHE     HC  621   4.074   0.999   3.007 -1.1030 -0.1162 -1.5534
   48PHE     HC  622   4.168   0.776   3.119  1.0590  2.1677  1.1368
   48PHE     HC  623   4.311   0.628   2.977  0.6595  0.3779 -0.2602
   48PHE     HO  624   4.428   0.707   2.656  2.2832  2.2161  1.4853
   49PHE     CO  625   3.212   0.818   2.773 -0.1389 -0.3992 -0.0705
   49PHE     CH  626   3.183   0.955   2.772  0.0260 -0.3622  0.2722
   49PHE     CH  627   3.282   1.041   2.725 -0.4753 -0.0385 -0.1983
   49PHE     CH  628   3.402   0.992   2.674 -0.5538 -0.2579 -0.1690
   49PHE     CH  629   3.432   0.855   2.684 -0.2983 -0.1618  0.3729
   49PHE     CH  630   3.338   0.767   2.739  0.0843 -0.3710  0.7008
   49PHE     OH  631   3.115   0.729   2.808 -0.2205 -0.0181  0.6819
   49PHE     HC  632   3.090   0.995   2.810  0.8641 -0.2591  2.3445
   49PHE     HC  633   3.252   1.145   2.716 -0.1636 -0.0231 -1.1934
   49PHE     HC  634   3.469   1.061   2.624 -0.3332 -1.9645 -2.3952
   49PHE     HC  635   3.532   0.817   2.669  0.2968 -0.6562  4.4095
   49PHE     HC  636   3.362   0.662   2.729  2.9650  0.3438 -0.9212
   49PHE     HO  637   3.030   0.767   2.826  0.3758  0.9981  1.4820
   50PHE     CO  638   4.895   5.056   2.410 -0.2142 -0.2096  0.4767
   50PHE     CH  639   4.983   4.981   2.488 -0.1790 -0.5900  0.0690
   50PHE     CH  640   5.069   4.892   2.421 -0.3398 -0.7105  0.0218
   50PHE     CH  641   5.060   4.868   2.284  0.0061  0.3307 -0.1913
   50PHE     CH  642   4.966   4.940   2.209 -0.9584 -0.6538  0.0539
   50PHE     CH  643   4.898   5.045   2.271  0.4197  0.0122  0.4694
   50PHE     OH  644   4.822   0.056   2.467 -0.2236 -0.0124  0.1223
   50PHE     HC  645   4.997   4.996   2.594  1.1051 -0.1892 -0.1413
   50PHE     HC  646   0.044   4.830   2.468 -1.7153 -1.9611  0.6635
   50PHE     HC  647   0.022   4.792   2.239 -0.8461 -0.0361 -0.7746
   50PHE     HC  648   4.967   4.932   2.101  0.4177  1.0844 -0.1085
   50PHE     HC  649   4.838   0.010   2.208  0.2244 -0.7905 -0.1831
   50PHE     HO  650   4.766   0.109   2.412  1.6390 -0.6032 -2.4883
   51PHE     CO  651   1.308   2.153   2.423  0.2520 -0.2863  0.1786
   51PHE     CH  652   1.335   2.124   2.557 -0.3009 -0.2974  0.2931
   51PHE     CH  653   1.225   2.112   2.642 -0.2196  0.2164  0.4748
   51PHE     CH  654   1.094   2.130   2.597 -0.1036 -0.2674 -0.0669
   51PHE     CH  655   1.066   2.150   2.461 -0.3905 -0.0285  0.0252
   51PHE     CH  656   1.176   2.166   2.376  0.1021 -0.0703  0.6496
   51PHE     OH  657   1.410   2.159   2.333  0.3207  0.1162  0.2795
   51PHE     HC  658   1.436   2.103   2.589 -0.2305  1.0735  1.0109
   51PHE     HC  659   1.240   2.075   2.742 -1.8004  2.2244  1.5384
   51PHE     HC  660   1.023   2.105   2.675 -0.6450 -1.3005 -0.8538
   51PHE     HC  661   0.965   2.170   2.428  0.6709  2.0251 -2.3146
   51PHE     HC  662   1.164   2.177   2.269  0.7893 -0.5934  0.5086
   51PHE     HO  663   1.485   2.106   2.356  1.1578  1.9742  2.0878
   52PHE     CO  664   4.239   0.059   0.338  0.6475 -0.3554 -0.2458
   52PHE     CH  665   4.341   0.048   0.243  0.5110  0.0944 -0.4478
   52PHE     CH  666   4.316   5.082   0.122  0.2180  0.0311 -0.3513
   52PHE     CH  667   4.192   5.019   0.101 -0.0338  0.1458  0.7200
   52PHE     CH  668   4.085   5.050   0.185 -0.3546  0.4286  0.2076
   52PHE     CH  669   4.109   0.020   0.304  0.3037  0.5794 -0.0092
   52PHE     OH  670   4.262   0.131   0.452 -0.0423 -0.8336  0.2024
   52PHE     HC  671   4.437   0.092   0.266  0.8038  0.0976 -1.6018
   52PHE     HC  672   4.397   5.063   0.054 -0.8859 -0.3586 -1.6145
   52PHE     HC  673   4.172   4.980   0.002 -1.1948  3.1340 -0.3181
   52PHE     HC  674   3.991   5.021   0.141 -0.6577  3.1838 -1.2050
   52PHE     HC  675   4.026   0.043   0.370  1.1479  1.2017  0.8723
   52PHE     HO  676   4.327   0.194   0.427  1.7427 -1.1133  3.5595
   53PHE     CO  677   4.128   0.580   4.167  0.2539  0.7495  0.0516
   53PHE     CH  678   4.249   0.651   4.173  0.5324  0.2347  0.6541
   53PHE     CH  679   4.348   0.621   4.079 -0.0660 -0.0558  0.1150
   53PHE     CH  680   4.332   0.512   3.992 -0.3453  0.2890 -0.2680
   53PHE     CH  681   4.214   0.437   3.988 -0.2977  0.1967  0.0703
   53PHE     CH  682   4.113   0.473   4.079 -0.1005  0.7964  0.0547
   53PHE     OH  683   4.023   0.599   4.252  0.0119 -0.1271 -0.0461
   53PHE     HC  684   4.270   0.723   4.252 -1.4170  3.1973 -1.3049
   53PHE     HC  685   4.443   0.671   4.071 -0.7718  1.4904  1.0919
   53PHE     HC  686   4.415   0.492   3.925 -3.0403 -0.6372 -3.6556
   53PHE     HC  687   4.205   0.342   3.938  2.5935 -0.1913  0.1115
   53PHE     HC  688   4.019   0.421   4.088  0.0861  0.5050  0.3407
   53PHE     HO  689   4.057   0.612   4.340 -0.9168  0.1608  0.2746
   54PHE     CO  690   1.710   0.291   0.441  0.1685  0.0994  0.1141
   54PHE     CH  691   1.657   0.282   0.312  0.8060  0.6571 -0.1945
   54PHE     CH  692   1.643   0.401   0.239 -0.0944  0.1708 -0.8267
   54PHE     CH  693   1.700   0.516   0.294 -0.5322 -0.2050  0.4640
   54PHE     CH  694   1.754   0.529   0.422 -0.1967  0.2304  0.2837
   54PHE     CH  695   1.753   0.412   0.499  0.7152 -0.0090 -0.0550
   54PHE     OH  696   1.720   0.173   0.509 -0.2973  0.2842  0.5018
   54PHE     HC  697   1.630   0.184   0.276  0.1815  1.1355 -1.0555
   54PHE     HC  698   1.603   0.409   0.139  0.3235 -1.0140 -1.1122
   54PHE     HC  699   1.697   0.606   0.233 -0.2391 -0.9624 -0.7150
   54PHE     HC  700   1.789   0.623   0.463  1.0728 -0.2414  0.3362
   54PHE     HC  701   1.787   0.418   0.601  1.4464  1.3645 -0.3688
   54PHE     HO  702   1.653   0.117   0.472  0.3933 -0.5832  0.5502
   55PHE     CO  703   2.144   1.902   1.738  0.3121 -0.2185 -0.3750
   55PHE     CH  704   2.119   2.021   1.667  0.6885  0.3256  0.3891
   55PHE     CH  705   2.228   2.084   1.608  0.1445  0.6898 -0.2434
   55PHE     CH  706   2.357   2.030   1.616  0.0019  0.1851 -1.1419
   55PHE     CH  707   2.384   1.918   1.696  0.4025  1.0825  0.0191
   55PHE     CH  708   2.274   1.852   1.751  0.5887  0.4970 -0.3030
   55PHE     OH  709   2.036   1.832   1.782 -0.0117  0.8022  0.4940
   55PHE     HC  710   2.017   2.055   1.655  0.1667 -1.3695 -0.2794
   55PHE     HC  711   2.213   2.176   1.553  0.4760  0.7479 -0.2407
   55PHE     HC  712   2.435   2.087   1.568 -1.2725  3.0463 -0.0328
   55PHE     HC  713   2.482   1.872   1.697 -0.4904 -0.8942  0.8397
   55PHE     HC  714   2.292   1.764   1.811  1.3683  1.0439  0.2936
   55PHE     HO  715   2.049   1.759   1.841 -0.7544 -0.0040 -0.3073
   56PHE     CO  716   1.387   2.551   2.451  0.1536 -0.0727 -0.0381
   56PHE     CH  717   1.417   2.648   2.548 -0.2887 -0.3127  0.3429
   56PHE     CH  718   1.314   2.700   2.628 -0.5766 -0.2499 -0.0622
   56PHE     CH  719   1.181   2.667   2.598 -0.4889 -0.3999 -0.2872
   56PHE     CH  720   1.148   2.569   2.504 -0.1281 -0.7363 -0.0635
   56PHE     CH  721   1.254   2.512   2.431  0.1847 -0.1713 -0.0536
   56PHE     OH  722   1.480   2.508   2.362  0.1368 -0.3679  0.0866
   56PHE     HC  723   1.518   2.683   2.557 -0.3096 -0.2308  0.2559
   56PHE     HC  724   1.329   2.765   2.713 -0.3857 -2.2165  1.4905
   56PHE     HC  725   1.106   2.715   2.658  0.2420  1.7004 -0.9553
   56PHE     HC  726   1.044   2.556   2.482 -0.1483  0.3608 -0.6851
   56PHE     HC  727   1.232   2.447   2.348 -2.2780  0.2046  0.2097
   56PHE     HO  728   1.435   2.448   2.303 -0.4034  0.8565 -0.7971
   57PHE     CO  729   3.128   0.357   0.570  0.7773  0.2027  0.5735
   57PHE     CH  730   3.113   0.295   0.694  0.6750 -0.5730  0.1749
   57PHE     CH  731   3.055   0.371   0.795  0.9217 -0.0489 -0.0778
   57PHE     CH  732   3.002   0.500   0.779 -1.1707 -0.8610 -0.0299
   57PHE     CH  733   3.030   0.559   0.655 -0.0083  0.1394  0.6762
   57PHE     CH  734   3.078   0.485   0.545 -1.0013 -0.4615  0.6293
   57PHE     OH  735   3.174   0.281   0.466 -0.1041 -0.1288  0.4200
   57PHE     HC  736   3.152   0.194   0.701  0.4040 -0.6755  0.1942
   57PHE     HC  737   3.050   0.324   0.892  0.5256  0.4281  0.1407
   57PHE     HC  738   2.965   0.554   0.865  0.4253 -0.4634  0.4385
   57PHE     HC  739   2.997   0.658   0.628  0.2642 -0.5515 -2.7195
   57PHE     HC  740   3.089   0.530   0.448  0.3806 -0.3866  0.7990
   57PHE     HO  741   3.209   0.197   0.493 -1.9402 -1.3935 -0.9150
   58PHE     CO  742   1.224   0.942   3.750 -0.0728 -0.0337 -0.2554
   58PHE     CH  743   1.311   0.851   3.689  0.1693 -0.2871  0.4594
   58PHE     CH  744   1.261   0.735   3.629  0.0015  0.0436 -0.0558
   58PHE     CH  745   1.123   0.712   3.632 -0.0415  0.3120  0.0437
   58PHE     CH  746   1.036   0.795   3.703 -0.2178  0.1158  0.0570
   58PHE     CH  747   1.089   0.909   3.765  0.0086 -0.1197  0.3043
   58PHE     OH  748   1.274   1.056   3.805 -0.1537 -0.2011  0.1683
   58PHE     HC  749   1.418   0.870   3.687  0.4595 -1.6946  1.3768
   58PHE     HC  750   1.317   0.654   3.584  1.6449  0.8566  0.4237
   58PHE     HC  751   1.079   0.620   3.597 -1.4742  0.3998  1.5209
   58PHE     HC  752   0.930   0.775   3.706 -0.2984  0.1575 -1.8614
   58PHE     HC  753   1.033   0.979   3.826  0.9452  1.1583 -0.2562
   58PHE     HO  754   1.360   1.046   3.843 -0.9124 -3.3205  1.3542
   59PHE     CO  755   4.009   0.689   4.611 -0.2403  0.2763 -0.4021
   59PHE     CH  756   3.913   0.654   4.706 -0.0488 -0.1106 -0.3514
   59PHE     CH  757   3.821   0.751   4.748  0.4359 -0.1527  0.8347
   59PHE     CH  758   3.828   0.881   4.697  0.0559 -0.3870  0.1841
   59PHE     CH  759   3.923   0.918   4.601 -0.1006 -0.1338  0.1265
   59PHE     CH  760   4.017   0.821   4.565  0.0029  0.2125 -0.5436
   59PHE     OH  761   4.086   0.594   4.551 -0.3746 -0.1454  0.0893
   59PHE     HC  762   3.906   0.552   4.743 -2.2144  0.7933  2.0392
   59PHE     HC  763   3.755   0.724   4.829 -0.2932  0.1510  0.3468
   59PHE     HC  764   3.762   0.962   4.725  0.3073 -0.4351  0.9270
   59PHE     HC  765   3.936   1.011   4.548  2.3748 -1.3220 -1.5503
   59PHE     HC  766   4.103   0.851   4.507  1.9442 -0.3210  1.8911
   59PHE     HO  767   4.070   0.506   4.580 -0.6935 -0.5815 -1.3482
   60PHE     CO  768   2.432   3.774   1.688  0.1423  0.1127  0.0637
   60PHE     CH  769   2.323   3.749   1.604  0.3163  0.0084 -0.1310
   60PHE     CH  770   2.350   3.675   1.488  0.4129  0.1922 -0.2247
   60PHE     CH  771   2.477   3.624   1.463  0.2876  0.0286 -0.5304
   60PHE     CH  772   2.586   3.651   1.547 -0.0210 -0.0858 -0.0941
   60PHE     CH  773   2.561   3.728   1.661  0.1972  0.5752 -0.4863
   60PHE     OH  774   2.413   3.824   1.814 -0.6816 -0.3697  0.1326
   60PHE     HC  775   2.225   3.782   1.633  1.8242  2.3138  2.8845
   60PHE     HC  776   2.258   3.649   1.437  0.0149 -0.2837  0.7200
   60PHE     HC  777   2.476   3.563   1.374  0.6590  1.9907 -1.9467
   60PHE     HC  778   2.682   3.606   1.527 -0.2802 -0.4663 -0.4934
   60PHE     HC  779   2.648   3.732   1.726 -0.7043 -1.2554  0.9088
   60PHE     HO  780   2.321   3.837   1.835 -0.8071  1.2329 -1.2561
   61PHE     CO  781   1.115   4.872   1.037 -0.4231 -0.2976  0.2943
   61PHE     CH  782   1.046   4.797   1.134 -0.6974 -0.3897  0.0304
   61PHE     CH  783   0.911   4.826   1.158 -0.6546 -0.1330 -0.0346
   61PHE     CH  784   0.847   4.939   1.106 -0.5345  0.0245  0.1571
   61PHE     CH  785   0.924   5.024   1.025 -0.0533 -0.6040 -0.0490
   61PHE     CH  786   1.056   4.991   0.992  0.0437 -0.2015 -0.0684
   61PHE     OH  787   1.243   4.848   0.996 -0.4625  0.2330 -0.1470
   61PHE     HC  788   1.103   4.716   1.176 -0.0784 -0.6152 -1.1989
   61PHE     HC  789   0.849   4.770   1.226  1.5833 -1.2070  1.2470
   61PHE     HC  790   0.746   4.965   1.132 -0.4611  0.0509  0.4119
   61PHE     HC  791   0.864   0.006   0.990 -1.2486 -2.0424 -1.5546
   61PHE     HC  792   1.117   5.061   0.937  0.5207 -0.2579  0.3799
   61PHE     HO  793   1.271   4.911   0.932  0.9123 -0.3024 -0.0920
   62PHE     CO  794   0.013   0.432   1.140 -0.2191  0.5240 -0.4032
   62PHE     CH  795   5.054   0.451   1.015 -0.2181 -0.2137 -0.5223
   62PHE     CH  796   4.952   0.547   1.005 -0.1358 -0.0806 -0.0989
   62PHE     CH  797   4.919   0.628   1.114  0.0627 -0.0457 -0.0647
   62PHE     CH  798   4.973   0.601   1.240  0.1533  0.1955 -0.0510
   62PHE     CH  799   5.073   0.504   1.253 -0.0907 -0.0499  0.0138
   62PHE     OH  800   0.110   0.337   1.154 -0.1400  0.5782 -0.5843
   62PHE     HC  801   5.085   0.396   0.927  2.9481 -2.4172  1.7682
   62PHE     HC  802   4.901   0.566   0.911 -0.6032 -1.1495 -0.0724
   62PHE     HC  803   4.841   0.702   1.102  0.2083  0.3560  1.3117
   62PHE     HC  804   4.945   0.654   1.330  0.8450  1.1445 -0.3725
   62PHE     HC  805   0.021   0.488   1.349 -0.1933  0.8595  0.2293
   62PHE     HO  806   0.167   0.363   1.224 -1.4015  2.3755 -0.1722
   63PHE     CO  807   4.500   0.417   4.584 -0.4054 -0.4256  0.0405
   63PHE     CH  808   4.477   0.399   4.447  0.4491 -0.3189 -0.1213
   63PHE     CH  809   4.591   0.377   4.369  0.2687 -0.0944 -0.4491
   63PHE     CH  810   4.721   0.357   4.416  0.0012 -0.6041  0.0857
   63PHE     CH  811   4.736   0.359   4.555  0.1569  0.1151  0.0647
   63PHE     CH  812   4.628   0.395   4.637 -0.0398  0.5870 -0.3951
   63PHE     OH  813   4.401   0.469   4.661 -0.0083  0.1770  0.1519
   63PHE     HC  814   4.379   0.419   4.408  0.3918  1.5098  0.8464
   63PHE     HC  815   4.573   0.376   4.262  0.2136  0.6591 -0.4542
   63PHE     HC  816   4.792   0.335   4.337  0.1869 -1.6606  0.5262
   63PHE     HC  817   4.834   0.337   4.594  0.1101 -1.1192 -0.4657
   63PHE     HC  818   4.658   0.411   4.740  0.5318  1.3546 -0.6768
   63PHE     HO  819   4.328   0.507   4.615 -0.9177 -1.6819 -0.0379
   64PHE     CO  820   1.176   3.680   2.404  0.0809  0.3253  0.1939
   64PHE     CH  821   1.162   3.819   2.405  0.5115  0.3774 -0.3508
   64PHE     CH  822   1.218   3.894   2.301  0.3171  0.3086 -0.5075
   64PHE     CH  823   1.291   3.833   2.198 -0.1558 -0.2198 -0.5304
   64PHE     CH  824   1.315   3.696   2.208  0.4685 -0.0754  0.0234
   64PHE     CH  825   1.257   3.618   2.309 -0.4248  0.2751 -0.2088
   64PHE     OH  826   1.120   3.608   2.505 -0.1377  0.6258  0.2884
   64PHE     HC  827   1.090   3.867   2.471  0.1832 -0.0474 -0.3939
   64PHE     HC  828   1.191   3.998   2.312 -0.2681  0.0633  0.5522
   64PHE     HC  829   1.332   3.885   2.113 -0.1210 -0.9246 -0.9535
   64PHE     HC  830   1.386   3.661   2.134  0.8726  1.2271 -0.2337
   64PHE     HC  831   1.271   3.511   2.318 -1.4757  0.0786 -0.7782
   64PHE     HO  832   1.111   3.516   2.486  2.8462  0.0900  0.9243
   65PHE     CO  833   0.580   1.366   0.986 -0.3457  0.2908  0.2011
   65PHE     CH  834   0.526   1.298   0.876 -0.4468  0.3828  0.1940
   65PHE     CH  835   0.602   1.296   0.758 -0.0888  0.7593  0.4159
   65PHE     CH  836   0.725   1.363   0.749  0.3418 -0.0237  0.3003
   65PHE     CH  837   0.772   1.435   0.860  0.0212  0.0886  0.3661
   65PHE     CH  838   0.704   1.431   0.982 -0.1668 -0.0464  0.2556
   65PHE     OH  839   0.519   1.350   1.107 -0.4459 -0.4444  0.0603
   65PHE     HC  840   0.439   1.235   0.882 -1.0789  1.0670 -1.2486
   65PHE     HC  841   0.579   1.244   0.666  0.2983  0.7273  0.3325
   65PHE     HC  842   0.789   1.351   0.664  1.0079  0.2218  0.7586
   65PHE     HC  843   0.868   1.486   0.866  0.2263 -0.3499  0.8041
   65PHE     HC  844   0.763   1.480   1.058  0.4419 -0.2566 -0.0748
   65PHE     HO  845   0.575   1.379   1.177  1.1843  0.3710 -1.5100
   66PHE     CO  846   1.306   1.902   1.190 -0.7423  0.4202 -0.2353
   66PHE     CH  847   1.292   1.945   1.057 -0.2563 -0.2955 -0.5214
   66PHE     CH  848   1.278   2.080   1.025 -0.9713 -0.3319 -0.3608
   66PHE     CH  849   1.247   2.167   1.131  0.8682 -0.0719 -0.0054
   66PHE     CH  850   1.254   2.128   1.266 -0.7172 -0.0215  0.1172
   66PHE     CH  851   1.286   1.995   1.293 -0.0774  0.1340  0.1556
   66PHE     OH  852   1.343   1.773   1.213 -0.5975  0.4413 -0.3506
   66PHE     HC  853   1.302   1.875   0.976  1.1946  0.0354 -0.6611
   66PHE     HC  854   1.275   2.122   0.925 -0.0817 -1.6905 -0.9772
   66PHE     HC  855   1.222   2.268   1.105  1.7779 -0.5444 -3.1720
   66PHE     HC  856   1.250   2.197   1.349  0.7310 -0.7239  0.8175
   66PHE     HC  857   1.296   1.961   1.395  0.7126 -0.2302 -0.0314
   66PHE     HO  858   1.347   1.742   1.302  2.8082  0.0992 -0.4925
   67PHE     CO  859   1.073   5.056   3.477  0.1752  0.2477  0.6363
   67PHE     CH  860   0.936   5.032   3.491  0.2265 -0.2109  0.3595
   67PHE     CH  861   0.846   0.039   3.482  0.5472  0.0436  0.1727
   67PHE     CH  862   0.895   0.168   3.463 -0.4893  0.4390  0.1073
   67PHE     CH  863   1.032   0.195   3.449 -0.2527 -0.4593  0.6431
   67PHE     CH  864   1.120   0.087   3.459  0.4628  0.0673  0.0914
   67PHE     OH  865   1.153   4.946   3.485  0.0244  0.0846 -0.0398
   67PHE     HC  866   0.902   4.931   3.512  1.8773 -0.8786 -0.0377
   67PHE     HC  867   0.739   0.023   3.485  0.4908  0.1407 -0.7785
   67PHE     HC  868   0.820   0.245   3.454  0.9776  1.7995 -1.2150
   67PHE     HC  869   1.062   0.295   3.422 -1.8327 -0.3618 -0.8585
   67PHE     HC  870   1.224   0.112   3.439  0.0795  1.7870  0.1093
   67PHE     HO  871   1.121   4.861   3.457  3.4906 -1.3569 -0.0469
   68PHE     CO  872   1.433   0.092   0.919 -0.6732  0.0192 -0.7329
   68PHE     CH  873   1.359   0.168   1.010  0.1453 -0.0110 -0.0355
   68PHE     CH  874   1.369   0.307   1.003  0.1839 -0.0308 -0.3742
   68PHE     CH  875   1.446   0.367   0.902 -0.2441  0.9982 -0.1060
   68PHE     CH  876   1.533   0.289   0.825  0.2498  0.4263  0.9960
   68PHE     CH  877   1.524   0.149   0.829 -0.6087  0.4179 -0.4166
   68PHE     OH  878   1.439   5.056   0.928 -0.5139  0.1059  0.6365
   68PHE     HC  879   1.285   0.117   1.071  0.1210  0.0920  0.0202
   68PHE     HC  880   1.316   0.375   1.068  1.3251  0.5254  0.0190
   68PHE     HC  881   1.446   0.474   0.890  2.7546  1.0494 -0.4137
   68PHE     HC  882   1.613   0.327   0.764  2.0472 -2.2249  1.5100
   68PHE     HC  883   1.587   0.093   0.762  1.1248  0.9660  0.6828
   68PHE     HO  884   1.483   5.018   0.854 -0.8948 -0.8784  0.9068
   69PHE     CO  885   2.164   4.305   1.949  0.2694 -0.2547 -0.3923
   69PHE     CH  886   2.238   4.233   1.854  0.4192  0.6398 -0.9587
   69PHE     CH  887   2.374   4.263   1.843  0.6349 -0.1169 -0.4234
   69PHE     CH  888   2.435   4.351   1.933 -0.6962  0.4375 -0.0299
   69PHE     CH  889   2.363   4.413   2.035 -0.4476  0.0391  0.3879
   69PHE     CH  890   2.226   4.388   2.043 -0.4282 -0.1946  0.0167
   69PHE     OH  891   2.030   4.290   1.964  0.2536  0.4648  0.2782
   69PHE     HC  892   2.185   4.165   1.788 -2.1888  1.9231 -0.3405
   69PHE     HC  893   2.433   4.223   1.762  1.7916  3.3147 -1.4685
   69PHE     HC  894   2.543   4.353   1.927 -0.6926 -0.0536 -0.1132
   69PHE     HC  895   2.400   4.481   2.111  3.1211 -0.0242 -1.1143
   69PHE     HC  896   2.177   4.432   2.129  2.5839 -0.4929  2.0394
   69PHE     HO  897   1.995   4.317   2.048 -0.4476  0.4724 -0.0062
   70PHE     CO  898   1.779   1.842   1.513  0.4460  0.2091 -0.1922
   70PHE     CH  899   1.740   1.945   1.599  0.0832  0.2994 -0.4632
   70PHE     CH  900   1.647   2.042   1.557 -0.2439  0.3195  0.2878
   70PHE     CH  901   1.606   2.035   1.423 -0.1735 -0.6585  0.3049
   70PHE     CH  902   1.640   1.930   1.338 -0.7436 -0.8444  0.2995
   70PHE     CH  903   1.727   1.830   1.383  0.5514  0.0232 -0.2176
   70PHE     OH  904   1.858   1.744   1.566 -0.4116  0.2376  1.1894
   70PHE     HC  905   1.783   1.946   1.698  1.1738  0.9361 -0.9296
   70PHE     HC  906   1.606   2.114   1.626 -0.9956  0.4740 -0.3115
   70PHE     HC  907   1.533   2.104   1.383  1.8858  0.9117 -0.9280
   70PHE     HC  908   1.592   1.925   1.242  0.5719  1.1940 -0.5306
   70PHE     HC  909   1.749   1.741   1.326 -2.1490 -0.7813 -0.1513
   70PHE     HO  910   1.930   1.763   1.623 -1.3748 -0.4682  2.6874
   71PHE     CO  911   1.773   1.418   3.022  0.6056  0.8155 -0.1651
   71PHE     CH  912   1.734   1.487   3.137 -0.2565  0.0376  0.0148
   71PHE     CH  913   1.766   1.436   3.264  0.1575 -0.4262 -0.2731
   71PHE     CH  914   1.832   1.314   3.280 -0.4317 -0.6873  0.2106
   71PHE     CH  915   1.864   1.245   3.162  0.0218  0.0734 -0.1174
   71PHE     CH  916   1.837   1.294   3.034 -0.2678  0.3823  0.0608
   71PHE     OH  917   1.736   1.465   2.899 -0.4531 -0.1552 -0.2332
   71PHE     HC  918   1.686   1.582   3.118 -0.7539  0.3746  2.5667
   71PHE     HC  919   1.732   1.495   3.347 -1.5357  1.4495 -2.1695
   71PHE     HC  920   1.854   1.259   3.371 -2.1099 -0.5452  0.7331
   71PHE     HC  921   1.901   1.144   3.170 -1.1714 -0.5766 -2.1728
   71PHE     HC  922   1.853   1.237   2.944  0.2428  0.7084 -0.0584
   71PHE     HO  923   1.760   1.402   2.833 -1.5627 -0.0083 -0.8009
   72PHE     CO  924   0.795   0.237   2.284 -0.0316  0.2494 -0.0663
   72PHE     CH  925   0.665   0.260   2.238  0.0072 -0.4282 -0.5301
   72PHE     CH  926   0.638   0.250   2.100 -0.4087 -0.6526 -0.4330
   72PHE     CH  927   0.739   0.216   2.009 -0.0074 -0.1987 -0.1677
   72PHE     CH  928   0.867   0.188   2.059  0.2247  0.5304 -0.3425
   72PHE     CH  929   0.896   0.197   2.195 -0.0973  0.5466 -0.2739
   72PHE     OH  930   0.815   0.266   2.416 -0.0698  0.1817 -0.0453
   72PHE     HC  931   0.590   0.299   2.305 -0.4147  1.6506 -2.0899
   72PHE     HC  932   0.543   0.271   2.055 -0.7163 -1.2168 -0.0570
   72PHE     HC  933   0.729   0.210   1.902  2.0091  0.2288 -0.4127
   72PHE     HC  934   0.950   0.160   1.995  0.3618 -0.4525  0.2498
   72PHE     HC  935   0.995   0.176   2.232 -0.6015 -0.7940  0.3606
   72PHE     HO  936   0.757   0.221   2.475  0.2934 -1.0004 -0.5635
   73PHE     CO  937   3.540   4.999   4.972 -0.5145  0.2505  0.1978
   73PHE     CH  938   3.400   5.012   4.966 -0.5168  0.0775 -0.1758
   73PHE     CH  939   3.334   5.090   5.061  0.1474  0.2198  0.1759
   73PHE     CH  940   3.406   0.037   0.072  0.1191 -0.8265  0.6414
   73PHE     CH  941   3.545   0.030   0.078  0.1918 -0.0157  0.0641
   73PHE     CH  942   3.611   5.059   5.076  0.0316 -0.2255  0.1052
   73PHE     OH  943   3.607   4.937   4.870 -0.0568 -0.0406  0.6725
   73PHE     HC  944   3.343   4.972   4.884 -0.7308  0.4430 -0.2084
   73PHE     HC  945   3.228   0.009   5.057 -0.2523 -1.8814 -0.0948
   73PHE     HC  946   3.350   0.086   0.151  2.0480  1.1343  0.8749
   73PHE     HC  947   3.602   0.071   0.160 -0.7633 -1.0915  1.3050
   73PHE     HC  948   3.718   5.049   5.073  0.0458 -0.0982  0.1489
   73PHE     HO  949   3.545   4.907   4.805  1.3878  1.3277 -1.4410
   74PHE     CO  950   3.752   0.664   0.427 -0.5119 -0.5025  0.6405
   74PHE     CH  951   3.871   0.591   0.438 -0.6725 -0.8595  0.0341
   74PHE     CH  952   3.927   0.561   0.563  0.3624  0.2409 -0.1405
   74PHE     CH  953   3.853   0.587   0.679  0.1266 -0.2301 -0.1813
   74PHE     CH  954   3.733   0.658   0.664  0.0864 -0.1690  0.4003
   74PHE     CH  955   3.678   0.698   0.541 -0.4442 -0.2450  0.6095
   74PHE     OH  956   3.716   0.715   0.306 -0.0358  0.1355  0.7568
   74PHE     HC  957   3.930   0.563   0.352  2.6268  0.9185  1.5048
   74PHE     HC  958   4.021   0.510   0.573  0.2176 -0.0016 -0.0113
   74PHE     HC  959   3.882   0.553   0.777  0.9218 -0.4998 -0.4971
   74PHE     HC  960   3.676   0.691   0.749  1.4118  0.6156  1.0179
   74PHE     HC  961   3.583   0.748   0.532 -0.9378 -1.2939 -0.2132
   74PHE     HO  962   3.639   0.769   0.309 -0.1216 -0.0255  1.4855
   75PHE     CO  963   0.273   0.858   1.345 -0.2606 -0.0683 -0.1940
   75PHE     CH  964   0.286   0.979   1.275 -0.2368  0.3180  0.4683
   75PHE     CH  965   0.398   1.057   1.306  0.0539  0.0834  0.0150
   75PHE     CH  966   0.492   1.013   1.400  0.2524  0.1281 -0.1621
   75PHE     CH  967   0.471   0.894   1.470 -0.2805  0.2696 -0.0768
   75PHE     CH  968   0.364   0.808   1.439 -0.3618  0.3056  0.1043
   75PHE     OH  969   0.159   0.787   1.324 -0.0637 -0.1200 -1.1013
   75PHE     HC  970   0.211   1.012   1.205 -0.1531 -0.8684 -0.1976
   75PHE     HC  971   0.406   1.147   1.248 -0.0494  0.0866  0.0050
   75PHE     HC  972   0.580   1.073   1.418  0.5779 -1.1659  3.4902
   75PHE     HC  973   0.548   0.858   1.536 -1.5203 -2.4482  0.0257
   75PHE     HC  974   0.352   0.707   1.475  0.2406  0.8432  1.9693
   75PHE     HO  975   0.124   0.796   1.237 -2.4957 -3.5468 -0.6917
   76PHE     CO  976   1.061   0.512   0.408 -0.0626 -0.0868 -0.0445
   76PHE     CH  977   1.098   0.491   0.541 -0.2134 -0.2301 -0.0248
   76PHE     CH  978   1.219   0.427   0.567 -0.2491 -0.2689  0.0464
   76PHE     CH  979   1.296   0.375   0.462  0.3996  0.2525  0.2515
   76PHE     CH  980   1.249   0.384   0.330 -0.2326 -0.3229  0.4314
   76PHE     CH  981   1.133   0.457   0.301 -0.1944 -0.4186  0.0340
   76PHE     OH  982   0.943   0.575   0.381 -0.0473  0.0223  0.1466
   76PHE     HC  983   1.035   0.529   0.620 -0.5268 -1.0382  0.1292
   76PHE     HC  984   1.246   0.406   0.670  0.1117 -0.1404 -0.0211
   76PHE     HC  985   1.389   0.324   0.480 -0.2782 -0.3670  2.2770
   76PHE     HC  986   1.302   0.336   0.250 -2.3765 -2.5697  0.2283
   76PHE     HC  987   1.107   0.457   0.196 -2.0469 -3.1485  0.4003
   76PHE     HO  988   0.924   0.580   0.289 -0.4755 -0.6101  0.1935
   77PHE     CO  989   0.380   0.370   1.345 -0.5827  0.0416 -0.4119
   77PHE     CH  990   0.480   0.272   1.346 -0.7451 -0.1257 -0.4507
   77PHE     CH  991   0.604   0.294   1.286 -0.5442 -0.1363 -0.0413
   77PHE     CH  992   0.637   0.421   1.237  0.1906 -0.1963  0.2679
   77PHE     CH  993   0.537   0.519   1.234 -0.0363 -0.4464 -0.6133
   77PHE     CH  994   0.408   0.492   1.281  0.2045  0.3675  0.5351
   77PHE     OH  995   0.258   0.344   1.400 -0.4837 -0.1498 -0.2819
   77PHE     HC  996   0.455   0.173   1.380 -2.0601  0.2978 -0.1208
   77PHE     HC  997   0.674   0.213   1.270 -0.0874  0.1914  0.2556
   77PHE     HC  998   0.732   0.444   1.191  0.3262 -1.1058  0.0808
   77PHE     HC  999   0.554   0.614   1.185  1.1989  0.7574  1.9560
   77PHE     HC 1000   0.332   0.567   1.267 -0.8354 -1.0541 -1.9268
   77PHE     HO 1001   0.250   0.266   1.452  1.0509 -0.8580 -1.0481
   78PHE     CO 1002   5.046   1.569   1.832 -0.1014  0.1424  0.0750
   78PHE     CH 1003   4.907   1.582   1.838 -0.0837  0.0685  0.7154
   78PHE     CH 1004   4.838   1.631   1.727 -0.2624 -0.9189  0.3754
   78PHE     CH 1005   4.904   1.665   1.608 -0.0305 -0.4857  0.6223
   78PHE     CH 1006   5.043   1.654   1.607  0.0606  0.6143 -0.2068
   78PHE     CH 1007   0.016   1.607   1.717 -0.4002  0.0714 -0.1309
   78PHE     OH 1008   0.015   1.526   1.942 -0.0294  0.5704  0.1975
   78PHE     HC 1009   4.848   1.559   1.926  0.1298 -1.7119  0.4398
   78PHE     HC 1010   4.730   1.636   1.735 -0.3954 -3.2755  0.6141
   78PHE     HC 1011   4.844   1.687   1.521  0.3263 -0.9549  0.2441
   78PHE     HC 1012   5.093   1.678   1.514 -1.4939  2.7729 -0.5537
   78PHE     HC 1013   0.123   1.603   1.705 -0.2689  0.8444  0.7003
   78PHE     HO 1014   0.102   1.561   1.954  0.3660 -1.0011  2.4234
   79PHE     CO 1015   4.486   4.936   2.134 -0.2300 -0.5171  0.0293
   79PHE     CH 1016   4.425   4.816   2.172  0.1397 -0.7739 -0.1720
   79PHE     CH 1017   4.413   4.795   2.310 -0.7247  0.6938  0.0006
   79PHE     CH 1018   4.479   4.875   2.404 -0.5147  0.0594  0.3998
   79PHE     CH 1019   4.555   4.984   2.360  0.1626 -0.6985 -0.3347
   79PHE     CH 1020   4.555   5.019   2.224  0.0413 -0.4212 -0.2637
   79PHE     OH 1021   4.477   4.965   2.001 -0.6809  0.2027  0.2113
   79PHE     HC 1022   4.372   4.748   2.107 -3.1659  2.4278 -1.1665
   79PHE     HC 1023   4.352   4.716   2.352  0.8906 -1.3789 -1.3679
   79PHE     HC 1024   4.473   4.858   2.511 -0.1215  0.3971  0.4804
   79PHE     HC 1025   4.611   5.054   2.420  0.5207  0.0210 -1.4718
   79PHE     HC 1026   4.598   0.006   2.178 -0.8704  0.3126  0.2265
   79PHE     HO 1027   4.466   4.885   1.952 -0.2000 -0.3808  1.0242
   80PHE     CO 1028   0.506   4.325   0.723 -0.0474  0.3152  0.0556
   80PHE     CH 1029   0.516   4.271   0.594 -0.4125 -0.3028  0.2820
   80PHE     CH 1030   0.403   4.268   0.511 -0.4526 -0.7568  0.3526
   80PHE     CH 1031   0.281   4.315   0.561 -0.3051 -0.5226  0.4950
   80PHE     CH 1032   0.274   4.374   0.688  0.5676  0.4722  0.0951
   80PHE     CH 1033   0.387   4.382   0.769  0.2891  0.6942  0.4644
   80PHE     OH 1034   0.610   4.331   0.811  0.2892 -0.0300 -0.3118
   80PHE     HC 1035   0.611   4.232   0.562  0.4868  1.6551  0.3815
   80PHE     HC 1036   0.426   4.237   0.410  0.1818 -0.2237  0.3213
   80PHE     HC 1037   0.186   4.317   0.509 -0.8985  2.0599  1.5370
   80PHE     HC 1038   0.187   4.424   0.728  1.0506  0.2197  1.4776
   80PHE     HC 1039   0.385   4.424   0.868  2.2665 -1.1243  1.3584
   80PHE     HO 1040   0.639   4.421   0.813  0.7790 -0.1876  0.0848
   81PHE     CO 1041   3.741   4.827   2.231  0.5327  0.7165 -0.1139
   81PHE     CH 1042   3.722   4.903   2.347 -0.8238 -0.7686  0.6764
   81PHE     CH 1043   3.611   4.987   2.360 -0.2674  0.0942 -0.0347
   81PHE     CH 1044   3.527   4.995   2.248 -0.6863 -0.3469  0.2447
   81PHE     CH 1045   3.544   4.917   2.133 -0.2854  0.2801 -0.1295
   81PHE     CH 1046   3.654   4.831   2.121 -0.1528  0.3722  0.4099
   81PHE     OH 1047   3.845   4.739   2.225  0.0322  0.1290 -0.1972
   81PHE     HC 1048   3.788   4.906   2.433 -0.0309 -0.4081  0.0667
   81PHE     HC 1049   3.590   5.047   2.448 -0.7525 -1.8925  1.2786
   81PHE     HC 1050   3.440   5.059   2.252 -0.3343  0.2695 -1.3045
   81PHE     HC 1051   3.462   4.902   2.064  0.3666 -1.6303 -0.5567
   81PHE     HC 1052   3.668   4.768   2.035  0.3711  0.2612  0.5732
   81PHE     HO 1053   3.883   4.732   2.139 -1.4846  1.1860 -1.0019
   82PHE     CO 1054   0.417   0.462   4.473 -0.8377  0.1348 -0.2886
   82PHE     CH 1055   0.396   0.600   4.483 -0.2182  0.2597 -0.6950
   82PHE     CH 1056   0.349   0.653   4.604  0.2605 -0.1614 -0.3162
   82PHE     CH 1057   0.338   0.578   4.721  0.2601  0.2317 -0.0636
   82PHE     CH 1058   0.373   0.442   4.716 -0.3846  0.0954 -0.8656
   82PHE     CH 1059   0.407   0.388   4.591  0.2412 -0.3583 -0.4977
   82PHE     OH 1060   0.449   0.405   4.353 -0.6464 -0.3687 -0.0008
   82PHE     HC 1061   0.415   0.663   4.398  0.3482 -1.4251 -1.8598
   82PHE     HC 1062   0.326   0.757   4.586  0.3730  0.1823  1.4131
   82PHE     HC 1063   0.309   0.628   4.812  0.0427 -2.1372  1.2586
   82PHE     HC 1064   0.371   0.380   4.804 -2.2045 -1.6606 -2.0646
   82PHE     HC 1065   0.422   0.281   4.581 -2.5303 -0.7729 -1.1636
   82PHE     HO 1066   0.544   0.402   4.355 -0.5294  1.7923  0.9554
   83PHE     CO 1067   3.138   4.946   3.830  0.1827 -0.1363 -0.0511
   83PHE     CH 1068   3.275   4.920   3.832  0.2651  0.2770 -0.1379
   83PHE     CH 1069   3.334   4.840   3.931 -0.3426 -0.7253 -0.5755
   83PHE     CH 1070   3.247   4.792   4.029  0.1281  0.0001  0.2019
   83PHE     CH 1071   3.110   4.823   4.033  0.1951  0.2990  0.2079
   83PHE     CH 1072   3.055   4.907   3.935 -0.0734 -0.5974 -0.4204
   83PHE     OH 1073   3.085   5.020   3.728 -0.0739 -0.1227  0.0917
   83PHE     HC 1074   3.342   4.947   3.751  1.5957 -0.2284  0.7562
   83PHE     HC 1075   3.440   4.819   3.929  0.3479  2.3691 -2.1235
   83PHE     HC 1076   3.290   4.726   4.103  1.1152  0.4054  0.0092
   83PHE     HC 1077   3.053   4.785   4.116  0.0339  0.6312  0.2497
   83PHE     HC 1078   2.952   4.939   3.942  0.9709  2.8840  0.8658
   83PHE     HO 1079   3.150   5.040   3.662 -2.0731 -1.1170 -2.3752
   84PHE     CO 1080   1.426   0.406   1.757  0.1183 -0.2670 -0.0318
   84PHE     CH 1081   1.291   0.387   1.786  0.0808 -0.1666 -0.1424
   84PHE     CH 1082   1.262   0.328   1.909  0.0597  0.0135 -0.0602
   84PHE     CH 1083   1.357   0.282   2.001 -0.3811 -0.1800  0.3013
   84PHE     CH 1084   1.491   0.304   1.970 -0.5410 -0.1522 -0.3726
   84PHE     CH 1085   1.524   0.366   1.849  0.2811 -0.1660 -0.1608
   84PHE     OH 1086   1.459   0.474   1.643  0.3114 -0.2036  0.0606
   84PHE     HC 1087   1.217   0.419   1.713  0.8138 -0.6210 -1.1069
   84PHE     HC 1088   1.161   0.306   1.941  0.7435 -0.7448  1.7259
   84PHE     HC 1089   1.327   0.237   2.095  0.7795 -0.8416  0.3720
   84PHE     HC 1090   1.566   0.272   2.041  1.3199  1.2860 -1.5882
   84PHE     HC 1091   1.629   0.384   1.828  0.9846 -0.3806  2.7126
   84PHE     HO 1092   1.536   0.452   1.592  1.8213  2.5053  0.9873
   85PHE     CO 1093   1.520   4.096   2.343 -0.2328 -0.4738 -0.0897
   85PHE     CH 1094   1.420   4.088   2.440  0.0953  0.1928  0.3120
   85PHE     CH 1095   1.343   4.201   2.473 -0.2424  0.0805 -0.0909
   85PHE     CH 1096   1.368   4.323   2.409 -0.0107 -0.0711 -0.2913
   85PHE     CH 1097   1.459   4.328   2.303  0.3488 -0.1286  0.0085
   85PHE     CH 1098   1.538   4.216   2.274  0.3660 -0.2353  0.4606
   85PHE     OH 1099   1.598   3.988   2.313  0.1939 -0.2052  0.0446
   85PHE     HC 1100   1.400   3.992   2.486  1.8560 -1.3854 -2.0244
   85PHE     HC 1101   1.263   4.202   2.545  0.4103  0.3449  0.6444
   85PHE     HC 1102   1.310   4.409   2.438  2.3120  0.8615  2.1008
   85PHE     HC 1103   1.453   4.428   2.263 -0.3026 -0.7357 -1.5047
   85PHE     HC 1104   1.615   4.222   2.198 -0.5109 -0.9152 -0.5250
   85PHE     HO 1105   1.563   3.907   2.346 -0.3712  0.4406  1.0740
   86PHE     CO 1106   0.245   3.024   1.787 -0.3215 -0.1903  0.1916
   86PHE     CH 1107   0.129   3.102   1.781 -0.1886 -0.0343 -0.4130
   86PHE     CH 1108   0.139   3.234   1.734  0.3368  0.2430  0.4420
   86PHE     CH 1109   0.262   3.285   1.690  0.0674  0.2866 -0.2741
   86PHE     CH 1110   0.376   3.204   1.690 -0.0857  0.0681 -0.0942
   86PHE     CH 1111   0.368   3.075   1.742 -0.2917  0.5458  1.0745
   86PHE     OH 1112   0.232   2.901   1.844  0.0067 -0.0045  0.6732
   86PHE     HC 1113   0.035   3.059   1.811  1.1672 -3.3364 -0.4312
   86PHE     HC 1114   0.049   3.293   1.724 -1.9977 -2.2991  3.9793
   86PHE     HC 1115   0.265   3.382   1.641  2.4749 -0.1046 -1.0497
   86PHE     HC 1116   0.467   3.238   1.643 -1.6531  1.3821 -2.3804
   86PHE     HC 1117   0.451   3.007   1.754  0.0465  0.8999  0.7787
   86PHE     HO 1118   0.304   2.845   1.820 -0.0589  0.1848  0.0192
   87PHE     CO 1119   1.047   0.236   3.992 -0.1632  0.2975  0.1998
   87PHE     CH 1120   1.087   0.307   3.878 -0.0724  0.2028  0.1720
   87PHE     CH 1121   0.991   0.377   3.804  0.1165  0.1038 -0.1645
   87PHE     CH 1122   0.861   0.387   3.855  0.1634 -0.1565  0.0075
   87PHE     CH 1123   0.826   0.327   3.976  0.3124 -0.4984 -0.1182
   87PHE     CH 1124   0.922   0.258   4.051 -0.1615 -0.4833  0.5143
   87PHE     OH 1125   1.125   0.138   4.048 -0.5195 -0.4866 -0.6581
   87PHE     HC 1126   1.188   0.296   3.845  0.2368  0.5697  0.9561
   87PHE     HC 1127   1.019   0.420   3.709  0.4504  0.1143 -0.0632
   87PHE     HC 1128   0.792   0.455   3.806  1.1516  1.5401  0.9021
   87PHE     HC 1129   0.723   0.347   4.003  1.1856  1.2954  2.0995
   87PHE     HC 1130   0.906   0.215   4.148  4.5903  2.2387  2.8458
   87PHE     HO 1131   1.192   0.115   3.986  0.2870  0.7716 -0.3070
   88PHE     CO 1132   0.692   0.190   4.420  0.1131 -0.1606 -0.1783
   88PHE     CH 1133   0.647   0.128   4.303 -0.0253  0.0770 -0.2507
   88PHE     CH 1134   0.645   5.088   4.293  0.0213  0.0307  0.3558
   88PHE     CH 1135   0.683   5.007   4.401  0.7391 -0.1089  0.0089
   88PHE     CH 1136   0.731   5.069   4.517 -0.5200 -0.0917  0.5441
   88PHE     CH 1137   0.745   0.109   4.521  0.9339 -0.1762 -0.6152
   88PHE     OH 1138   0.702   0.325   4.411 -0.1413 -0.1431 -0.2040
   88PHE     HC 1139   0.622   0.200   4.226  0.3698 -0.2699 -0.7111
   88PHE     HC 1140   0.616   5.045   4.199  3.5533 -3.2610  0.5127
   88PHE     HC 1141   0.673   4.901   4.389 -0.8907 -0.3447  2.5670
   88PHE     HC 1142   0.759   5.006   4.600 -4.1599  1.2851  3.0813
   88PHE     HC 1143   0.793   0.146   4.611 -2.0359 -0.0616  1.0384
   88PHE     HO 1144   0.731   0.349   4.498  1.9047  0.6990 -1.0690
   89PHE     CO 1145   2.687   0.911   5.002 -0.5516  0.7150 -0.4143
   89PHE     CH 1146   2.763   1.015   5.058 -0.2311 -0.0529  0.6100
   89PHE     CH 1147   2.902   1.007   5.043 -0.3732  0.1187 -1.0148
   89PHE     CH 1148   2.964   0.904   4.972  0.2244 -0.3041  0.1019
   89PHE     CH 1149   2.889   0.794   4.927 -0.4445 -0.0531  0.5934
   89PHE     CH 1150   2.750   0.802   4.943 -0.5917  0.9743 -0.9451
   89PHE     OH 1151   2.551   0.913   5.010 -0.5369  0.3887 -0.0444
   89PHE     HC 1152   2.719   1.097   0.012 -1.0698 -1.4691  2.1817
   89PHE     HC 1153   2.969   1.087   5.074  0.7113 -1.4534  0.8991
   89PHE     HC 1154   3.070   0.912   4.952 -0.0033  0.8718 -0.6959
   89PHE     HC 1155   2.934   0.706   4.885  0.5247  1.1729 -1.0811
   89PHE     HC 1156   2.690   0.724   4.897  0.7138  0.1839 -1.3787
   89PHE     HO 1157   2.508   0.830   4.996  1.7536 -0.4676 -2.7718
   90PHE     CO 1158   0.085   0.775   1.721  0.0565  0.3750  0.4706
   90PHE     CH 1159   0.021   0.723   1.834  0.1474 -0.6150  0.0844
   90PHE     CH 1160   5.043   0.806   1.916  0.3883  0.0539 -0.3543
   90PHE     CH 1161   5.033   0.941   1.882  0.4473  0.2975  0.5592
   90PHE     CH 1162   5.091   0.991   1.764 -0.4176  0.0982  0.0391
   90PHE     CH 1163   0.073   0.910   1.685  0.1055  0.3430  0.3306
   90PHE     OH 1164   0.163   0.689   1.649 -0.1655  0.3050  0.3094
   90PHE     HC 1165   0.040   0.620   1.860  0.0653 -0.8631 -0.8154
   90PHE     HC 1166   4.992   0.769   2.004 -0.7313  1.5296 -0.3589
   90PHE     HC 1167   4.980   1.007   1.949  0.6498  1.1595 -0.1078
   90PHE     HC 1168   5.084   1.096   1.743  2.1427  0.4740  0.7652
   90PHE     HC 1169   0.122   0.958   1.602  3.0514  1.3595  2.4768
   90PHE     HO 1170   0.124   0.684   1.563 -0.4704 -2.9867  0.5094
   91PHE     CO 1171   4.117   4.948   1.729 -0.0818 -0.6511 -0.0353
   91PHE     CH 1172   3.987   4.981   1.688  0.0727  0.1257  0.0894
   91PHE     CH 1173   3.898   5.021   1.788 -0.1195 -0.4687  0.1580
   91PHE     CH 1174   3.943   5.042   1.919  0.2737  0.8067 -0.1672
   91PHE     CH 1175   4.072   5.005   1.959 -0.0868 -0.3656 -0.0417
   91PHE     CH 1176   4.162   4.962   1.860  0.0762  0.2862 -0.1823
   91PHE     OH 1177   4.204   4.902   1.634  0.2271  0.4858 -0.3249
   91PHE     HC 1178   3.956   4.975   1.585  1.6786  0.4142 -0.4416
   91PHE     HC 1179   3.797   5.039   1.754  0.8476  0.0994 -2.6594
   91PHE     HC 1180   3.881   5.091   1.993  0.8286  1.7767 -0.3286
   91PHE     HC 1181   4.097   5.020   2.063 -3.2361 -0.2423  0.7913
   91PHE     HC 1182   4.265   4.941   1.884  0.2898 -0.4619 -1.6883
   91PHE     HO 1183   4.165   4.869   1.554 -0.0787  1.9586 -0.8084
   92PHE     CO 1184   0.077   4.935   3.314 -0.1407 -0.0032 -0.2625
   92PHE     CH 1185   5.044   4.924   3.272 -0.2767  0.1930  0.1150
   92PHE     CH 1186   4.990   4.804   3.225 -0.1340  0.0086  0.4202
   92PHE     CH 1187   5.065   4.686   3.224 -0.2686 -0.0759  0.3504
   92PHE     CH 1188   0.099   4.696   3.263 -0.1591 -0.0675 -0.0275
   92PHE     CH 1189   0.153   4.818   3.307 -0.4494 -0.2973  0.9960
   92PHE     OH 1190   0.139   5.053   3.346 -0.1039  0.0348 -0.4719
   92PHE     HC 1191   4.983   5.012   3.257  0.0637 -0.1196 -4.2680
   92PHE     HC 1192   4.899   4.794   3.168  0.9969 -2.2315 -1.1400
   92PHE     HC 1193   5.031   4.596   3.175 -2.7649 -0.6415  2.8091
   92PHE     HC 1194   0.153   4.603   3.258 -0.6234 -0.3267 -0.3079
   92PHE     HC 1195   0.258   4.834   3.327 -0.5019  1.3941  0.0704
   92PHE     HO 1196   0.075   0.022   3.346  0.5738  0.7516 -2.9637
   93PHE     CO 1197   0.380   0.335   0.434  0.2703  0.0184 -0.1233
   93PHE     CH 1198   0.349   0.405   0.550  0.2190  0.2744 -0.2898
   93PHE     CH 1199   0.230   0.478   0.566 -0.0933 -0.2782 -0.0347
   93PHE     CH 1200   0.143   0.479   0.457 -0.2064 -0.1014  0.0575
   93PHE     CH 1201   0.165   0.400   0.343  0.4772  0.4527 -0.2010
   93PHE     CH 1202   0.285   0.331   0.330  0.5008  0.5215 -0.3571
   93PHE     OH 1203   0.502   0.275   0.420  0.4000  0.2672 -0.0558
   93PHE     HC 1204   0.423   0.415   0.628 -1.2293  1.4665  1.0114
   93PHE     HC 1205   0.210   0.531   0.657  0.3329  1.9697 -1.1780
   93PHE     HC 1206   0.051   0.536   0.466  0.7298  1.6490 -0.9778
   93PHE     HC 1207   0.088   0.404   0.267  1.8513  3.6635 -1.6194
   93PHE     HC 1208   0.312   0.271   0.244 -1.0703 -0.8741  0.0758
   93PHE     HO 1209   0.577   0.310   0.465 -0.0247  0.5173  0.4705
   94PHE     CO 1210   4.304   1.553   0.183 -0.0543  0.5017 -0.7274
   94PHE     CH 1211   4.188   1.631   0.191 -0.5485 -0.2697 -0.1961
   94PHE     CH 1212   4.189   1.739   0.281  0.2973 -0.1873 -0.2882
   94PHE     CH 1213   4.306   1.774   0.348  0.2608  0.9892 -0.8170
   94PHE     CH 1214   4.423   1.699   0.330 -0.3049 -0.0668 -0.1899
   94PHE     CH 1215   4.424   1.586   0.248 -0.2128 -0.1210 -0.1152
   94PHE     OH 1216   4.302   1.441   0.105  0.6741 -0.3943  0.5106
   94PHE     HC 1217   4.098   1.613   0.134  0.6693 -1.6514 -1.8292
   94PHE     HC 1218   4.096   1.792   0.295 -0.1402 -0.8868 -0.4786
   94PHE     HC 1219   4.290   1.862   0.409 -1.4550 -1.1504  2.0739
   94PHE     HC 1220   4.512   1.731   0.383 -2.1837  2.3329  1.7546
   94PHE     HC 1221   4.514   1.526   0.243 -0.4912 -0.5631  0.0892
   94PHE     HO 1222   4.389   1.404   0.110  1.2865  0.9096 -0.1367
   95PHE     CO 1223   2.596   0.048   1.973 -0.1425  0.0431  0.2077
   95PHE     CH 1224   2.719   0.074   2.034 -0.3253  0.7443  0.2883
   95PHE     CH 1225   2.786   0.193   2.002  0.1331  0.4091 -0.0211
   95PHE     CH 1226   2.721   0.299   1.937  0.1269  0.5377  0.1936
   95PHE     CH 1227   2.598   0.270   1.877  0.5424 -0.0405 -0.3891
   95PHE     CH 1228   2.535   0.146   1.893  0.2921  0.1350 -0.0141
   95PHE     OH 1229   2.534   5.028   1.990 -0.1422 -0.0478 -0.3966
   95PHE     HC 1230   2.776   0.002   2.091 -0.4705  1.4741  1.3753
   95PHE     HC 1231   2.890   0.205   2.028 -0.1810  0.9561  1.0166
   95PHE     HC 1232   2.762   0.398   1.922  1.4720  0.0820  0.7263
   95PHE     HC 1233   2.557   0.348   1.814  1.7647  1.3998  0.5482
   95PHE     HC 1234   2.446   0.121   1.836  1.7334  1.2690 -2.9639
   95PHE     HO 1235   2.582   4.960   2.036 -1.2669 -2.7650 -2.9390
   96PHE     CO 1236   2.906   0.004   0.186  0.4162  0.5383  0.1048
   96PHE     CH 1237   2.949   0.118   0.256  0.2337  0.7145 -0.0702
   96PHE     CH 1238   2.865   0.174   0.353  0.0947  0.2116  0.1043
   96PHE     CH 1239   2.735   0.125   0.367  0.0011  0.4103 -0.0680
   96PHE     CH 1240   2.689   0.015   0.294  0.2551 -0.2870  0.8124
   96PHE     CH 1241   2.776   5.055   0.201  0.3772  0.6941  0.2840
   96PHE     OH 1242   2.991   5.035   0.105 -0.1853 -0.3295  0.2086
   96PHE     HC 1243   3.050   0.150   0.235  1.2327 -1.7282  0.6862
   96PHE     HC 1244   2.897   0.262   0.407 -0.0763 -1.4296  3.0660
   96PHE     HC 1245   2.668   0.171   0.439  3.4373  2.4962  2.0702
   96PHE     HC 1246   2.592   5.074   0.316  0.8593 -2.4837 -0.3059
   96PHE     HC 1247   2.752   4.970   0.140  0.3258  1.2850 -0.5360
   96PHE     HO 1248   2.959   4.961   0.056  0.5410  1.4968 -3.3134
   97PHE     CO 1249   0.729   0.813   0.453  0.3044  0.0588  0.6512
   97PHE     CH 1250   0.798   0.881   0.352  0.0024  0.2954  0.6028
   97PHE     CH 1251   0.735   0.979   0.275  0.1650  0.1022  0.2217
   97PHE     CH 1252   0.598   1.002   0.292  0.0751 -0.0643 -0.2516
   97PHE     CH 1253   0.526   0.940   0.394 -0.1082  0.1515 -0.2494
   97PHE     CH 1254   0.595   0.848   0.475 -0.0588 -0.3317 -0.8348
   97PHE     OH 1255   0.787   0.728   0.543  0.5689 -0.0681  0.3643
   97PHE     HC 1256   0.905   0.863   0.352  0.0730  0.6915  1.1147
   97PHE     HC 1257   0.784   1.050   0.210 -1.1416 -0.3239 -1.2801
   97PHE     HC 1258   0.536   1.062   0.228 -2.0038 -1.6878  0.1262
   97PHE     HC 1259   0.420   0.960   0.397  0.0068  0.7965  2.5478
   97PHE     HC 1260   0.548   0.800   0.559 -1.5204  0.3252 -1.2412
   97PHE     HO 1261   0.860   0.683   0.504  1.8628  1.5460  0.8024
   98PHE     CO 1262   0.014   4.565   2.696  0.1040 -0.0105  0.7203
   98PHE     CH 1263   5.015   4.559   2.794  0.0502  0.1941  0.6777
   98PHE     CH 1264   4.989   4.674   2.870 -0.4188  0.4297  0.1735
   98PHE     CH 1265   5.062   4.791   2.845 -0.7661  0.6007 -0.0347
   98PHE     CH 1266   0.062   4.794   2.747  0.3042 -0.6220  0.9957
   98PHE     CH 1267   0.086   4.682   2.668  0.1173 -0.1330  0.2408
   98PHE     OH 1268   0.042   4.457   2.616  0.5313  0.4780  0.2030
   98PHE     HC 1269   4.959   4.467   2.806 -0.4935  0.1435 -1.7219
   98PHE     HC 1270   4.915   4.669   2.948 -1.3395  0.1759 -0.6905
   98PHE     HC 1271   5.058   4.880   2.906  0.3259  0.0780  0.8221
   98PHE     HC 1272   0.113   4.885   2.717 -0.2065  0.1005  2.2297
   98PHE     HC 1273   0.156   4.687   2.585 -1.0353 -0.6227 -0.7941
   98PHE     HO 1274   0.097   4.477   2.541  1.5406 -0.2468  0.7263
   99PHE     CO 1275   0.109   4.476   1.994  0.2777  0.1716  0.0820
   99PHE     CH 1276   0.238   4.463   1.941  0.3650  0.5589  0.1990
   99PHE     CH 1277   0.264   4.514   1.813  0.3551  0.1226  0.0220
   99PHE     CH 1278   0.165   4.584   1.743  0.3870 -0.0446 -0.1931
   99PHE     CH 1279   0.033   4.574   1.788  0.4969  0.5870  0.2866
   99PHE     CH 1280   0.003   4.519   1.913  0.2858  0.0738  0.0168
   99PHE     OH 1281   0.087   4.437   2.123  0.0975 -0.1776 -0.0532
   99PHE     HC 1282   0.323   4.441   2.004 -1.6207 -3.0706  1.8980
   99PHE     HC 1283   0.367   4.516   1.780 -0.1466 -2.7279 -2.1497
   99PHE     HC 1284   0.171   4.636   1.648 -2.8385  1.2099  0.1754
   99PHE     HC 1285   5.065   4.620   1.719 -1.1030 -2.4622 -0.3424
   99PHE     HC 1286   5.001   4.518   1.947 -0.9305  1.3636 -3.2827
   99PHE     HO 1287   0.005   4.390   2.127  0.3545 -0.5373  1.4554
  100PHE     CO 1288   4.982   4.538   3.570 -0.5934  0.3495 -0.2462
  100PHE     CH 1289   0.001   4.521   3.641 -0.6126 -0.0178 -0.2994
  100PHE     CH 1290   0.110   4.450   3.588 -0.4557 -0.2141  0.2728
  100PHE     CH 1291   0.100   4.392   3.461 -0.6375 -0.5193  0.4252
  100PHE     CH 1292   5.080   4.401   3.391 -0.2156 -0.2772 -0.2791
  100PHE     CH 1293   4.971   4.470   3.448 -0.2077 -0.7598  0.3269
  100PHE     OH 1294   4.869   4.592   3.623 -0.8571 -0.4047 -0.0331
  100PHE     HC 1295   0.001   4.560   3.742 -2.1734 -0.9556  0.0917
  100PHE     HC 1296   0.198   4.438   3.649 -0.6063 -1.7466  0.2410
  100PHE     HC 1297   0.179   4.332   3.418  0.5963  1.1379  0.3067
  100PHE     HC 1298   5.072   4.349   3.296 -0.6399 -0.3419 -0.2117
  100PHE     HC 1299   4.875   4.480   3.401  0.7990  0.6709 -1.5752
  100PHE     HO 1300   4.894   4.622   3.709  3.0145  2.1738 -1.7984
  101PHE     CO 1301   0.189   0.202   4.214  0.1374 -0.6670 -0.1379
  101PHE     CH 1302   0.118   0.222   4.095  0.0304  0.2975  0.0805
  101PHE     CH 1303   5.079   0.205   4.095  0.0534  0.1083 -0.0341
  101PHE     CH 1304   5.010   0.184   4.214  0.0642 -0.7980 -0.1856
  101PHE     CH 1305   5.080   0.174   4.335 -0.1029  0.7499  0.0554
  101PHE     CH 1306   0.120   0.174   4.332 -0.1025  0.0507 -0.1008
  101PHE     OH 1307   0.326   0.210   4.215  0.1077 -0.1089  0.5332
  101PHE     HC 1308   0.173   0.242   4.004  0.8809 -2.0448  0.0267
  101PHE     HC 1309   5.023   0.221   4.004 -0.6570  2.1448  0.6986
  101PHE     HC 1310   4.902   0.180   4.218 -0.1049  2.1538  0.4960
  101PHE     HC 1311   5.026   0.156   4.427 -1.4809 -2.3849 -1.2417
  101PHE     HC 1312   0.177   0.157   4.423 -0.5448  1.1598  0.3956
  101PHE     HO 1313   0.351   0.260   4.291  0.9205  0.3707 -0.0323
  102PHE     CO 1314   2.457   4.569   3.621 -0.7916  0.1512  0.4936
  102PHE     CH 1315   2.370   4.544   3.514 -0.0189 -0.8055  0.0831
  102PHE     CH 1316   2.382   4.432   3.430 -0.4092 -0.3584 -0.5718
  102PHE     CH 1317   2.497   4.354   3.448  0.4368  0.7203 -1.1242
  102PHE     CH 1318   2.584   4.376   3.554 -0.1302  0.5387 -0.6144
  102PHE     CH 1319   2.568   4.486   3.639 -0.1359  0.7048 -0.8308
  102PHE     OH 1320   2.441   4.676   3.704  0.2943  0.9736 -0.3271
  102PHE     HC 1321   2.284   4.608   3.507  0.2410 -0.1128  2.5140
  102PHE     HC 1322   2.309   4.410   3.354 -1.5607 -1.1780  0.7317
  102PHE     HC 1323   2.521   4.269   3.385  2.3439  0.8619 -0.6365
  102PHE     HC 1324   2.667   4.307   3.568 -0.6439  0.4144  2.7016
  102PHE     HC 1325   2.627   4.493   3.729  1.1665 -0.7266 -1.5279
  102PHE     HO 1326   2.510   4.661   3.767  0.4576 -1.5716 -1.0316
  103PHE     CO 1327   2.122   5.004   3.636 -0.1982  0.6406 -0.5880
  103PHE     CH 1328   2.101   4.892   3.555 -0.3156  0.1748  0.0822
  103PHE     CH 1329   2.189   4.868   3.448 -0.5006  0.2743 -0.0928
  103PHE     CH 1330   2.309   4.939   3.436 -0.2117 -0.1422  0.2839
  103PHE     CH 1331   2.325   5.046   3.526  0.1992  0.3513 -0.3690
  103PHE     CH 1332   2.236   5.085   3.627  0.2550  0.0475 -0.2029
  103PHE     OH 1333   2.024   5.044   3.722 -0.4947 -0.4386 -0.4043
  103PHE     HC 1334   2.015   4.830   3.574  0.5297 -0.7427  1.0886
  103PHE     HC 1335   2.177   4.777   3.392 -1.6930 -0.6965  1.6357
  103PHE     HC 1336   2.382   4.904   3.365  0.6566  0.2938  0.9372
  103PHE     HC 1337   2.419   5.099   3.517  1.5021 -1.3330  2.1423
  103PHE     HC 1338   2.251   0.073   3.687 -1.2426  0.4055 -0.3305
  103PHE     HO 1339   1.942   4.999   3.730 -0.8286  0.1637 -0.4041
  104PHE     CO 1340   3.872   4.408   0.913  0.1612 -0.5164  0.3446
  104PHE     CH 1341   3.853   4.432   0.776  0.4065  0.0792  0.4097
  104PHE     CH 1342   3.952   4.390   0.686 -0.0021 -0.3327  0.1513
  104PHE     CH 1343   4.059   4.311   0.730  0.0621 -0.3449 -0.0248
  104PHE     CH 1344   4.079   4.287   0.866  0.0720 -0.3002 -0.0188
  104PHE     CH 1345   3.988   4.344   0.957  0.2884 -0.3628  0.2353
  104PHE     OH 1346   3.784   4.457   1.005 -0.4064 -0.5215 -0.1899
  104PHE     HC 1347   3.765   4.483   0.741  0.0584 -1.1131 -0.5519
  104PHE     HC 1348   3.946   4.419   0.582 -0.3230  1.8838  0.7465
  104PHE     HC 1349   4.124   4.267   0.656 -2.5074 -1.0179 -2.0506
  104PHE     HC 1350   4.156   4.222   0.903 -0.9403 -0.5930  1.7216
  104PHE     HC 1351   3.997   4.330   1.064 -3.8471 -1.4615  0.6005
  104PHE     HO 1352   3.827   4.461   1.089  1.2054 -1.0339 -0.9482
  105PHE     CO 1353   1.076   3.157   2.428 -0.2672 -0.6077  0.1919
  105PHE     CH 1354   1.021   3.214   2.313  0.6936  0.5681  0.2956
  105PHE     CH 1355   1.108   3.242   2.207 -0.3812  0.8073 -0.5523
  105PHE     CH 1356   1.244   3.207   2.216 -0.5600  0.2229 -0.0231
  105PHE     CH 1357   1.301   3.156   2.333 -0.8670  0.1297  0.0862
  105PHE     CH 1358   1.210   3.117   2.433 -0.1381 -0.1268  0.6564
  105PHE     OH 1359   0.993   3.152   2.535 -0.4144 -0.4211  0.0864
  105PHE     HC 1360   0.914   3.230   2.311  0.6636  0.4303 -1.6804
  105PHE     HC 1361   1.070   3.282   2.114 -1.1063 -0.2280 -0.7195
  105PHE     HC 1362   1.300   3.232   2.127 -1.6174 -2.7346 -1.6562
  105PHE     HC 1363   1.404   3.127   2.343 -0.1754  1.5036 -2.2448
  105PHE     HC 1364   1.256   3.074   2.521  1.6472  0.7351  0.1916
  105PHE     HO 1365   1.038   3.165   2.617 -0.3625  2.8489 -0.3343
  106PHE     CO 1366   0.437   0.125   3.257  0.2723  0.0994  0.5024
  106PHE     CH 1367   0.343   0.225   3.288  0.2750  0.0660  0.6178
  106PHE     CH 1368   0.378   0.360   3.273  0.4546 -0.0050  0.4041
  106PHE     CH 1369   0.500   0.392   3.212 -0.0299 -0.1710 -0.6831
  106PHE     CH 1370   0.595   0.291   3.192  0.4289  0.1484 -0.1502
  106PHE     CH 1371   0.568   0.157   3.219  0.3430  0.3871  0.9771
  106PHE     OH 1372   0.394   5.096   3.264  0.0172  0.1384 -0.2666
  106PHE     HC 1373   0.252   0.185   3.330 -0.5629  1.4172  0.1454
  106PHE     HC 1374   0.311   0.431   3.318 -1.1737 -0.7004 -0.8212
  106PHE     HC 1375   0.513   0.499   3.204  0.4991 -0.1984 -0.2531
  106PHE     HC 1376   0.689   0.318   3.145  1.1519  0.1728  1.2610
  106PHE     HC 1377   0.637   0.075   3.205 -2.7269 -1.8898 -2.9667
  106PHE     HO 1378   0.318   5.082   3.319  1.3167  1.0090  1.8670
  107PHE     CO 1379   2.140   0.895   0.229  0.3675 -0.1078 -0.0675
  107PHE     CH 1380   2.144   0.960   0.353 -0.2883 -0.2996  0.0527
  107PHE     CH 1381   2.113   0.890   0.470  0.2212 -0.1961  0.2514
  107PHE     CH 1382   2.096   0.751   0.470 -1.0264 -0.0583  0.3569
  107PHE     CH 1383   2.089   0.690   0.344  0.3373  0.1008  0.1819
  107PHE     CH 1384   2.111   0.758   0.225  0.1319 -0.0619  0.0483
  107PHE     OH 1385   2.164   0.969   0.116 -0.4813  0.3882  0.0698
  107PHE     HC 1386   2.176   1.062   0.364  0.5505 -0.5895  0.3210
  107PHE     HC 1387   2.122   0.933   0.568  0.1574  0.0589  0.1453
  107PHE     HC 1388   2.096   0.683   0.554  0.8705 -0.6444 -0.0704
  107PHE     HC 1389   2.085   0.582   0.333  0.5460 -0.1983  2.4891
  107PHE     HC 1390   2.114   0.702   0.132 -0.1164  1.2093 -0.7560
  107PHE     HO 1391   2.214   1.047   0.136  1.4134 -1.1157  1.5993
  108PHE     CO 1392   1.597   1.879   2.340  0.1220 -0.0280 -0.6068
  108PHE     CH 1393   1.698   1.790   2.378 -0.3103 -0.2417  0.0507
  108PHE     CH 1394   1.670   1.653   2.387  0.0781 -0.3122  0.1873
  108PHE     CH 1395   1.540   1.609   2.361  0.1816  0.1339 -1.1284
  108PHE     CH 1396   1.434   1.700   2.342 -0.2561 -0.0193  0.4694
  108PHE     CH 1397   1.466   1.834   2.318  0.1487 -0.2513 -0.3174
  108PHE     OH 1398   1.625   2.012   2.328 -0.2587  0.1001 -0.1310
  108PHE     HC 1399   1.800   1.823   2.389  0.1885 -1.7234  0.1824
  108PHE     HC 1400   1.745   1.576   2.404  0.2973 -0.5686 -1.6682
  108PHE     HC 1401   1.516   1.504   2.362  0.1357  0.1470 -0.5781
  108PHE     HC 1402   1.332   1.667   2.348 -0.5379  0.9177  1.0330
  108PHE     HC 1403   1.379   1.895   2.298  1.1034  1.4794  0.5149
  108PHE     HO 1404   1.709   2.036   2.365 -0.2718  1.7824 -1.0992
  109PHE     CO 1405   1.628   4.627   2.287  0.0270 -0.1212  0.3838
  109PHE     CH 1406   1.514   4.672   2.220  0.5316  0.6223  0.0129
  109PHE     CH 1407   1.414   4.736   2.295  0.2884  0.6295 -0.3126
  109PHE     CH 1408   1.426   4.748   2.434  0.4179  0.1819 -0.2804
  109PHE     CH 1409   1.537   4.698   2.502 -0.1627 -0.4054  0.2403
  109PHE     CH 1410   1.641   4.643   2.426  0.3810  0.5517  0.2803
  109PHE     OH 1411   1.724   4.570   2.209 -0.9564 -0.7629 -0.3790
  109PHE     HC 1412   1.510   4.662   2.112  1.1495  0.4821 -0.0018
  109PHE     HC 1413   1.333   4.778   2.239  0.6841 -0.7324 -1.9998
  109PHE     HC 1414   1.354   4.792   2.501  2.4912  1.6109  1.1307
  109PHE     HC 1415   1.534   4.704   2.610  1.3523 -0.7755  0.3181
  109PHE     HC 1416   1.733   4.603   2.466  0.7329 -1.0338 -1.8980
  109PHE     HO 1417   1.690   4.533   2.129 -1.1653  0.7924 -1.0464
  110PHE     CO 1418   1.982   0.740   2.519  0.0583  0.3016  0.8082
  110PHE     CH 1419   1.897   0.827   2.450  0.5499 -0.1529 -0.3974
  110PHE     CH 1420   1.935   0.898   2.336  0.4267  0.5658  0.0013
  110PHE     CH 1421   2.064   0.873   2.288  0.2207 -0.2805 -0.1253
  110PHE     CH 1422   2.150   0.779   2.347  0.1891 -0.3400 -0.1730
  110PHE     CH 1423   2.107   0.714   2.463 -0.1574  0.5522  0.2074
  110PHE     OH 1424   1.947   0.677   2.636 -0.1874 -0.2984  0.4174
  110PHE     HC 1425   1.802   0.840   2.502  0.8815  0.6147  0.0291
  110PHE     HC 1426   1.867   0.971   2.295  1.0939  2.6035  2.3096
  110PHE     HC 1427   2.092   0.934   2.204  2.5915  2.1484  2.2594
  110PHE     HC 1428   2.250   0.775   2.307  0.6478 -2.3725  1.0670
  110PHE     HC 1429   2.170   0.640   2.510  0.1852 -0.5640 -1.8990
  110PHE     HO 1430   1.897   0.738   2.688  2.0086  2.1842 -0.1527
  111PHE     CO 1431   2.052   2.790   1.547  0.6023  0.0983  0.3798
  111PHE     CH 1432   1.986   2.824   1.665  0.4506 -0.3047  0.4117
  111PHE     CH 1433   1.934   2.718   1.740 -0.1166 -0.3449 -0.0347
  111PHE     CH 1434   1.964   2.586   1.705 -1.0528 -0.4170 -0.5798
  111PHE     CH 1435   2.022   2.554   1.582  0.1976  0.1063 -0.1374
  111PHE     CH 1436   2.059   2.659   1.497  0.1735  0.2207 -0.0054
  111PHE     OH 1437   2.103   2.888   1.466  0.4630 -0.2411 -0.1236
  111PHE     HC 1438   1.961   2.925   1.693 -0.1963 -0.3411 -0.0352
  111PHE     HC 1439   1.884   2.746   1.832  0.2584  2.1458 -0.5396
  111PHE     HC 1440   1.929   2.512   1.775 -1.6438  1.9241  1.7476
  111PHE     HC 1441   2.029   2.449   1.557  0.5171 -0.0170  0.4566
  111PHE     HC 1442   2.093   2.633   1.398 -1.6083  1.2506 -0.9299
  111PHE     HO 1443   2.127   2.970   1.506  3.9577  1.0026 -4.0797
  112PHE     CO 1444   4.218   4.566   0.313  0.4486 -0.3270  1.0532
  112PHE     CH 1445   4.173   4.697   0.334  0.0609 -0.2630 -0.0688
  112PHE     CH 1446   4.037   4.725   0.346  0.1121  0.0011 -0.1184
  112PHE     CH 1447   3.945   4.620   0.346  0.0122  0.0881  0.1641
  112PHE     CH 1448   3.987   4.487   0.326 -0.3800  0.0330 -0.3091
  112PHE     CH 1449   4.122   4.464   0.299 -0.2618  0.4772 -0.1014
  112PHE     OH 1450   4.350   4.539   0.293  0.2961 -0.2659 -0.1212
  112PHE     HC 1451   4.250   4.771   0.347  1.4729 -1.7341  0.4267
  112PHE     HC 1452   4.001   4.825   0.367  2.1836  0.6801  0.4023
  112PHE     HC 1453   3.840   4.645   0.341 -0.3150 -1.3633 -1.2370
  112PHE     HC 1454   3.920   4.402   0.327 -0.0373 -0.2644 -1.3115
  112PHE     HC 1455   4.153   4.363   0.279  0.4255  0.9624 -1.6917
  112PHE     HO 1456   4.403   4.618   0.300 -0.0387  0.0557 -1.0725
  113PHE     CO 1457   2.371   4.075   1.052  0.6575 -0.3253 -0.5912
  113PHE     CH 1458   2.246   4.019   1.082  0.7702 -0.5293 -0.4946
  113PHE     CH 1459   2.233   3.881   1.102  0.3876 -0.4337 -0.0681
  113PHE     CH 1460   2.347   3.802   1.091  0.3895 -0.5304  0.6613
  113PHE     CH 1461   2.471   3.859   1.060 -0.2101  0.4278 -0.0229
  113PHE     CH 1462   2.486   3.996   1.037  1.0849  0.2455 -0.3428
  113PHE     OH 1463   2.391   4.209   1.045 -0.1283 -0.1429  0.4108
  113PHE     HC 1464   2.164   4.089   1.091  0.8379 -0.5961  0.9587
  113PHE     HC 1465   2.136   3.835   1.110 -0.7921  1.2405 -2.9486
  113PHE     HC 1466   2.330   3.697   1.112  0.7563 -0.8286 -0.5040
  113PHE     HC 1467   2.557   3.794   1.049  0.1620  1.2010 -1.9528
  113PHE     HC 1468   2.587   4.028   1.013  0.9433 -0.1723 -1.5917
  113PHE     HO 1469   2.446   4.227   0.970  0.1648 -0.0388  0.6472
  114PHE     CO 1470   2.419   1.062   2.360  0.5980  0.4534 -0.0814
  114PHE     CH 1471   2.499   0.988   2.448  0.1850 -0.1565 -0.2060
  114PHE     CH 1472   2.536   1.034   2.575 -0.2618 -0.8746  0.1891
  114PHE     CH 1473   2.493   1.163   2.610  0.1746 -0.6424 -0.1141
  114PHE     CH 1474   2.415   1.242   2.524 -0.2795 -0.3598  0.5452
  114PHE     CH 1475   2.371   1.186   2.404  0.1777  0.2300  0.0908
  114PHE     OH 1476   2.386   1.006   2.240  0.4546  0.3677 -0.0028
  114PHE     HC 1477   2.532   0.889   2.423  1.2882  0.2363 -0.3744
  114PHE     HC 1478   2.597   0.977   2.642  2.5850  2.8461  1.1193
  114PHE     HC 1479   2.517   1.204   2.707 -0.4659  1.1195 -0.6664
  114PHE     HC 1480   2.375   1.342   2.534 -1.2343 -0.7726  0.9161
  114PHE     HC 1481   2.305   1.248   2.345  0.1936 -0.7631 -1.0107
  114PHE     HO 1482   2.447   0.944   2.202  0.0739  0.2318 -0.3947
  115PHE     CO 1483   0.088   0.089   2.906  0.3483  0.5476 -0.1349
  115PHE     CH 1484   0.100   0.104   2.767 -0.1724  0.0042 -0.2436
  115PHE     CH 1485   0.220   0.060   2.711  0.0125  0.0614  0.1069
  115PHE     CH 1486   0.328   0.018   2.790  0.3394  0.4695 -0.1184
  115PHE     CH 1487   0.306   0.004   2.927  0.1453 -0.1541 -0.2086
  115PHE     CH 1488   0.185   0.034   2.990  0.0516 -0.2860 -0.3279
  115PHE     OH 1489   5.073   0.140   2.958  0.3253  0.7310 -0.3636
  115PHE     HC 1490   0.020   0.139   2.703 -0.3624  0.0350  0.0102
  115PHE     HC 1491   0.240   0.062   2.605  2.1438  2.0077  0.4493
  115PHE     HC 1492   0.418   5.084   2.740  1.0424  2.0520  0.0111
  115PHE     HC 1493   0.389   5.057   2.978  0.5343  0.2382 -0.4699
  115PHE     HC 1494   0.173   0.017   3.097 -2.2374  0.6909 -0.3626
  115PHE     HO 1495   5.006   0.132   2.892 -2.5930  0.2597  2.4040
  116PHE     CO 1496   0.032   4.202   2.846 -0.4992 -0.3254 -0.1255
  116PHE     CH 1497   5.070   4.154   2.730 -0.2235 -0.1883 -0.3298
  116PHE     CH 1498   4.991   4.039   2.733 -0.3172 -0.1225 -0.3027
  116PHE     CH 1499   4.962   3.981   2.857  0.2851 -0.0080 -0.1062
  116PHE     CH 1500   5.012   4.038   2.974 -0.1123  0.1423 -0.0096
  116PHE     CH 1501   0.005   4.143   2.970 -0.2771  0.3001  0.2291
  116PHE     OH 1502   0.107   4.317   2.844 -0.7365 -0.1574  0.3934
  116PHE     HC 1503   5.085   4.213   2.641  2.7512  1.3088  1.0049
  116PHE     HC 1504   4.963   4.005   2.634  1.2028 -2.1969 -0.0913
  116PHE     HC 1505   4.896   3.895   2.864  1.8807 -1.2469  0.3797
  116PHE     HC 1506   4.985   3.995   3.069 -1.3023  0.5114 -0.1642
  116PHE     HC 1507   0.044   4.182   3.063 -0.2818  1.2974 -0.1850
  116PHE     HO 1508   0.097   4.354   2.758 -2.1820 -0.5307  0.3649
  117PHE     CO 1509   1.489   2.376   2.058 -0.0352 -0.2481  0.0963
  117PHE     CH 1510   1.586   2.283   2.020  0.1163 -0.0187 -0.0829
  117PHE     CH 1511   1.672   2.307   1.912  0.2176  0.1291  0.0316
  117PHE     CH 1512   1.662   2.426   1.839  0.6709  0.3497  0.3248
  117PHE     CH 1513   1.567   2.521   1.878  0.0357 -0.1027 -0.1112
  117PHE     CH 1514   1.479   2.494   1.984 -0.1211 -0.5275 -0.3455
  117PHE     OH 1515   1.400   2.353   2.158 -0.2528  0.4753  0.0755
  117PHE     HC 1516   1.593   2.189   2.074 -1.4947  0.3465  0.8379
  117PHE     HC 1517   1.747   2.235   1.883 -0.5707  0.2796 -2.5566
  117PHE     HC 1518   1.744   2.434   1.769  0.9314 -0.6705  0.4984
  117PHE     HC 1519   1.548   2.615   1.828 -2.4267 -0.8292 -0.6841
  117PHE     HC 1520   1.405   2.566   2.014 -0.8528 -1.3197 -0.2314
  117PHE     HO 1521   1.399   2.263   2.187 -0.0999  0.4595  0.0312
  118PHE     CO 1522   1.155   0.344   2.455 -0.4383 -0.1040 -0.0582
  118PHE     CH 1523   1.288   0.365   2.419 -0.4953 -0.6462 -0.6070
  118PHE     CH 1524   1.390   0.323   2.506 -0.8532  0.6175  0.4491
  118PHE     CH 1525   1.357   0.240   2.614  0.2608  0.1182  0.4218
  118PHE     CH 1526   1.224   0.213   2.652  0.2339 -0.0979  0.1753
  118PHE     CH 1527   1.126   0.263   2.566  0.2604 -0.0129  0.1943
  118PHE     OH 1528   1.055   0.398   2.380 -0.0980  0.0370 -0.4112
  118PHE     HC 1529   1.316   0.414   2.327 -2.6088  2.3603  0.2005
  118PHE     HC 1530   1.488   0.363   2.485 -1.7307  0.9194 -4.0675
  118PHE     HC 1531   1.438   0.197   2.670 -1.7486 -1.6827  2.1653
  118PHE     HC 1532   1.195   0.150   2.735 -2.3233 -0.0988 -0.6500
  118PHE     HC 1533   1.023   0.236   2.581  0.4825  0.1508  2.2529
  118PHE     HO 1534   0.974   0.353   2.398 -0.8873  0.8460 -1.7211
  119PHE     CO 1535   3.378   0.468   1.528  0.3037 -0.1217 -0.2473
  119PHE     CH 1536   3.492   0.431   1.455  0.4414  0.3317 -0.2660
  119PHE     CH 1537   3.538   0.509   1.348  0.1330  0.1523 -0.5296
  119PHE     CH 1538   3.482   0.634   1.321 -0.5172 -0.0142  0.0400
  119PHE     CH 1539   3.371   0.676   1.397 -0.1870  0.1838  0.4165
  119PHE     CH 1540   3.321   0.592   1.497  0.2083  0.0193  0.4819
  119PHE     OH 1541   3.324   0.388   1.623  0.1495 -0.0927 -0.3090
  119PHE     HC 1542   3.536   0.336   1.481  0.0788 -0.3336 -1.9866
  119PHE     HC 1543   3.624   0.475   1.292  0.6787  0.1754  0.2785
  119PHE     HC 1544   3.534   0.689   1.245 -1.4372 -0.0434 -0.6191
  119PHE     HC 1545   3.330   0.773   1.374  3.3521  1.4185 -1.6012
  119PHE     HC 1546   3.235   0.623   1.555 -1.1354 -1.3676 -0.6843
  119PHE     HO 1547   3.360   0.300   1.629 -1.1002 -0.6903 -1.1184
  120PHE     CO 1548   1.598   2.725   1.217 -0.2699  0.5225 -0.2698
  120PHE     CH 1549   1.729   2.720   1.267 -0.5687 -0.3672  0.4572
  120PHE     CH 1550   1.812   2.610   1.244 -0.2574 -0.0316 -0.0550
  120PHE     CH 1551   1.749   2.490   1.208  0.1370 -0.2938  0.1139
  120PHE     CH 1552   1.614   2.492   1.168  0.2784  0.4265 -0.3550
  120PHE     CH 1553   1.536   2.608   1.170 -0.1277  0.1462  0.4681
  120PHE     OH 1554   1.527   2.839   1.241 -0.7015  0.2185 -0.0759
  120PHE     HC 1555   1.765   2.812   1.309  0.1703  0.1906 -1.2897
  120PHE     HC 1556   1.912   2.610   1.285 -0.1934  0.3961 -0.2063
  120PHE     HC 1557   1.790   2.391   1.213 -2.2862 -1.2918  3.0397
  120PHE     HC 1558   1.578   2.395   1.138  0.4376 -0.4786  2.1352
  120PHE     HC 1559   1.434   2.614   1.136 -0.0155  0.5056  0.1881
  120PHE     HO 1560   1.590   2.908   1.254 -0.6909  0.5012 -1.4471
  121PHE     CO 1561   1.870   3.665   3.190  0.1528 -0.0116  0.8140
  121PHE     CH 1562   1.757   3.632   3.267 -0.5402  0.0604 -0.1591
  121PHE     CH 1563   1.686   3.515   3.242 -0.3740 -0.1663  0.4256
  121PHE     CH 1564   1.722   3.432   3.136  0.3640  0.7705 -0.0686
  121PHE     CH 1565   1.831   3.473   3.058  0.8270 -0.2557  0.0205
  121PHE     CH 1566   1.898   3.595   3.072 -0.2021  0.2605  0.5669
  121PHE     OH 1567   1.942   3.775   3.224  0.2442  0.1724  0.0271
  121PHE     HC 1568   1.725   3.689   3.353 -1.8906  3.2393 -2.5575
  121PHE     HC 1569   1.603   3.484   3.304  0.2157 -1.8216  0.4396
  121PHE     HC 1570   1.664   3.344   3.111 -0.4662  0.6935  1.9916
  121PHE     HC 1571   1.851   3.425   2.963 -0.6921  2.3421 -1.7341
  121PHE     HC 1572   1.970   3.646   3.010 -0.4623 -0.2350 -0.1530
  121PHE     HO 1573   1.900   3.829   3.289  0.2582  1.5782 -1.0615
  122PHE     CO 1574   0.815   2.833   1.778 -0.1702  0.1112  0.1455
  122PHE     CH 1575   0.839   2.748   1.887 -0.4215  0.1704  0.2494
  122PHE     CH 1576   0.875   2.615   1.859  0.1850  0.3233  0.2733
  122PHE     CH 1577   0.871   2.567   1.727 -0.6503  0.3010  0.2999
  122PHE     CH 1578   0.839   2.651   1.620  0.4299  0.2600 -0.0658
  122PHE     CH 1579   0.818   2.787   1.646 -0.5737  0.0704  0.1499
  122PHE     OH 1580   0.802   2.964   1.813  0.2178  0.0674  0.4584
  122PHE     HC 1581   0.844   2.775   1.991 -1.6767  0.2595  0.3007
  122PHE     HC 1582   0.904   2.547   1.937  1.3955  2.3033  1.6262
  122PHE     HC 1583   0.876   2.462   1.700 -2.6818  0.3076 -0.3003
  122PHE     HC 1584   0.832   2.619   1.517 -0.3249  0.3338 -0.0421
  122PHE     HC 1585   0.813   2.857   1.564  4.2860  2.4449  1.5234
  122PHE     HO 1586   0.792   2.971   1.907  0.3290  0.8814  0.4137
  123PHE     CO 1587   3.751   0.598   3.081  0.2651  0.0767  0.1073
  123PHE     CH 1588   3.632   0.668   3.101  0.3332  0.2465 -0.0849
  123PHE     CH 1589   3.606   0.788   3.034 -0.2075 -0.3081 -0.8885
  123PHE     CH 1590   3.704   0.832   2.943 -0.0660  0.0902 -0.5505
  123PHE     CH 1591   3.819   0.757   2.916  0.1958  0.2904  0.0118
  123PHE     CH 1592   3.849   0.643   2.991  0.3376  0.6056  0.4436
  123PHE     OH 1593   3.777   0.490   3.160  0.1628 -0.1335 -0.1466
  123PHE     HC 1594   3.568   0.626   3.177  0.5713  1.0510  0.5748
  123PHE     HC 1595   3.515   0.843   3.053  0.9018  1.8250 -1.3642
  123PHE     HC 1596   3.677   0.922   2.891 -1.5944  0.1153  0.2147
  123PHE     HC 1597   3.890   0.789   2.841 -0.0087 -0.1461 -0.3720
  123PHE     HC 1598   3.944   0.591   2.988 -0.0309 -0.1078  0.9088
  123PHE     HO 1599   3.830   0.432   3.107 -1.4696 -0.4410 -1.5192
  124PHE     CO 1600   4.553   0.802   2.398 -0.4914 -0.2694 -0.4345
  124PHE     CH 1601   4.595   0.669   2.387  0.2762 -0.0781  0.1361
  124PHE     CH 1602   4.679   0.629   2.283  0.2206 -0.4645  0.2370
  124PHE     CH 1603   4.725   0.729   2.195  0.5860 -0.3232  0.5833
  124PHE     CH 1604   4.678   0.861   2.203 -0.1799 -0.5709  0.2528
  124PHE     CH 1605   4.597   0.902   2.310 -0.4709 -0.0410 -0.1659
  124PHE     OH 1606   4.460   0.844   2.489 -0.3634 -0.0149 -0.4203
  124PHE     HC 1607   4.560   0.593   2.455  1.8305 -1.3192 -0.3789
  124PHE     HC 1608   4.716   0.528   2.275  2.6659  0.1805  2.0054
  124PHE     HC 1609   4.791   0.691   2.119 -0.1403 -0.7995  0.1690
  124PHE     HC 1610   4.705   0.933   2.128  0.6227 -2.0202 -0.8986
  124PHE     HC 1611   4.551   0.997   2.330 -3.7752 -1.4891 -0.2024
  124PHE     HO 1612   4.454   0.937   2.504 -0.1664 -0.0489 -0.1051
  125PHE     CO 1613   4.651   1.307   0.172 -0.1308 -0.1491  0.4932
  125PHE     CH 1614   4.735   1.393   0.100  0.1858 -0.6165  0.3052
  125PHE     CH 1615   4.862   1.424   0.151  0.1489  0.1335 -0.0463
  125PHE     CH 1616   4.900   1.376   0.277 -0.3692  0.4411  0.2306
  125PHE     CH 1617   4.815   1.290   0.348  0.3238 -0.4146  0.0452
  125PHE     CH 1618   4.688   1.259   0.298  0.1046 -0.1442  0.4270
  125PHE     OH 1619   4.525   1.287   0.125  0.0446 -0.3440  0.1014
  125PHE     HC 1620   4.706   1.439   0.007  0.6481  1.0872  0.9708
  125PHE     HC 1621   4.928   1.493   0.101  1.0190  2.2288  3.6812
  125PHE     HC 1622   4.994   1.406   0.320 -0.1609 -0.9055  0.7719
  125PHE     HC 1623   4.845   1.250   0.444 -2.4871 -1.8536  0.4309
  125PHE     HC 1624   4.620   1.195   0.353  0.6485  0.0883  1.3927
  125PHE     HO 1625   4.502   1.196   0.123 -0.1229 -0.3332 -2.9191
  126PHE     CO 1626   5.099   0.646   4.409  0.3981  0.5605  0.5124
  126PHE     CH 1627   0.044   0.525   4.464 -0.6105 -0.2085 -0.3107
  126PHE     CH 1628   5.091   0.476   4.584 -0.0447 -0.1343 -0.0297
  126PHE     CH 1629   4.993   0.551   4.651 -0.0083 -0.2305  0.1329
  126PHE     CH 1630   4.957   0.678   4.604 -0.4162 -0.3608  0.0960
  126PHE     CH 1631   5.012   0.725   4.484  0.0723  0.1881  0.5310
  126PHE     OH 1632   0.055   0.688   4.292  0.3764 -0.4770  0.1209
  126PHE     HC 1633   0.119   0.466   4.414 -1.5856  0.2545 -2.4219
  126PHE     HC 1634   0.020   0.380   4.624 -1.5334 -0.2510  0.8360
  126PHE     HC 1635   4.953   0.504   4.739 -0.3275 -1.0451 -0.4356
  126PHE     HC 1636   4.875   0.734   4.646  0.4302 -0.9016  2.6086
  126PHE     HC 1637   4.983   0.820   4.440  0.0782  0.5992  1.3855
  126PHE     HO 1638   0.135   0.638   4.279 -0.1367 -2.3913  3.2691
  127PHE     CO 1639   2.381   0.731   4.772 -0.6058  0.0735  0.6625
  127PHE     CH 1640   2.325   0.638   4.684  0.3385  0.5823 -0.5050
  127PHE     CH 1641   2.253   0.675   4.570 -0.1858 -0.0516 -0.3844
  127PHE     CH 1642   2.241   0.813   4.547  0.2390 -0.0335 -0.4991
  127PHE     CH 1643   2.292   0.909   4.636 -0.0559  0.1077 -0.4830
  127PHE     CH 1644   2.365   0.868   4.748  0.1064 -0.0549 -0.6460
  127PHE     OH 1645   2.439   0.695   4.890  0.4454  0.3427  0.2383
  127PHE     HC 1646   2.329   0.538   4.723  0.2995  0.8700  0.2591
  127PHE     HC 1647   2.208   0.601   4.506 -0.2377 -0.3144 -0.0477
  127PHE     HC 1648   2.185   0.858   4.466 -1.0732  0.3363  0.5677
  127PHE     HC 1649   2.286   1.012   4.603  2.0636 -0.2990 -2.3646
  127PHE     HC 1650   2.412   0.946   4.807 -2.5021 -0.3018  1.9971
  127PHE     HO 1651   2.426   0.607   4.921 -0.9678  0.5585  0.3025
  128PHE     CO 1652   2.392   0.462   4.159  0.5238 -0.3107 -0.1729
  128PHE     CH 1653   2.508   0.503   4.225  0.5063 -0.7084  0.1061
  128PHE     CH 1654   2.620   0.557   4.160 -0.2553  0.7055 -0.0593
  128PHE     CH 1655   2.618   0.565   4.020  0.0780  0.1998 -0.0947
  128PHE     CH 1656   2.505   0.525   3.948 -0.1492  0.4132  0.1440
  128PHE     CH 1657   2.391   0.490   4.022 -0.1583 -0.1700 -0.1404
  128PHE     OH 1658   2.284   0.413   4.227 -0.0076  0.0039 -0.7804
  128PHE     HC 1659   2.516   0.503   4.333  1.3364  0.4717  0.0673
  128PHE     HC 1660   2.701   0.586   4.224 -1.5603  1.7622  1.1880
  128PHE     HC 1661   2.696   0.613   3.963  0.2625  0.4115  0.3286
  128PHE     HC 1662   2.490   0.520   3.841 -0.6471  0.6810  0.1973
  128PHE     HC 1663   2.306   0.458   3.963 -0.1794 -0.9316  0.2894
  128PHE     HO 1664   2.264   0.336   4.176 -1.1446 -0.4813  0.3522
  129PHE     CO 1665   1.192   2.293   1.590 -0.3502 -0.3275  0.1291
  129PHE     CH 1666   1.168   2.407   1.513  0.4066 -0.0877  0.2462
  129PHE     CH 1667   1.273   2.494   1.481  0.2924  0.0618  0.2756
  129PHE     CH 1668   1.402   2.467   1.528  0.1303 -0.2117  0.5632
  129PHE     CH 1669   1.419   2.353   1.608 -0.0743 -0.0755  0.8011
  129PHE     CH 1670   1.319   2.260   1.637 -0.2850 -0.0602  0.1451
  129PHE     OH 1671   1.086   2.209   1.611 -0.9495  0.2023 -0.7026
  129PHE     HC 1672   1.073   2.431   1.467  0.8636  1.2667 -0.0623
  129PHE     HC 1673   1.262   2.583   1.420  1.4980 -0.8059 -1.2888
  129PHE     HC 1674   1.494   2.520   1.507 -0.3708  0.4672  0.0428
  129PHE     HC 1675   1.523   2.330   1.630  0.4501  0.8098 -0.6292
  129PHE     HC 1676   1.345   2.167   1.687  2.5227 -0.1842 -1.3377
  129PHE     HO 1677   1.011   2.235   1.560 -1.1410 -3.5805 -2.7501
  130PHE     CO 1678   1.439   4.638   1.215 -0.0942 -0.0133  0.5884
  130PHE     CH 1679   1.352   4.535   1.178  0.2495  0.0543 -0.4287
  130PHE     CH 1680   1.388   4.402   1.206 -0.1616  0.1451  0.5592
  130PHE     CH 1681   1.510   4.369   1.266  0.0501 -0.3014 -0.1047
  130PHE     CH 1682   1.579   4.473   1.329  0.0428  0.1214 -0.7852
  130PHE     CH 1683   1.547   4.606   1.298  0.4901  0.4229  0.0034
  130PHE     OH 1684   1.412   4.767   1.182  0.3279 -0.0331  0.1585
  130PHE     HC 1685   1.259   4.547   1.123  0.5081 -1.8561 -1.3652
  130PHE     HC 1686   1.323   4.330   1.158 -1.3238  0.8622  0.9954
  130PHE     HC 1687   1.539   4.266   1.276  1.5722  0.1416  0.2025
  130PHE     HC 1688   1.668   4.450   1.386 -0.1068  0.8694 -0.2315
  130PHE     HC 1689   1.600   4.690   1.341 -0.2751  1.0943 -0.3494
  130PHE     HO 1690   1.348   4.777   1.113 -0.6970 -1.2119  0.8918
  131PHE     CO 1691   1.325   3.960   1.177  0.0928 -0.4157 -0.0554
  131PHE     CH 1692   1.189   3.933   1.154 -0.0345  0.3186 -0.1675
  131PHE     CH 1693   1.125   3.989   1.043 -0.8634  0.8433  0.5612
  131PHE     CH 1694   1.194   4.075   0.957  0.1944 -0.2717  0.2636
  131PHE     CH 1695   1.328   4.108   0.979  0.2871 -0.1622 -0.4232
  131PHE     CH 1696   1.391   4.046   1.088 -0.3772  0.1578  0.1474
  131PHE     OH 1697   1.392   3.904   1.282  0.5754 -0.2810 -0.2870
  131PHE     HC 1698   1.125   3.870   1.214 -0.5260  0.0845 -0.9243
  131PHE     HC 1699   1.020   3.983   1.019 -1.0695  1.7905  1.1807
  131PHE     HC 1700   1.153   4.133   0.875  0.6025  0.4074  0.5372
  131PHE     HC 1701   1.382   4.173   0.912  0.1685  0.5839  0.1840
  131PHE     HC 1702   1.496   4.067   1.099 -0.6272  1.9785 -0.6221
  131PHE     HO 1703   1.473   3.875   1.245  0.4747 -1.6533  0.5019
  132PHE     CO 1704   2.830   4.683   3.859  0.2256  0.0077  0.3933
  132PHE     CH 1705   2.884   4.572   3.925  0.1957 -0.1937  0.0796
  132PHE     CH 1706   2.818   4.523   4.038  0.0834  0.3363  0.2476
  132PHE     CH 1707   2.698   4.580   4.084 -0.4007 -0.4359 -0.0430
  132PHE     CH 1708   2.651   4.695   4.019  0.9827  0.0982 -0.1411
  132PHE     CH 1709   2.718   4.751   3.909  0.5824  0.8979  0.0177
  132PHE     OH 1710   2.882   4.723   3.740  0.1614  0.1208  0.4029
  132PHE     HC 1711   2.964   4.519   3.875 -1.9436 -3.4487 -0.1227
  132PHE     HC 1712   2.858   4.435   4.086 -1.0350  0.2162  0.9931
  132PHE     HC 1713   2.643   4.547   4.170  0.5422 -2.0302 -0.0066
  132PHE     HC 1714   2.566   4.746   4.061  1.3818  0.3127  0.4073
  132PHE     HC 1715   2.678   4.836   3.855 -0.0330 -1.1380 -2.9986
  132PHE     HO 1716   2.862   4.812   3.715  1.4579  1.0396  2.3917
  133PHE     CO 1717   1.113   4.341   2.926 -0.2365 -0.7206 -0.4360
  133PHE     CH 1718   1.087   4.305   2.793  0.5002 -0.1096 -0.7543
  133PHE     CH 1719   0.968   4.346   2.731 -0.2853 -0.1296  0.7025
  133PHE     CH 1720   0.870   4.414   2.805 -0.3905 -0.2478  0.6720
  133PHE     CH 1721   0.894   4.442   2.940  0.8178  0.1520  0.3849
  133PHE     CH 1722   1.017   4.412   2.999  0.8400  0.0247  0.2745
  133PHE     OH 1723   1.228   4.295   2.983  0.0298  0.7314  0.2270
  133PHE     HC 1724   1.155   4.245   2.734  2.3187 -1.7496  2.7348
  133PHE     HC 1725   0.937   4.324   2.630 -0.0544  0.5637  0.4741
  133PHE     HC 1726   0.777   4.436   2.754 -0.2792 -2.1214 -0.4123
  133PHE     HC 1727   0.813   4.487   2.996 -0.0324 -1.0885  0.1930
  133PHE     HC 1728   1.038   4.423   3.104  0.1979 -3.4607  0.8841
  133PHE     HO 1729   1.289   4.253   2.925 -0.3143  1.5447 -0.7565
  134PHE     CO 1730   1.495   0.555   3.880  0.1215  0.7402 -0.3146
  134PHE     CH 1731   1.499   0.679   3.944 -0.2929  0.3925  0.4004
  134PHE     CH 1732   1.612   0.757   3.917 -0.4397  0.3610 -0.3507
  134PHE     CH 1733   1.707   0.722   3.821 -0.8287  0.2662 -0.7049
  134PHE     CH 1734   1.699   0.597   3.760 -0.0062 -0.2011  0.1105
  134PHE     CH 1735   1.594   0.510   3.791 -0.1264 -0.1497 -0.1504
  134PHE     OH 1736   1.386   0.475   3.897  0.7946 -0.0890  0.2065
  134PHE     HC 1737   1.415   0.710   4.004 -1.0208  1.3552 -1.0345
  134PHE     HC 1738   1.627   0.852   3.967  0.8849 -1.1972  2.4549
  134PHE     HC 1739   1.791   0.788   3.800 -1.9733  3.3543  3.1604
  134PHE     HC 1740   1.775   0.563   3.691 -2.2068 -2.6863 -1.2905
  134PHE     HC 1741   1.587   0.410   3.750  2.0742 -0.2579 -0.3457
  134PHE     HO 1742   1.322   0.509   3.958 -1.7474 -0.1724 -2.1946
  135PHE     CO 1743   2.222   4.884   2.074  0.2017 -0.5335  0.0258
  135PHE     CH 1744   2.256   4.809   1.960  0.1350 -0.8509  0.2135
  135PHE     CH 1745   2.171   4.705   1.922 -0.0069 -0.4433 -0.6004
  135PHE     CH 1746   2.062   4.668   2.003 -0.1165  0.6407 -0.2451
  135PHE     CH 1747   2.038   4.734   2.124 -0.1715  0.0022  0.0911
  135PHE     CH 1748   2.115   4.846   2.156 -0.3477  0.2435 -0.3252
  135PHE     OH 1749   2.308   4.978   2.121 -0.4976  0.1546 -0.0687
  135PHE     HC 1750   2.346   4.827   1.902  0.2801 -0.3769  0.5754
  135PHE     HC 1751   2.196   4.640   1.839 -0.4132 -2.1721  0.5716
  135PHE     HC 1752   2.003   4.580   1.981 -2.1481  1.5469  1.2711
  135PHE     HC 1753   1.959   4.701   2.190 -2.4222  2.3037 -1.2832
  135PHE     HC 1754   2.097   4.892   2.252  0.7283 -0.4793  0.2461
  135PHE     HO 1755   2.376   4.996   2.058  0.1719 -0.1088  0.5639
  136PHE     CO 1756   3.167   1.087   2.299  0.6423  0.0802 -0.1314
  136PHE     CH 1757   3.089   1.044   2.191 -0.0528  0.6584  0.1289
  136PHE     CH 1758   2.950   1.038   2.202  0.0272 -0.4566  0.6670
  136PHE     CH 1759   2.884   1.099   2.309 -0.2200 -0.4856  0.5313
  136PHE     CH 1760   2.964   1.155   2.409  0.3564 -0.1460 -0.1104
  136PHE     CH 1761   3.103   1.143   2.410  0.4295  0.6108 -0.5169
  136PHE     OH 1762   3.303   1.074   2.296  0.6526  0.1078  0.2228
  136PHE     HC 1763   3.145   1.010   2.105  1.0000 -0.2594  1.1432
  136PHE     HC 1764   2.900   1.003   2.113  2.1581 -2.2595  0.0788
  136PHE     HC 1765   2.776   1.104   2.301 -0.3287 -0.3611  1.8151
  136PHE     HC 1766   2.926   1.206   2.497 -2.2578 -0.6255 -0.8706
  136PHE     HC 1767   3.167   1.175   2.491 -0.1701 -0.8260  0.5550
  136PHE     HO 1768   3.331   1.011   2.361 -1.6808  0.9724  2.2345
  137PHE     CO 1769   0.830   3.842   0.566 -0.4137 -0.0069  0.2361
  137PHE     CH 1770   0.937   3.868   0.653  0.0331 -0.3479 -0.2037
  137PHE     CH 1771   0.998   3.756   0.710 -0.0852 -0.1291  0.3615
  137PHE     CH 1772   0.966   3.623   0.679 -0.6901 -0.0089  0.4539
  137PHE     CH 1773   0.862   3.604   0.588  0.2179 -0.0731 -0.5986
  137PHE     CH 1774   0.792   3.712   0.533 -0.2400 -0.0183  0.0801
  137PHE     OH 1775   0.759   3.948   0.518 -0.6202  0.0224  0.5993
  137PHE     HC 1776   0.974   3.967   0.676  1.7488 -0.7013 -1.3177
  137PHE     HC 1777   1.069   3.782   0.788 -0.8135  3.3885  0.0194
  137PHE     HC 1778   1.027   3.544   0.719  0.2370  0.7824  0.6691
  137PHE     HC 1779   0.835   3.506   0.550 -0.5275 -0.1291  0.0488
  137PHE     HC 1780   0.710   3.700   0.463 -0.9299 -0.3247  0.9253
  137PHE     HO 1781   0.790   4.030   0.552  0.6816 -0.4294  0.5618
  138PHE     CO 1782   2.796   0.819   2.711 -0.5819  0.2262 -0.5229
  138PHE     CH 1783   2.721   0.706   2.748  0.4301 -0.3189 -0.0873
  138PHE     CH 1784   2.665   0.631   2.644  0.3481 -0.1049 -0.1990
  138PHE     CH 1785   2.682   0.656   2.508 -0.9580  0.4542 -0.2781
  138PHE     CH 1786   2.760   0.769   2.476 -0.3494 -0.0134 -0.4702
  138PHE     CH 1787   2.823   0.843   2.576 -0.1560 -0.1307 -0.5055
  138PHE     OH 1788   2.855   0.891   2.811 -1.3058 -0.0851  0.1446
  138PHE     HC 1789   2.704   0.691   2.853 -2.6935  1.5292 -0.2237
  138PHE     HC 1790   2.613   0.539   2.671 -1.4135  0.6430 -0.8574
  138PHE     HC 1791   2.636   0.598   2.430 -1.5131  0.5863 -0.0521
  138PHE     HC 1792   2.765   0.803   2.374  2.9645 -2.4523 -1.2775
  138PHE     HC 1793   2.886   0.927   2.551  0.2263  0.1819  1.3751
  138PHE     HO 1794   2.796   0.950   2.854 -1.9135  0.4240 -1.3262
  139PHE     CO 1795   2.127   3.127   2.594 -0.0714 -0.0013 -1.1139
  139PHE     CH 1796   2.152   2.990   2.577  0.0096 -0.1130 -0.1421
  139PHE     CH 1797   2.283   2.942   2.571  0.1156  0.1651 -0.1027
  139PHE     CH 1798   2.388   3.034   2.580  0.2471  0.0999 -0.8871
  139PHE     CH 1799   2.364   3.169   2.611  0.1854 -0.1611  0.2562
  139PHE     CH 1800   2.233   3.216   2.611  0.0981 -0.3952 -0.0462
  139PHE     OH 1801   1.999   3.174   2.591 -0.2827 -0.4897 -0.2809
  139PHE     HC 1802   2.066   2.927   2.563 -1.8981  2.4697 -0.7789
  139PHE     HC 1803   2.299   2.836   2.552  1.2183  0.4633 -0.9620
  139PHE     HC 1804   2.490   2.998   2.579  0.4795  0.6573  0.3262
  139PHE     HC 1805   2.447   3.234   2.636  1.3320 -2.1544  2.0101
  139PHE     HC 1806   2.219   3.322   2.631 -2.5980 -0.3659 -1.6398
  139PHE     HO 1807   1.964   3.228   2.660 -0.6249 -0.8874 -0.1379
  140PHE     CO 1808   1.891   3.104   3.063  0.0733  0.1238 -0.2183
  140PHE     CH 1809   1.900   3.130   3.201 -0.3435  0.5261 -0.2640
  140PHE     CH 1810   2.021   3.180   3.249 -0.1810  0.4068 -0.5447
  140PHE     CH 1811   2.133   3.192   3.166  0.2844  0.0478  0.0179
  140PHE     CH 1812   2.123   3.153   3.032 -0.2915 -0.6111  0.2490
  140PHE     CH 1813   2.002   3.108   2.978 -0.0875 -0.3415 -0.4496
  140PHE     OH 1814   1.772   3.070   3.006  0.1417  0.3157 -0.4760
  140PHE     HC 1815   1.818   3.109   3.268  0.7585  2.0203  1.6108
  140PHE     HC 1816   2.027   3.202   3.355 -0.3048 -1.4126 -0.1238
  140PHE     HC 1817   2.231   3.223   3.196 -0.4991  0.0931  2.7464
  140PHE     HC 1818   2.210   3.161   2.969 -0.1757  2.1400  0.6592
  140PHE     HC 1819   1.992   3.068   2.878  0.0553  1.0489 -1.0339
  140PHE     HO 1820   1.771   3.077   2.912 -1.3957 -1.3705 -0.6440
  141PHE     CO 1821   2.699   4.703   2.073 -0.2443  0.5248 -0.0310
  141PHE     CH 1822   2.808   4.742   1.994 -0.2893  0.1895 -0.2614
  141PHE     CH 1823   2.899   4.644   1.954 -0.0463  0.4172 -0.2647
  141PHE     CH 1824   2.892   4.513   2.004 -0.0120  0.4618 -0.1434
  141PHE     CH 1825   2.782   4.478   2.083 -0.0193  0.5717 -0.1038
  141PHE     CH 1826   2.681   4.570   2.114 -0.5898  0.2656 -0.9823
  141PHE     OH 1827   2.607   4.797   2.108 -0.0365  0.6519  0.1758
  141PHE     HC 1828   2.815   4.845   1.964  2.3198 -0.0402 -0.6449
  141PHE     HC 1829   2.982   4.664   1.888  0.3877 -1.5115 -0.3790
  141PHE     HC 1830   2.959   4.429   1.992 -3.3199 -2.4412  0.1782
  141PHE     HC 1831   2.774   4.373   2.104 -1.0078 -0.1086 -3.2287
  141PHE     HC 1832   2.592   4.536   2.164  0.5417 -0.7979  0.4183
  141PHE     HO 1833   2.536   4.771   2.165  0.4216  3.2516  2.1231
  142PHE     CO 1834   1.822   2.168   2.568 -0.4896 -0.5797 -0.2483
  142PHE     CH 1835   1.699   2.234   2.563 -0.1837 -0.0002 -0.1305
  142PHE     CH 1836   1.683   2.346   2.646 -0.0796 -0.3090  0.3070
  142PHE     CH 1837   1.790   2.392   2.724 -0.1846 -0.2881  0.4393
  142PHE     CH 1838   1.911   2.322   2.727 -0.3206 -0.5445  0.1097
  142PHE     CH 1839   1.929   2.207   2.650 -0.5246 -0.2672 -0.3519
  142PHE     OH 1840   1.850   2.066   2.481 -0.2011 -0.2945 -0.4906
  142PHE     HC 1841   1.634   2.199   2.484 -0.4506 -1.4371  0.7105
  142PHE     HC 1842   1.603   2.418   2.632 -0.7755 -0.8259  1.4737
  142PHE     HC 1843   1.779   2.486   2.776 -1.3715  0.2385 -0.7110
  142PHE     HC 1844   1.995   2.353   2.788 -0.8152  1.7974 -0.3001
  142PHE     HC 1845   2.022   2.153   2.648 -1.4688 -1.9443 -0.5538
  142PHE     HO 1846   1.924   2.016   2.509  1.5383  1.3367 -1.8770
  143PHE     CO 1847   4.791   4.361   2.110 -0.2382 -0.0712  0.0705
  143PHE     CH 1848   4.825   4.299   1.990  0.2624  0.7391 -0.2207
  143PHE     CH 1849   4.740   4.327   1.883 -0.1169  0.7137  0.0721
  143PHE     CH 1850   4.632   4.416   1.895 -0.6639  0.1005 -0.1978
  143PHE     CH 1851   4.607   4.483   2.015 -0.3226 -0.2289  0.0611
  143PHE     CH 1852   4.693   4.460   2.123 -0.0007  0.1888 -0.1042
  143PHE     OH 1853   4.873   4.342   2.218  0.0014 -0.4645 -0.1792
  143PHE     HC 1854   4.901   4.223   1.984  1.6138  2.1228 -1.2926
  143PHE     HC 1855   4.750   4.263   1.796 -2.6569 -0.3908  0.4784
  143PHE     HC 1856   4.558   4.433   1.818 -0.1153  3.4899 -0.1306
  143PHE     HC 1857   4.519   4.545   2.021 -0.7168 -0.7747 -0.0415
  143PHE     HC 1858   4.672   4.514   2.214  1.1174  2.7456 -1.2588
  143PHE     HO 1859   4.839   4.392   2.291 -0.0213 -1.0249  0.2027
  144PHE     CO 1860   1.921   0.330   4.503 -0.2864  0.0802  0.4108
  144PHE     CH 1861   1.890   0.232   4.408  0.3111 -0.2137  0.5187
  144PHE     CH 1862   1.859   0.104   4.456 -0.0683 -0.2195  0.2652
  144PHE     CH 1863   1.891   0.068   4.588  0.2524 -0.5706  0.0934
  144PHE     CH 1864   1.940   0.165   4.675  0.4141 -0.2528 -0.3454
  144PHE     CH 1865   1.955   0.298   4.635 -0.2685  0.0604  0.4009
  144PHE     OH 1866   1.920   0.464   4.475 -0.2726  0.0990  0.5030
  144PHE     HC 1867   1.863   0.254   4.306 -0.9624  0.7512  1.0374
  144PHE     HC 1868   1.829   0.038   4.376  0.2622  0.9725 -0.8595
  144PHE     HC 1869   1.875   5.067   4.624  0.1306 -0.9662 -1.0247
  144PHE     HC 1870   1.970   0.130   4.773  0.1108  1.9975  0.6096
  144PHE     HC 1871   1.994   0.375   4.700  1.0061 -1.0866  1.0303
  144PHE     HO 1872   1.937   0.496   4.388  1.2334  0.4152  0.8789
  145PHE     CO 1873   3.291   1.108   3.195 -0.2186 -0.5454 -0.0724
  145PHE     CH 1874   3.231   1.225   3.148  0.7124  0.1793  0.5160
  145PHE     CH 1875   3.143   1.304   3.223  0.4576  0.0718  0.3321
  145PHE     CH 1876   3.086   1.245   3.336 -0.9463 -0.7726 -0.7848
  145PHE     CH 1877   3.134   1.121   3.380  0.3714  0.1723  0.5379
  145PHE     CH 1878   3.238   1.054   3.313  0.1506  0.0133  0.3522
  145PHE     OH 1879   3.388   1.039   3.129 -0.1256  0.0241 -0.5411
  145PHE     HC 1880   3.278   1.265   3.059  2.3909 -1.9288  0.3756
  145PHE     HC 1881   3.109   1.402   3.192 -1.1283 -0.1482  1.2678
  145PHE     HC 1882   3.019   1.297   3.404 -2.0121 -1.4259 -1.3030
  145PHE     HC 1883   3.097   1.076   3.471 -0.1709 -0.0366  0.2214
  145PHE     HC 1884   3.266   0.960   3.357  1.5688  0.7242  1.0447
  145PHE     HO 1885   3.447   1.090   3.077  0.9061  0.6779  1.1626
  146PHE     CO 1886   2.079   3.985   4.241  0.0209 -0.1654  0.4118
  146PHE     CH 1887   1.943   3.981   4.208  0.2196 -0.3058 -0.3985
  146PHE     CH 1888   1.900   4.032   4.085 -0.2333  0.9837  0.2696
  146PHE     CH 1889   1.991   4.073   3.987  0.1370 -0.0351  0.1790
  146PHE     CH 1890   2.125   4.086   4.026  0.1706 -0.1254  0.0931
  146PHE     CH 1891   2.171   4.037   4.149 -0.1816 -0.1819  0.2013
  146PHE     OH 1892   2.128   3.927   4.355  0.0054  0.8611  0.9564
  146PHE     HC 1893   1.875   3.931   4.275 -1.4966 -0.1135 -1.9146
  146PHE     HC 1894   1.794   4.023   4.065  0.1222 -0.7976 -1.2094
  146PHE     HC 1895   1.958   4.095   3.887  1.6548  0.1163 -0.3148
  146PHE     HC 1896   2.202   4.115   3.955  0.5523 -2.3731 -0.4954
  146PHE     HC 1897   2.276   4.034   4.172 -0.0403 -0.3264 -0.4390
  146PHE     HO 1898   2.055   3.912   4.413 -1.4584  1.9945 -0.4820
  147PHE     CO 1899   1.561   1.217   3.992 -0.2642  0.1001 -0.1236
  147PHE     CH 1900   1.681   1.200   4.062 -0.3419 -0.5081 -0.1276
  147PHE     CH 1901   1.786   1.290   4.037 -0.3104 -0.4299  0.2790
  147PHE     CH 1902   1.773   1.395   3.945 -0.5495 -0.8049 -0.1199
  147PHE     CH 1903   1.650   1.415   3.882  0.0215  0.2130 -0.9559
  147PHE     CH 1904   1.552   1.315   3.893  0.4629 -0.1721 -0.4600
  147PHE     OH 1905   1.454   1.133   4.011 -0.1290 -0.1391 -0.4147
  147PHE     HC 1906   1.687   1.125   4.138 -0.3611 -0.5183 -0.1361
  147PHE     HC 1907   1.876   1.277   4.095 -1.2893 -4.5505  1.2332
  147PHE     HC 1908   1.848   1.470   3.924 -1.3334  0.1605  0.4302
  147PHE     HC 1909   1.635   1.500   3.818 -0.3336 -0.5578 -1.9296
  147PHE     HC 1910   1.464   1.308   3.831  0.6611  1.0044 -0.9053
  147PHE     HO 1911   1.465   1.058   4.067  2.6686 -0.2689 -0.9567
  148PHE     CO 1912   0.842   4.555   2.040 -0.2827  0.1634  0.0385
  148PHE     CH 1913   0.827   4.487   1.918 -0.2509  0.4589 -0.1328
  148PHE     CH 1914   0.729   4.522   1.824 -0.0891  0.6765 -0.2208
  148PHE     CH 1915   0.637   4.622   1.857 -0.1317  0.7119 -0.4480
  148PHE     CH 1916   0.649   4.687   1.980 -0.0553  0.5259 -0.3562
  148PHE     CH 1917   0.747   4.652   2.073 -0.2560  0.2839 -0.2327
  148PHE     OH 1918   0.935   4.516   2.131 -0.3177  0.1311  0.0610
  148PHE     HC 1919   0.897   4.411   1.886 -0.9892  1.1835 -3.8584
  148PHE     HC 1920   0.728   4.473   1.728 -2.2283  1.4503 -0.6379
  148PHE     HC 1921   0.568   4.647   1.778 -1.3707 -2.0969 -0.3520
  148PHE     HC 1922   0.572   4.759   2.005 -3.0928 -1.1344 -3.9973
  148PHE     HC 1923   0.748   4.687   2.175 -0.5479 -0.1722 -0.0721
  148PHE     HO 1924   0.981   4.439   2.100  1.4774  0.7278  1.0606
  149PHE     CO 1925   3.592   0.388   2.507 -0.1664  0.6747 -0.2667
  149PHE     CH 1926   3.474   0.385   2.583  0.0810 -0.1085  0.1016
  149PHE     CH 1927   3.486   0.392   2.723  0.2697 -0.9264  0.1263
  149PHE     CH 1928   3.613   0.403   2.781  0.4108  0.5613 -0.4309
  149PHE     CH 1929   3.730   0.410   2.704  0.4444  0.0303 -0.4306
  149PHE     CH 1930   3.718   0.409   2.565 -0.0063  0.0713 -0.3932
  149PHE     OH 1931   3.583   0.361   2.374  0.0343 -0.2402 -0.1019
  149PHE     HC 1932   3.380   0.375   2.531  1.1664 -0.6824 -1.8336
  149PHE     HC 1933   3.398   0.395   2.785 -0.1660  0.0903 -0.5228
  149PHE     HC 1934   3.626   0.391   2.887  1.2490  2.5473 -0.2659
  149PHE     HC 1935   3.827   0.402   2.750 -0.5363 -1.3269  1.5770
  149PHE     HC 1936   3.817   0.396   2.524  0.3706  0.1081  0.4986
  149PHE     HO 1937   3.665   0.371   2.328  0.9776 -1.1705  1.2788
  150PHE     CO 1938   2.565   1.881   2.160 -0.3199 -0.0051 -0.0242
  150PHE     CH 1939   2.513   1.972   2.068 -0.4438 -0.3742 -0.3233
  150PHE     CH 1940   2.512   2.107   2.104  0.4447 -0.4513  0.0104
  150PHE     CH 1941   2.557   2.150   2.229  0.4880 -0.1453 -0.1087
  150PHE     CH 1942   2.597   2.056   2.325  0.6809  0.4229  0.3782
  150PHE     CH 1943   2.604   1.921   2.289 -0.6731  0.4456 -0.0561
  150PHE     OH 1944   2.571   1.749   2.125 -0.6262  0.1538 -0.6905
  150PHE     HC 1945   2.474   1.937   1.974  1.3473  0.1771 -1.3069
  150PHE     HC 1946   2.483   2.193   2.045 -0.4177 -1.2909 -0.8237
  150PHE     HC 1947   2.555   2.256   2.254 -4.4550  0.7542 -3.1331
  150PHE     HC 1948   2.620   2.078   2.428  2.1173  1.3151 -0.1101
  150PHE     HC 1949   2.637   1.847   2.360 -1.5585 -2.1810 -2.1862
  150PHE     HO 1950   2.646   1.707   2.166 -0.0556 -1.0554 -2.7926
  151PHE     CO 1951   3.760   0.839   1.492  0.0158 -0.4449 -0.2686
  151PHE     CH 1952   3.646   0.886   1.425 -0.3815 -0.7035  0.2233
  151PHE     CH 1953   3.661   0.912   1.289  0.1546  0.7257  0.5389
  151PHE     CH 1954   3.780   0.908   1.215 -0.1205 -0.1600  0.1276
  151PHE     CH 1955   3.889   0.875   1.297 -0.0365  0.0192  0.0878
  151PHE     CH 1956   3.885   0.831   1.430  0.2338  0.0316  0.1003
  151PHE     OH 1957   3.748   0.794   1.620  0.2131 -0.1202 -0.1350
  151PHE     HC 1958   3.546   0.893   1.466 -1.4196  2.1578 -2.4858
  151PHE     HC 1959   3.579   0.932   1.221  0.5434  0.0073 -0.1695
  151PHE     HC 1960   3.789   0.932   1.110  0.5872  1.6381  0.5683
  151PHE     HC 1961   3.988   0.876   1.254 -0.3701  0.5745 -0.6951
  151PHE     HC 1962   3.965   0.786   1.486 -0.3490 -1.0759  0.0807
  151PHE     HO 1963   3.759   0.867   1.679 -0.4470 -0.0314 -0.1208
  152PHE     CO 1964   1.041   4.167   2.040  0.1397  0.1419 -0.0964
  152PHE     CH 1965   0.910   4.119   2.050  0.2825 -0.1764  0.2669
  152PHE     CH 1966   0.875   3.992   2.003  0.1500 -0.2178  0.4768
  152PHE     CH 1967   0.976   3.907   1.955 -0.0649  0.0324 -0.4438
  152PHE     CH 1968   1.109   3.949   1.958 -0.1413  0.2254  0.4723
  152PHE     CH 1969   1.142   4.080   1.997  0.3744  0.0540  0.6172
  152PHE     OH 1970   1.082   4.292   2.078  0.7433  0.0198 -0.3254
  152PHE     HC 1971   0.840   4.190   2.090  0.5905 -0.4819  1.3836
  152PHE     HC 1972   0.769   3.972   1.998 -0.4217  2.5284  0.1392
  152PHE     HC 1973   0.952   3.814   1.905 -0.2632  2.0255 -4.4691
  152PHE     HC 1974   1.187   3.890   1.914 -0.0737  0.9470 -0.4161
  152PHE     HC 1975   1.242   4.116   1.980  0.1272  1.4497  1.9386
  152PHE     HO 1976   1.172   4.318   2.074  0.3815  1.6491  0.9661
  153PHE     CO 1977   4.041   0.277   3.021 -0.0502  0.4034 -0.1716
  153PHE     CH 1978   4.136   0.319   3.116 -0.1083  0.6756 -0.2316
  153PHE     CH 1979   4.270   0.321   3.076 -0.0213 -0.2544 -0.0115
  153PHE     CH 1980   4.306   0.283   2.946  0.2574 -1.2042  0.3372
  153PHE     CH 1981   4.211   0.241   2.852  0.1587 -0.2592  0.0133
  153PHE     CH 1982   4.077   0.241   2.891  0.2040 -0.5734  0.1654
  153PHE     OH 1983   3.909   0.273   3.052 -0.0955 -0.3755 -0.4581
  153PHE     HC 1984   4.103   0.349   3.214 -1.0613  1.8448 -0.8793
  153PHE     HC 1985   4.345   0.351   3.149  0.2987  3.2153 -1.5528
  153PHE     HC 1986   4.407   0.278   2.909  0.4891 -0.6741  0.8738
  153PHE     HC 1987   4.249   0.207   2.756  2.5302 -0.9866  1.1290
  153PHE     HC 1988   4.011   0.199   2.817 -1.1310 -0.0581  1.0293
  153PHE     HO 1989   3.868   0.203   3.002 -1.0559  0.1231 -0.4003
  154PHE     CO 1990   4.498   0.408   1.026  0.0437  0.2081 -0.5182
  154PHE     CH 1991   4.568   0.522   1.068  0.0063 -0.0249  0.1861
  154PHE     CH 1992   4.514   0.608   1.164  0.3945  0.0837  0.3077
  154PHE     CH 1993   4.397   0.569   1.231  0.1295  0.0863 -0.1550
  154PHE     CH 1994   4.336   0.447   1.199  0.5794 -0.4294  0.9270
  154PHE     CH 1995   4.385   0.366   1.096  0.3804  0.4136  0.1509
  154PHE     OH 1996   4.552   0.331   0.926 -0.1304 -0.3649 -0.1739
  154PHE     HC 1997   4.654   0.548   1.008  0.4744 -0.1804  0.7782
  154PHE     HC 1998   4.569   0.698   1.187 -1.7664  1.9521 -1.4685
  154PHE     HC 1999   4.355   0.625   1.313 -0.7206 -2.4562  1.2224
  154PHE     HC 2000   4.251   0.421   1.261  0.9353 -0.9148  1.2169
  154PHE     HC 2001   4.344   0.269   1.071  2.2265 -0.7771  1.4761
  154PHE     HO 2002   4.509   0.249   0.911  0.8075 -0.4671 -2.6075
  155PHE     CO 2003   0.240   0.868   0.870  0.4939 -0.0642 -0.1943
  155PHE     CH 2004   0.365   0.872   0.807  0.5209  0.1292 -0.1288
  155PHE     CH 2005   0.449   0.760   0.811 -0.1683 -0.3879  0.1087
  155PHE     CH 2006   0.406   0.646   0.879  0.4752 -0.4406  0.4350
  155PHE     CH 2007   0.277   0.634   0.932  0.1658 -0.3414 -0.2831
  155PHE     CH 2008   0.198   0.749   0.931  0.4354 -0.1578 -0.4164
  155PHE     OH 2009   0.153   0.973   0.868 -0.1243 -0.5626  0.4156
  155PHE     HC 2010   0.385   0.959   0.746 -2.3572  0.3052 -0.9616
  155PHE     HC 2011   0.544   0.751   0.760 -0.3685 -0.5426 -0.2348
  155PHE     HC 2012   0.466   0.556   0.885  0.1720 -0.6890 -0.1903
  155PHE     HC 2013   0.239   0.542   0.974 -1.2401 -0.8820 -2.5619
  155PHE     HC 2014   0.101   0.738   0.977 -0.0859 -2.6754 -1.9290
  155PHE     HO 2015   0.204   1.052   0.868 -0.9851  0.0233 -1.0517
  156PHE     CO 2016   1.955   3.219   2.203  0.6089 -0.2188  0.4506
  156PHE     CH 2017   2.008   3.095   2.242  0.2600 -0.4973  0.0406
  156PHE     CH 2018   2.057   3.000   2.152 -0.4847 -0.5876 -0.2729
  156PHE     CH 2019   2.046   3.030   2.015 -0.6425 -0.7881 -0.3049
  156PHE     CH 2020   2.005   3.156   1.972  0.4110 -0.0387  0.7985
  156PHE     CH 2021   1.953   3.246   2.066 -0.1113 -0.0213  0.4984
  156PHE     OH 2022   1.915   3.307   2.300 -0.0188  0.1049 -0.0990
  156PHE     HC 2023   2.012   3.049   2.340 -1.2729 -0.5470  0.1142
  156PHE     HC 2024   2.099   2.908   2.189 -1.2189 -0.6339  0.4718
  156PHE     HC 2025   2.076   2.954   1.945 -0.5390 -2.5527  1.5415
  156PHE     HC 2026   1.997   3.165   1.864 -2.4621 -3.2826  0.5382
  156PHE     HC 2027   1.919   3.344   2.037  1.8750  1.1587  1.9903
  156PHE     HO 2028   1.936   3.269   2.384 -0.8614 -0.4705 -0.1377
  157PHE     CO 2029   4.032   1.168   0.183 -0.0382  0.2551  0.2125
  157PHE     CH 2030   4.127   1.147   0.283  0.0440 -0.3803  0.0060
  157PHE     CH 2031   4.109   1.034   0.365  0.1959  0.0567  0.6505
  157PHE     CH 2032   4.011   0.937   0.340  0.3087  0.3075 -0.8810
  157PHE     CH 2033   3.925   0.957   0.232 -0.0599  0.4423 -0.5633
  157PHE     CH 2034   3.935   1.071   0.152  0.2216  0.2899 -0.7442
  157PHE     OH 2035   4.034   1.286   0.114 -0.3558  0.0098 -0.2241
  157PHE     HC 2036   4.200   1.217   0.320 -0.9487  0.8658 -0.3544
  157PHE     HC 2037   4.183   1.025   0.444  0.5809 -1.1111  0.1733
  157PHE     HC 2038   4.006   0.846   0.398  1.0845  1.3105  0.8558
  157PHE     HC 2039   3.849   0.881   0.216 -0.2642 -0.2631  2.9890
  157PHE     HC 2040   3.875   1.090   0.064  0.2549  0.0076 -0.8286
  157PHE     HO 2041   4.126   1.307   0.109  0.3676 -2.9189 -1.4876
  158PHE     CO 2042   0.653   0.037   0.031  0.5149  0.5395 -0.4339
  158PHE     CH 2043   0.750   0.020   5.032  0.9843  0.1642  0.0867
  158PHE     CH 2044   0.780   0.129   4.949  0.9316  0.3747  0.3435
  158PHE     CH 2045   0.717   0.252   4.967 -0.5616 -0.2592 -0.3552
  158PHE     CH 2046   0.627   0.268   5.073  0.3655  0.4275  0.3562
  158PHE     CH 2047   0.591   0.160   0.056  0.0864  0.2415 -0.0035
  158PHE     OH 2048   0.625   5.036   0.119  0.3612  0.6128 -0.3971
  158PHE     HC 2049   0.798   5.024   5.021  1.2118  0.4568 -1.9810
  158PHE     HC 2050   0.859   0.112   4.878 -1.6391 -0.9950 -2.4155
  158PHE     HC 2051   0.747   0.336   4.906 -3.3401 -0.1129 -1.6469
  158PHE     HC 2052   0.597   0.369   5.095  1.5317  1.1024 -1.0498
  158PHE     HC 2053   0.526   0.179   0.140  1.4455  3.2633  0.4991
  158PHE     HO 2054   0.553   5.060   0.175 -0.3452  1.2673 -1.5464
  159PHE     CO 2055   1.763   4.801   3.792  0.0109 -0.6731 -0.4261
  159PHE     CH 2056   1.854   4.727   3.869  0.2659  0.0552 -0.0225
  159PHE     CH 2057   1.808   4.624   3.952  0.2204 -0.1616 -0.3198
  159PHE     CH 2058   1.671   4.595   3.955  0.2144 -0.1078 -0.0665
  159PHE     CH 2059   1.582   4.657   3.866 -0.4442 -0.0358  0.6389
  159PHE     CH 2060   1.628   4.765   3.790 -0.1130 -0.2982  0.4677
  159PHE     OH 2061   1.800   4.911   3.721  0.2988 -0.7684 -0.4262
  159PHE     HC 2062   1.959   4.754   3.866  0.0208  0.9335 -1.8036
  159PHE     HC 2063   1.891   4.580   4.006  1.7788  4.0834  1.1923
  159PHE     HC 2064   1.629   4.521   4.021 -2.1233  0.4354 -0.8605
  159PHE     HC 2065   1.479   4.626   3.872 -0.5508  0.5386  2.8041
  159PHE     HC 2066   1.558   4.823   3.731  0.7742  1.5961  1.2075
  159PHE     HO 2067   1.729   4.968   3.695  0.0853 -1.2331 -0.8831
  160PHE     CO 2068   1.592   3.205   2.592 -0.5858 -0.0532 -0.5017
  160PHE     CH 2069   1.658   3.091   2.545  0.0035  0.0099  0.1554
  160PHE     CH 2070   1.647   2.971   2.617  0.2789 -0.4971 -0.6406
  160PHE     CH 2071   1.571   2.964   2.734  0.1816  0.5929 -0.6304
  160PHE     CH 2072   1.515   3.082   2.784 -0.1811  0.0006  0.3901
  160PHE     CH 2073   1.529   3.205   2.717  1.3452 -0.0872  0.5125
  160PHE     OH 2074   1.593   3.323   2.524 -0.0662  0.2823  0.0764
  160PHE     HC 2075   1.713   3.112   2.454 -0.7713 -1.2009 -0.6176
  160PHE     HC 2076   1.696   2.881   2.584 -1.1056 -1.7516  0.6027
  160PHE     HC 2077   1.561   2.878   2.798  0.3283  2.4306  2.0342
  160PHE     HC 2078   1.461   3.073   2.877 -0.1875 -2.0363  0.2168
  160PHE     HC 2079   1.481   3.293   2.756  1.9981  1.7859 -2.6242
  160PHE     HO 2080   1.593   3.307   2.431 -2.3160 -2.0040  0.3530
  161PHE     CO 2081   0.743   4.221   3.292  0.2233  0.4420 -0.1752
  161PHE     CH 2082   0.877   4.210   3.332  0.1170 -0.1958  0.0298
  161PHE     CH 2083   0.916   4.248   3.461  0.6522 -0.1582 -0.1386
  161PHE     CH 2084   0.813   4.257   3.556  0.1893  0.6244 -0.7036
  161PHE     CH 2085   0.677   4.263   3.520 -0.0146 -0.2328 -0.1078
  161PHE     CH 2086   0.643   4.248   3.385  0.1035 -0.0490 -0.1589
  161PHE     OH 2087   0.712   4.198   3.161  0.3044 -0.3265 -0.0656
  161PHE     HC 2088   0.955   4.181   3.263  0.6927  0.2060  0.5055
  161PHE     HC 2089   1.017   4.240   3.496  0.4614 -0.9967  0.2579
  161PHE     HC 2090   0.821   4.260   3.663  1.6947  1.5462 -0.8112
  161PHE     HC 2091   0.597   4.267   3.592 -0.7360 -0.8836 -0.8572
  161PHE     HC 2092   0.536   4.256   3.368 -0.2278  2.3452  2.3566
  161PHE     HO 2093   0.619   4.181   3.155 -0.6654  2.3402  3.7543
  162PHE     CO 2094   2.523   4.449   0.868  0.2693  0.4412 -0.5527
  162PHE     CH 2095   2.581   4.491   0.989 -0.0991 -0.4183 -0.0716
  162PHE     CH 2096   2.581   4.624   1.033 -0.0797 -0.4008 -0.1242
  162PHE     CH 2097   2.521   4.718   0.949  0.2931  0.2500  0.3310
  162PHE     CH 2098   2.466   4.684   0.825  0.1578  0.3887  0.3529
  162PHE     CH 2099   2.470   4.549   0.786 -0.1313  0.5333 -0.1879
  162PHE     OH 2100   2.527   4.316   0.838 -0.1055  0.3269 -0.1135
  162PHE     HC 2101   2.625   4.413   1.049 -0.4503 -1.2045 -0.8057
  162PHE     HC 2102   2.626   4.637   1.130 -2.2316  0.9977  0.7565
  162PHE     HC 2103   2.508   4.823   0.970 -0.7909  0.1591  0.1345
  162PHE     HC 2104   2.419   4.758   0.762  0.8208  2.6769  2.3943
  162PHE     HC 2105   2.433   4.523   0.688 -1.6940 -1.9194  0.9632
  162PHE     HO 2106   2.486   4.300   0.754  0.0391  0.1622 -0.1517
  163PHE     CO 2107   0.809   1.348   1.376  0.1894  0.4882 -0.1621
  163PHE     CH 2108   0.858   1.248   1.291 -0.1447 -0.0562  0.2855
  163PHE     CH 2109   0.989   1.203   1.314  0.1812  0.3153 -0.8310
  163PHE     CH 2110   1.072   1.262   1.410 -0.4474  0.1764 -0.2028
  163PHE     CH 2111   1.019   1.359   1.497  0.1163 -0.3023  0.6943
  163PHE     CH 2112   0.888   1.404   1.477  0.2387 -0.1682  0.1669
  163PHE     OH 2113   0.677   1.379   1.366  0.0204 -0.2178 -0.1484
  163PHE     HC 2114   0.791   1.198   1.223  2.1974 -0.4994 -1.8494
  163PHE     HC 2115   1.021   1.125   1.247 -0.6732  0.2835 -1.2203
  163PHE     HC 2116   1.175   1.231   1.420  0.4910  2.1052 -3.0010
  163PHE     HC 2117   1.078   1.385   1.584 -2.3497 -1.7557  2.9453
  163PHE     HC 2118   0.853   1.477   1.549 -2.8553 -0.1748 -1.1694
  163PHE     HO 2119   0.649   1.446   1.427  1.2204 -0.3804  0.6250
  164PHE     CO 2120   2.866   0.186   4.401 -0.1131  0.2160 -0.6125
  164PHE     CH 2121   2.728   0.162   4.391 -0.0976 -0.0761 -0.1359
  164PHE     CH 2122   2.667   0.058   4.321  0.1322 -0.0673 -0.3524
  164PHE     CH 2123   2.749   5.072   4.247 -0.1870 -0.6181 -0.0800
  164PHE     CH 2124   2.888   5.087   4.262 -0.3008 -0.5141  0.9577
  164PHE     CH 2125   2.946   0.096   4.329  0.1508 -0.5030  0.5529
  164PHE     OH 2126   2.915   0.283   4.483 -0.0969  0.3303 -0.7571
  164PHE     HC 2127   2.666   0.221   4.457  0.8426 -0.4349  1.1034
  164PHE     HC 2128   2.559   0.055   4.332  0.0641 -1.2492 -1.1196
  164PHE     HC 2129   2.715   4.983   4.197  3.3292 -2.2123  0.0595
  164PHE     HC 2130   2.949   5.009   4.221 -2.2134 -1.9174  0.6336
  164PHE     HC 2131   3.053   0.107   4.322  0.0536 -0.5442 -2.3816
  164PHE     HO 2132   3.004   0.298   4.457 -0.4608  0.9375 -1.7332
  165PHE     CO 2133   3.801   4.826   3.388  0.2119  0.3587 -0.0663
  165PHE     CH 2134   3.875   4.915   3.467  0.3102  0.1640  0.0629
  165PHE     CH 2135   3.908   4.871   3.595  0.3496  0.0346  0.0086
  165PHE     CH 2136   3.864   4.749   3.647  0.4230 -0.0353 -0.0933
  165PHE     CH 2137   3.786   4.664   3.567 -0.2182  0.3026  0.1698
  165PHE     CH 2138   3.762   4.699   3.433  0.5321  0.2931  0.0288
  165PHE     OH 2139   3.767   4.867   3.262  0.2727  0.6465  0.0105
  165PHE     HC 2140   3.895   5.016   3.434  0.2448  0.0858 -0.2184
  165PHE     HC 2141   3.959   4.933   3.667  1.7505  0.0438 -0.9410
  165PHE     HC 2142   3.880   4.730   3.752 -0.1599  1.5264  0.3055
  165PHE     HC 2143   3.734   4.582   3.613  1.2158  0.0250  1.3412
  165PHE     HC 2144   3.708   4.632   3.369  0.6414 -0.2714  0.5177
  165PHE     HO 2145   3.791   4.958   3.266  0.8216  0.4608  1.9703
  166PHE     CO 2146   3.635   0.291   4.552  0.3908 -1.6061  0.1721
  166PHE     CH 2147   3.759   0.334   4.602  0.2249 -0.4946 -0.3655
  166PHE     CH 2148   3.796   0.308   4.734  0.1194  0.4443 -0.1408
  166PHE     CH 2149   3.696   0.258   4.818  0.2292  0.1932 -0.1565
  166PHE     CH 2150   3.574   0.213   4.768  0.3777 -0.3535 -0.0313
  166PHE     CH 2151   3.537   0.234   4.635 -0.5564  0.1512  0.2991
  166PHE     OH 2152   3.601   0.311   4.422  0.4495 -0.3756  0.3369
  166PHE     HC 2153   3.828   0.380   4.532  0.4457 -0.5874 -0.2095
  166PHE     HC 2154   3.893   0.329   4.777 -0.3064 -1.0028  1.6759
  166PHE     HC 2155   3.716   0.235   4.922 -0.6334 -0.0010 -0.0327
  166PHE     HC 2156   3.513   0.167   4.844 -0.3833 -2.1281 -1.6206
  166PHE     HC 2157   3.442   0.199   4.596 -0.9790  0.6913  0.8207
  166PHE     HO 2158   3.676   0.343   4.374 -1.5840  2.4739 -1.2589
  167PHE     CO 2159   4.096   4.736   2.489  0.3633 -0.1698 -0.7063
  167PHE     CH 2160   4.083   4.873   2.464 -0.2207 -0.1013 -0.0437
  167PHE     CH 2161   4.140   4.961   2.557 -0.0611  0.0163 -0.2536
  167PHE     CH 2162   4.208   4.913   2.669 -0.1063 -0.1132 -0.2817
  167PHE     CH 2163   4.207   4.777   2.702  0.3599 -0.0975 -0.1945
  167PHE     CH 2164   4.151   4.688   2.609  0.8447  0.2026 -0.7761
  167PHE     OH 2165   4.040   4.645   2.405  0.3978  0.1785 -1.1061
  167PHE     HC 2166   4.032   4.916   2.379  1.7190  0.4942 -0.9651
  167PHE     HC 2167   4.139   5.068   2.541 -0.0787 -0.0229 -0.5222
  167PHE     HC 2168   4.255   4.990   2.729  1.6396  0.7102 -2.5526
  167PHE     HC 2169   4.241   4.729   2.793  0.8851  0.6600  0.0187
  167PHE     HC 2170   4.155   4.589   2.651  0.7464  0.3573 -0.3945
  167PHE     HO 2171   3.975   4.689   2.351  1.5486  1.1645 -1.7326
  168PHE     CO 2172   2.015   2.423   2.192  0.0194 -0.2664  0.1216
  168PHE     CH 2173   2.143   2.369   2.180  0.2050  0.1858  0.0348
  168PHE     CH 2174   2.163   2.232   2.154  0.1982 -0.0229  1.0917
  168PHE     CH 2175   2.055   2.148   2.128  0.5104 -0.0837 -0.0477
  168PHE     CH 2176   1.927   2.204   2.133  0.6465  0.3010 -0.6619
  168PHE     CH 2177   1.906   2.337   2.173 -0.1341 -0.2106  0.7235
  168PHE     OH 2178   1.995   2.548   2.243 -0.0594  0.1182 -0.8264
  168PHE     HC 2179   2.234   2.426   2.191  0.6337 -0.1091 -1.6057
  168PHE     HC 2180   2.266   2.201   2.163  0.3943  0.1388 -0.3650
  168PHE     HC 2181   2.074   2.043   2.110 -1.1798 -0.3350 -0.5817
  168PHE     HC 2182   1.844   2.138   2.112  0.2034  0.5300  0.2608
  168PHE     HC 2183   1.804   2.370   2.188 -0.6910 -1.0301 -0.9230
  168PHE     HO 2184   1.902   2.567   2.240 -0.5921 -1.7953  1.0503
  169PHE     CO 2185   1.876   0.008   0.021  0.1139 -0.2290 -0.0558
  169PHE     CH 2186   1.817   5.029   5.021 -0.1379 -0.4165  0.2405
  169PHE     CH 2187   1.729   5.089   4.931  0.6247  0.0836 -0.1803
  169PHE     CH 2188   1.698   0.126   4.935  0.4707  0.0403  0.1990
  169PHE     CH 2189   1.770   0.207   5.023  0.3484  0.2993  0.0628
  169PHE     CH 2190   1.858   0.147   0.015  0.0576 -0.2336 -0.0029
  169PHE     OH 2191   1.936   5.037   0.120  0.5696 -0.0580 -0.2076
  169PHE     HC 2192   1.831   4.922   5.028  2.1772 -0.2986 -1.4642
  169PHE     HC 2193   1.679   5.029   4.857 -1.8435 -1.5008  2.5531
  169PHE     HC 2194   1.638   0.169   4.856  3.2860  3.9436 -0.1301
  169PHE     HC 2195   1.754   0.313   5.030 -1.8194 -0.0653  2.1057
  169PHE     HC 2196   1.890   0.220   0.088 -0.5589  0.1985 -0.1545
  169PHE     HO 2197   1.962   5.095   0.190 -3.9988 -0.0597  1.8577
  170PHE     CO 2198   0.899   0.508   2.934 -0.4285 -0.2141  1.0650
  170PHE     CH 2199   0.927   0.375   2.899 -0.1526  0.0010  0.4588
  170PHE     CH 2200   1.027   0.300   2.962 -0.5151 -0.5301  0.3988
  170PHE     CH 2201   1.086   0.352   3.077  0.4774 -0.2139 -0.2405
  170PHE     CH 2202   1.048   0.480   3.120  0.2927 -0.2039 -0.4325
  170PHE     CH 2203   0.965   0.563   3.044  0.3494  0.4904  0.2601
  170PHE     OH 2204   0.805   0.580   2.867  0.7142  0.1624 -0.1661
  170PHE     HC 2205   0.885   0.335   2.808  0.6949  1.7520 -0.7730
  170PHE     HC 2206   1.053   0.211   2.906 -1.8498  0.5430 -2.0781
  170PHE     HC 2207   1.164   0.289   3.118  0.8458 -0.7123 -1.6511
  170PHE     HC 2208   1.080   0.519   3.216 -1.1704  0.6961 -0.2920
  170PHE     HC 2209   0.949   0.662   3.084 -1.7694  1.3946 -2.5451
  170PHE     HO 2210   0.803   0.674   2.879 -2.7247  0.2747 -0.7618
  171PHE     CO 2211   1.664   1.025   2.826 -0.1014 -0.2582  0.2220
  171PHE     CH 2212   1.596   1.074   2.714 -0.0686 -0.2891  0.1888
  171PHE     CH 2213   1.484   1.156   2.730 -0.1290 -0.2312 -0.5024
  171PHE     CH 2214   1.438   1.184   2.859 -0.0646 -0.5861 -0.3990
  171PHE     CH 2215   1.506   1.138   2.972  0.2957  0.2282 -0.2767
  171PHE     CH 2216   1.624   1.065   2.954  0.3728  0.2287  0.2246
  171PHE     OH 2217   1.770   0.943   2.805 -0.0639 -0.2240  0.2758
  171PHE     HC 2218   1.628   1.034   2.619  0.4818 -2.7145  1.3094
  171PHE     HC 2219   1.431   1.178   2.638 -1.3562  0.6083  0.3712
  171PHE     HC 2220   1.346   1.238   2.878 -0.6191 -2.7135  4.0604
  171PHE     HC 2221   1.469   1.170   3.069 -2.2293  0.5105 -1.2449
  171PHE     HC 2222   1.678   1.035   3.043  0.1026  0.2972  0.4142
  171PHE     HO 2223   1.815   0.908   2.881  1.5196 -0.6614 -0.8125
  172PHE     CO 2224   1.214   4.166   1.516 -0.0120  0.0461 -0.0147
  172PHE     CH 2225   1.130   4.176   1.404 -0.3148 -0.3326  0.1764
  172PHE     CH 2226   0.996   4.204   1.431 -0.5109 -1.0326 -0.0600
  172PHE     CH 2227   0.945   4.215   1.561  0.2318  0.3812  0.1295
  172PHE     CH 2228   1.030   4.181   1.667 -0.0276  0.1493  0.2636
  172PHE     CH 2229   1.167   4.159   1.647 -0.1125 -0.0909 -0.0586
  172PHE     OH 2230   1.344   4.134   1.492 -0.1397 -0.4626 -0.0249
  172PHE     HC 2231   1.163   4.167   1.302 -2.0297  0.0266 -0.4362
  172PHE     HC 2232   0.926   4.223   1.351  0.1751 -1.3823 -0.7559
  172PHE     HC 2233   0.844   4.244   1.585  0.3651 -0.5068  1.9072
  172PHE     HC 2234   0.993   4.174   1.768 -1.9856  1.5198 -0.3008
  172PHE     HC 2235   1.229   4.129   1.731 -0.3123 -0.5207 -0.0606
  172PHE     HO 2236   1.361   4.089   1.411 -1.8567 -0.0505 -0.6535
  173PHE     CO 2237   2.101   3.478   1.175  0.2657 -0.1290  0.5951
  173PHE     CH 2238   2.092   3.356   1.244 -0.1429 -0.5598 -0.2003
  173PHE     CH 2239   2.173   3.247   1.211  1.0144  0.1656  0.1701
  173PHE     CH 2240   2.253   3.257   1.097  0.7541  0.0219 -0.0275
  173PHE     CH 2241   2.252   3.373   1.018  0.8428  0.1805  0.2017
  173PHE     CH 2242   2.178   3.484   1.058  0.3052 -0.3192  0.6097
  173PHE     OH 2243   2.031   3.590   1.208  0.2428  0.1907 -0.5021
  173PHE     HC 2244   2.021   3.350   1.325  0.2869 -1.5424  0.1120
  173PHE     HC 2245   2.169   3.155   1.268 -4.3174  0.2465  0.4902
  173PHE     HC 2246   2.311   3.178   1.051  0.6032  1.0098 -2.0586
  173PHE     HC 2247   2.306   3.370   0.924  1.1544 -3.0188  0.3739
  173PHE     HC 2248   2.174   3.571   0.994  0.7076 -0.2346  0.6928
  173PHE     HO 2249   1.971   3.588   1.281 -0.3077  1.7671 -0.8822
  174PHE     CO 2250   3.398   4.822   4.608 -0.3090  0.0457  0.3129
  174PHE     CH 2251   3.349   4.728   4.516  0.2792  0.4039 -0.3739
  174PHE     CH 2252   3.273   4.766   4.404 -0.0590  0.0308 -0.2744
  174PHE     CH 2253   3.237   4.901   4.391  0.4687  0.2140  0.0993
  174PHE     CH 2254   3.276   4.995   4.487  0.7410  0.4233 -0.2132
  174PHE     CH 2255   3.351   4.953   4.598  0.8678  0.4358 -0.2930
  174PHE     OH 2256   3.477   4.787   4.714  0.1585  0.0790 -0.0200
  174PHE     HC 2257   3.385   4.627   4.507  1.7599  1.0346 -2.4112
  174PHE     HC 2258   3.240   4.699   4.327  1.1642 -0.0451 -0.7620
  174PHE     HC 2259   3.175   4.940   4.311 -0.3146  0.9265  1.0378
  174PHE     HC 2260   3.252   5.096   4.457 -1.3822 -0.1074 -0.4297
  174PHE     HC 2261   3.379   5.020   4.678 -2.3864  0.5082  0.9196
  174PHE     HO 2262   3.472   4.694   4.726 -0.4566  0.4245  3.6497
  175PHE     CO 2263   1.613   3.641   1.523 -0.0281 -0.1489  0.2103
  175PHE     CH 2264   1.485   3.697   1.519 -0.0102 -0.1168  0.0598
  175PHE     CH 2265   1.374   3.625   1.474 -0.2909  0.7142 -0.5958
  175PHE     CH 2266   1.389   3.489   1.445  0.3999  0.8827 -1.0641
  175PHE     CH 2267   1.514   3.431   1.469 -0.1593 -0.1160 -0.5081
  175PHE     CH 2268   1.630   3.505   1.495 -0.2775 -0.1865  0.2457
  175PHE     OH 2269   1.721   3.721   1.546 -0.4538  0.4312  0.2123
  175PHE     HC 2270   1.469   3.801   1.546 -0.4656 -0.6346  1.9979
  175PHE     HC 2271   1.274   3.665   1.473 -1.0729 -1.1599 -0.2293
  175PHE     HC 2272   1.297   3.435   1.427 -0.7644  2.5589 -0.3913
  175PHE     HC 2273   1.531   3.325   1.459  0.9342  0.0844 -0.9849
  175PHE     HC 2274   1.727   3.459   1.488 -0.4750 -0.3834 -2.2600
  175PHE     HO 2275   1.726   3.800   1.494  1.8851 -1.8903 -3.5971
  176PHE     CO 2276   1.569   3.752   2.553  0.2184  0.0106 -0.4287
  176PHE     CH 2277   1.658   3.850   2.598 -0.4799  0.4624 -0.0109
  176PHE     CH 2278   1.715   3.848   2.726 -0.3023  0.0191 -0.0945
  176PHE     CH 2279   1.690   3.735   2.806 -0.1829  0.0878  0.0407
  176PHE     CH 2280   1.604   3.634   2.760 -0.6026  0.6688 -0.4630
  176PHE     CH 2281   1.535   3.647   2.639 -0.5917  0.1951 -0.5196
  176PHE     OH 2282   1.531   3.749   2.422  0.5550 -0.4932 -0.5178
  176PHE     HC 2283   1.690   3.937   2.544  1.7170  1.5742  2.7938
  176PHE     HC 2284   1.787   3.921   2.758 -0.7541 -1.0335  3.9725
  176PHE     HC 2285   1.749   3.738   2.896  0.0384  0.6705 -0.1204
  176PHE     HC 2286   1.606   3.548   2.825  0.5966  1.7899  1.0791
  176PHE     HC 2287   1.477   3.563   2.603  0.3002 -0.7969  0.2643
  176PHE     HO 2288   1.461   3.689   2.402  1.2741 -1.3454 -0.5587
  177PHE     CO 2289   2.925   4.740   4.983 -0.6297 -0.0524 -0.1636
  177PHE     CH 2290   2.846   4.630   4.945 -0.8443  0.0367  0.0223
  177PHE     CH 2291   2.871   4.566   4.823 -0.2395 -0.6684  0.5083
  177PHE     CH 2292   2.971   4.615   4.738 -0.6760 -0.2366  0.2415
  177PHE     CH 2293   3.053   4.722   4.778 -0.6085 -0.2011  0.0101
  177PHE     CH 2294   3.028   4.786   4.900 -0.5698 -0.0263 -0.0738
  177PHE     OH 2295   2.895   4.816   5.092 -0.0444  0.3070 -0.2481
  177PHE     HC 2296   2.769   4.591   5.009 -0.9469 -2.7896 -1.6585
  177PHE     HC 2297   2.803   4.489   4.788 -4.4023  1.8870  2.2941
  177PHE     HC 2298   2.976   4.584   4.635  0.4095 -0.3004  0.3064
  177PHE     HC 2299   3.127   4.753   4.706 -1.0166 -0.7641 -0.6621
  177PHE     HC 2300   3.085   4.877   4.909 -2.3772  1.1817 -0.4165
  177PHE     HO 2301   2.844   4.764   0.052 -0.7632  0.5488 -0.6307
  178PHE     CO 2302   0.990   0.588   2.082  0.3506 -0.0628 -0.6300
  178PHE     CH 2303   1.014   0.665   1.968  0.5836  1.0280  0.1442
  178PHE     CH 2304   0.910   0.699   1.881  0.4392  0.0753 -0.0577
  178PHE     CH 2305   0.780   0.655   1.912  0.6095 -0.1789  0.3100
  178PHE     CH 2306   0.753   0.577   2.025 -0.0090 -0.2449  0.1207
  178PHE     CH 2307   0.860   0.542   2.108  0.2787  0.5212  0.0754
  178PHE     OH 2308   1.098   0.551   2.157 -0.2644 -0.0235  0.2886
  178PHE     HC 2309   1.115   0.693   1.940  0.7308  0.7127  0.3577
  178PHE     HC 2310   0.929   0.748   1.787 -1.8691 -1.7812 -1.6195
  178PHE     HC 2311   0.697   0.676   1.846  0.4080 -0.8161  0.3578
  178PHE     HC 2312   0.658   0.540   2.059  1.3297 -0.1156  4.6151
  178PHE     HC 2313   0.844   0.473   2.189 -0.9016  0.4188 -0.2276
  178PHE     HO 2314   1.069   0.505   2.234 -0.1845  0.9575  0.9166
  179PHE     CO 2315   2.252   0.605   3.612 -0.2300  0.2416  0.1323
  179PHE     CH 2316   2.260   0.513   3.506  0.2899  0.6424 -0.1797
  179PHE     CH 2317   2.189   0.393   3.516 -0.0838  0.8844  0.1145
  179PHE     CH 2318   2.111   0.369   3.629 -0.4359 -0.1251 -0.3329
  179PHE     CH 2319   2.100   0.467   3.729  0.4217 -0.0478 -0.3096
  179PHE     CH 2320   2.164   0.591   3.719 -0.1007  0.2653  0.2409
  179PHE     OH 2321   2.321   0.723   3.602  0.0176  0.0685 -0.2192
  179PHE     HC 2322   2.329   0.531   3.425  1.7151 -2.9244  0.0483
  179PHE     HC 2323   2.202   0.319   3.438 -1.0284  1.7492 -0.8878
  179PHE     HC 2324   2.056   0.277   3.642 -1.8101  0.6790 -0.2843
  179PHE     HC 2325   2.030   0.445   3.809  2.1265 -2.8629  0.5760
  179PHE     HC 2326   2.133   0.670   3.787 -0.1791  0.6121 -0.1910
  179PHE     HO 2327   2.306   0.777   3.678  0.6277 -1.6218  1.2025
  180PHE     CO 2328   1.229   0.731   0.083 -0.8188 -0.1943  0.2818
  180PHE     CH 2329   1.355   0.686   0.125 -0.6785  0.4505  0.5650
  180PHE     CH 2330   1.412   0.735   0.243  0.6421  0.0689  0.0989
  180PHE     CH 2331   1.341   0.833   0.314  0.0176 -0.4987  0.2625
  180PHE     CH 2332   1.215   0.877   0.273 -0.2332 -0.8684  0.6311
  180PHE     CH 2333   1.160   0.830   0.154 -0.2241  0.3386  0.1314
  180PHE     OH 2334   1.166   0.664   5.083 -0.0910 -0.7095  0.1617
  180PHE     HC 2335   1.403   0.606   0.071 -1.4526 -0.4917  1.2283
  180PHE     HC 2336   1.508   0.699   0.276  0.3108  1.7800  3.3598
  180PHE     HC 2337   1.400   0.859   0.401  3.0379 -0.3710 -1.6641
  180PHE     HC 2338   1.166   0.956   0.328  3.0687  0.8636  1.3497
  180PHE     HC 2339   1.060   0.859   0.126 -1.5180 -3.3601  0.2891
  180PHE     HO 2340   1.222   0.593   5.053 -1.5192 -1.7886 -0.0878
  181PHE     CO 2341   1.284   0.355   5.007 -0.2000 -0.6305 -0.3497
  181PHE     CH 2342   1.374   0.251   5.035 -0.0169 -0.3202  0.2316
  181PHE     CH 2343   1.320   0.129   5.080 -0.2323 -0.1934  0.3174
  181PHE     CH 2344   1.189   0.124   0.031 -0.0383  0.4514  0.8951
  181PHE     CH 2345   1.101   0.231   0.010 -0.3779 -0.0039 -0.0619
  181PHE     CH 2346   1.148   0.342   5.039 -0.2026 -0.1471 -0.1711
  181PHE     OH 2347   1.328   0.474   4.958 -0.4870 -0.4065 -0.0715
  181PHE     HC 2348   1.478   0.266   5.014 -0.3486 -0.4750 -1.7141
  181PHE     HC 2349   1.382   0.042   5.095 -1.8915 -1.3334  0.8457
  181PHE     HC 2350   1.149   0.034   0.073  2.9557 -1.1862  0.5171
  181PHE     HC 2351   1.005   0.210   0.055  0.0914  1.4285  1.7041
  181PHE     HC 2352   1.089   0.431   5.020  0.0001 -0.0785 -0.4832
  181PHE     HO 2353   1.416   0.455   4.928 -0.8671 -0.5759 -1.1113
  182PHE     CO 2354   3.641   0.077   3.191  0.2049  0.0176 -0.7894
  182PHE     CH 2355   3.548   5.083   3.147 -0.0714  0.0251 -0.2220
  182PHE     CH 2356   3.415   0.018   3.119 -0.1487  0.0812  0.2090
  182PHE     CH 2357   3.380   0.153   3.115 -0.4221  0.0151  0.3418
  182PHE     CH 2358   3.475   0.249   3.153  0.5112 -0.7560 -0.0095
  182PHE     CH 2359   3.604   0.212   3.192  0.8566  0.1980 -0.2344
  182PHE     OH 2360   3.761   0.039   3.243 -0.1904  0.2613  0.3262
  182PHE     HC 2361   3.562   4.976   3.150 -1.3486 -0.1714  2.7212
  182PHE     HC 2362   3.339   5.044   3.100 -1.4966  1.8471 -1.5981
  182PHE     HC 2363   3.277   0.183   3.102 -1.1461 -2.3530  0.1496
  182PHE     HC 2364   3.447   0.353   3.156  0.1667 -0.7316 -2.1194
  182PHE     HC 2365   3.680   0.276   3.235  0.4944  1.6840 -1.6767
  182PHE     HO 2366   3.814   0.102   3.289  0.7413 -0.3051  0.0580
  183PHE     CO 2367   1.048   0.942   1.608  0.7957  0.8853  0.1228
  183PHE     CH 2368   1.063   0.843   1.509 -0.0068  0.0748  0.7962
  183PHE     CH 2369   0.968   0.837   1.407  0.6918  0.1336  0.1331
  183PHE     CH 2370   0.857   0.922   1.409  0.1091 -0.6219  0.3440
  183PHE     CH 2371   0.834   1.016   1.511  0.3178  0.4481 -0.5714
  183PHE     CH 2372   0.937   1.027   1.605  0.1093 -0.0069 -0.2834
  183PHE     OH 2373   1.137   0.941   1.711  0.4480  0.1120  0.4247
  183PHE     HC 2374   1.146   0.775   1.520  1.1196  1.2139 -0.2275
  183PHE     HC 2375   0.987   0.764   1.330  0.9576  0.4659 -0.1214
  183PHE     HC 2376   0.786   0.915   1.327  0.9057 -0.2999 -0.3879
  183PHE     HC 2377   0.754   1.087   1.519 -1.2560 -1.4103  1.4921
  183PHE     HC 2378   0.926   1.098   1.685 -2.2340 -0.7137  0.0834
  183PHE     HO 2379   1.214   0.887   1.699  2.5831  2.0357  3.6731
  184PHE     CO 2380   1.720   0.556   2.147 -0.0794 -0.0393 -0.4150
  184PHE     CH 2381   1.856   0.557   2.180 -0.0835 -0.2091 -0.3870
  184PHE     CH 2382   1.903   0.470   2.278 -0.3450  0.2485  0.1527
  184PHE     CH 2383   1.822   0.368   2.329 -0.1454 -0.0228 -0.0688
  184PHE     CH 2384   1.686   0.370   2.298 -0.1112 -0.5956 -0.2847
  184PHE     CH 2385   1.633   0.467   2.211  0.3424 -0.4206 -0.3666
  184PHE     OH 2386   1.668   0.639   2.052  0.2051  0.2772 -0.2933
  184PHE     HC 2387   1.931   0.620   2.134  2.5128 -1.9311  1.2320
  184PHE     HC 2388   2.008   0.468   2.302 -0.0785  3.6078 -0.3147
  184PHE     HC 2389   1.855   0.293   2.400  1.3893  2.2314  1.7695
  184PHE     HC 2390   1.628   0.283   2.325 -0.7754  0.1852  0.9155
  184PHE     HC 2391   1.529   0.468   2.184  0.1182  2.3687  0.3439
  184PHE     HO 2392   1.574   0.645   2.053  0.0195 -0.2520 -3.7612
  185PHE     CO 2393   0.676   3.989   0.952  0.8827 -0.2537  0.2032
  185PHE     CH 2394   0.679   4.082   1.057 -0.3261 -0.0203  0.0543
  185PHE     CH 2395   0.687   4.039   1.190  0.2513  0.5641  0.2180
  185PHE     CH 2396   0.697   3.901   1.213  0.2918  0.4445 -0.4881
  185PHE     CH 2397   0.693   3.810   1.107 -0.4828 -0.0455 -0.0500
  185PHE     CH 2398   0.682   3.851   0.973 -0.0636 -0.3635 -0.1843
  185PHE     OH 2399   0.661   4.029   0.823 -0.4089 -0.2751  0.3313
  185PHE     HC 2400   0.671   4.189   1.045 -1.3702 -0.2815 -2.0156
  185PHE     HC 2401   0.689   4.109   1.272  0.2780 -1.5697  2.1362
  185PHE     HC 2402   0.703   3.870   1.316  1.5147  2.2308  0.0401
  185PHE     HC 2403   0.696   3.703   1.122  5.0089 -0.5144 -2.2083
  185PHE     HC 2404   0.683   3.784   0.888 -0.1653  0.7159 -1.0538
  185PHE     HO 2405   0.610   4.108   0.815 -1.0825 -0.8030 -0.9542
  186PHE     CO 2406   2.283   0.628   3.062 -0.5374  0.4143  0.5168
  186PHE     CH 2407   2.241   0.607   2.930 -0.4494 -0.0487  0.5628
  186PHE     CH 2408   2.316   0.670   2.830 -0.1540 -0.1051  0.7478
  186PHE     CH 2409   2.422   0.758   2.856 -0.2819  0.1647  0.3574
  186PHE     CH 2410   2.466   0.771   2.988  0.0712  0.4730  0.2127
  186PHE     CH 2411   2.397   0.704   3.090 -0.5115  0.6038 -0.0867
  186PHE     OH 2412   2.219   0.556   3.159 -0.9534 -0.6367 -0.5107
  186PHE     HC 2413   2.169   0.530   2.905 -0.7591  0.9533 -1.8551
  186PHE     HC 2414   2.307   0.650   2.724 -1.4405 -0.2614  0.8795
  186PHE     HC 2415   2.468   0.808   2.772  0.3275 -0.8321  0.0738
  186PHE     HC 2416   2.553   0.830   3.012  2.3488 -3.2096  1.8069
  186PHE     HC 2417   2.426   0.713   3.194  0.0484 -2.0803  0.0785
  186PHE     HO 2418   2.175   0.477   3.134 -1.5982 -1.2527  2.2180
  187PHE     CO 2419   0.759   0.341   0.626  0.9123  0.0393 -0.0884
  187PHE     CH 2420   0.759   0.438   0.727 -0.0461  0.0391 -0.0814
  187PHE     CH 2421   0.768   0.398   0.861  0.1221  0.3082 -0.0110
  187PHE     CH 2422   0.750   0.262   0.891  0.0619  0.2799 -0.1753
  187PHE     CH 2423   0.736   0.166   0.790  0.2086  0.3282 -0.2410
  187PHE     CH 2424   0.737   0.206   0.656  0.2924  0.0922 -0.3111
  187PHE     OH 2425   0.766   0.378   0.495 -0.1161 -0.0905 -0.1858
  187PHE     HC 2426   0.775   0.543   0.707 -1.4026  0.4162  0.7006
  187PHE     HC 2427   0.779   0.464   0.946 -0.0394 -1.1039  1.1478
  187PHE     HC 2428   0.749   0.229   0.994  2.3195  0.1523 -0.1377
  187PHE     HC 2429   0.734   0.061   0.814  1.3169  0.5743  1.0555
  187PHE     HC 2430   0.723   0.142   0.569  1.2501  0.6217 -0.8701
  187PHE     HO 2431   0.788   0.468   0.475 -0.3363 -0.2489 -1.1790
  188PHE     CO 2432   1.010   4.868   1.574  0.6683  0.4835  0.7464
  188PHE     CH 2433   0.958   4.807   1.689  0.0336 -0.3342  0.0445
  188PHE     CH 2434   0.888   4.878   1.787  0.4132 -0.3608  0.3402
  188PHE     CH 2435   0.865   5.015   1.767  0.1197 -0.4560  0.0143
  188PHE     CH 2436   0.915   5.076   1.651  0.6165 -0.4877  0.2056
  188PHE     CH 2437   0.981   5.003   1.552 -0.0892  0.1002 -0.7194
  188PHE     OH 2438   1.074   4.801   1.473  0.2551  0.3129  0.5940
  188PHE     HC 2439   0.983   4.703   1.699  0.4065 -0.4695 -1.9543
  188PHE     HC 2440   0.854   4.829   1.877 -2.1886 -1.8909 -1.3353
  188PHE     HC 2441   0.813   5.071   1.843  0.2773  0.7663 -0.7530
  188PHE     HC 2442   0.893   0.081   1.637 -3.4893 -0.9799  1.6462
  188PHE     HC 2443   1.023   5.047   1.463  1.7053  1.6696  0.8250
  188PHE     HO 2444   1.157   4.833   1.440 -0.7113  1.6306 -0.7067
  189PHE     CO 2445   2.583   4.352   1.396 -0.1781  0.2872 -0.5426
  189PHE     CH 2446   2.556   4.222   1.353  0.0999 -0.3557  1.1357
  189PHE     CH 2447   2.651   4.119   1.346 -0.0516 -0.4441  0.3104
  189PHE     CH 2448   2.774   4.147   1.406  0.2087 -0.7305 -0.0768
  189PHE     CH 2449   2.808   4.275   1.453 -0.2544 -0.5157 -0.3276
  189PHE     CH 2450   2.710   4.375   1.450 -0.2839 -0.5328  0.0793
  189PHE     OH 2451   2.496   4.454   1.376 -0.1348  0.3844 -0.2460
  189PHE     HC 2452   2.458   4.209   1.310  0.6452 -0.1477 -0.2223
  189PHE     HC 2453   2.635   4.039   1.275 -0.2560  1.0601 -1.4144
  189PHE     HC 2454   2.850   4.070   1.401 -0.5137 -1.4202 -0.5178
  189PHE     HC 2455   2.909   4.304   1.479 -0.2891  0.2648 -1.0240
  189PHE     HC 2456   2.735   4.475   1.485  0.3991 -0.5473 -0.3474
  189PHE     HO 2457   2.416   4.410   1.351 -0.3280  1.0646 -0.8933
  190PHE     CO 2458   3.172   1.039   1.398  0.0987 -0.3825 -0.4100
  190PHE     CH 2459   3.289   1.113   1.382  0.3835 -0.7848 -0.2063
  190PHE     CH 2460   3.389   1.108   1.480 -0.0034 -0.0506  0.2398
  190PHE     CH 2461   3.367   1.039   1.600 -0.2740  0.2932  0.3893
  190PHE     CH 2462   3.247   0.969   1.613 -0.1522 -0.0555 -0.3569
  190PHE     CH 2463   3.149   0.963   1.513 -0.1045 -0.2917 -0.3896
  190PHE     OH 2464   3.086   1.038   1.292  0.0134  0.1844 -0.3499
  190PHE     HC 2465   3.310   1.163   1.289  0.9296  1.1431  0.8774
  190PHE     HC 2466   3.485   1.157   1.474 -0.3623  0.7258  0.6852
  190PHE     HC 2467   3.439   1.037   1.682 -2.2933  0.1594  2.2435
  190PHE     HC 2468   3.236   0.897   1.693  0.1651  0.0925 -0.1794
  190PHE     HC 2469   3.061   0.900   1.520 -1.1882  1.1997 -0.0876
  190PHE     HO 2470   3.003   1.023   1.333 -0.1116  2.7128  0.4382
  191PHE     CO 2471   1.857   0.743   3.076 -0.0885  0.2756 -0.0367
  191PHE     CH 2472   1.722   0.721   3.046 -0.0721 -0.0415  0.1087
  191PHE     CH 2473   1.634   0.658   3.134  0.0906 -0.7359 -0.2202
  191PHE     CH 2474   1.685   0.609   3.255  0.2456  0.0683  0.0418
  191PHE     CH 2475   1.819   0.637   3.285  0.3697  0.4713 -0.8502
  191PHE     CH 2476   1.908   0.705   3.200  0.9883  0.0751 -0.5238
  191PHE     OH 2477   1.942   0.806   2.989 -0.1062 -0.1471 -0.3678
  191PHE     HC 2478   1.680   0.748   2.949 -1.8246  2.6059  1.4756
  191PHE     HC 2479   1.528   0.643   3.115 -0.3220 -0.5923  1.7269
  191PHE     HC 2480   1.614   0.559   3.319 -0.7948 -0.1360 -1.2184
  191PHE     HC 2481   1.854   0.602   3.381  0.0007 -1.9731 -1.5299
  191PHE     HC 2482   2.009   0.729   3.229  0.6170 -2.6542  4.1232
  191PHE     HO 2483   2.031   0.800   3.019 -0.7452 -1.0155  1.5329
  192PHE     CO 2484   1.755   5.068   2.219 -0.4074  0.5129  0.2326
  192PHE     CH 2485   1.627   5.024   2.256  0.0669 -1.3472 -0.2235
  192PHE     CH 2486   1.528   5.015   2.157 -0.1587  0.5186 -0.1995
  192PHE     CH 2487   1.556   5.045   2.023  0.4297 -0.1812 -0.2359
  192PHE     CH 2488   1.683   5.092   1.985  0.5124 -0.2863 -0.0954
  192PHE     CH 2489   1.780   0.001   2.085  0.1176  0.1960  0.2470
  192PHE     OH 2490   1.855   5.075   2.312 -0.0240  0.1710 -0.1475
  192PHE     HC 2491   1.602   4.993   2.356 -0.8962 -0.5024 -0.1900
  192PHE     HC 2492   1.431   4.990   2.197  0.6602 -0.8149  1.0554
  192PHE     HC 2493   1.474   5.032   1.954 -0.7385 -1.6195  1.3393
  192PHE     HC 2494   1.695   0.023   1.882 -0.6487  0.1404 -0.1257
  192PHE     HC 2495   1.875   0.043   2.056  0.1897 -0.6536 -0.8002
  192PHE     HO 2496   1.927   0.020   2.271 -1.2888  2.0027 -0.5249
  193PHE     CO 2497   2.267   2.716   2.153  0.2043 -0.9779 -0.2760
  193PHE     CH 2498   2.400   2.762   2.156 -0.4061  0.8614 -0.3847
  193PHE     CH 2499   2.458   2.798   2.034  0.4106  0.4578 -0.1168
  193PHE     CH 2500   2.389   2.773   1.915  0.3229  0.6605 -0.1084
  193PHE     CH 2501   2.255   2.733   1.917  0.5398 -0.0759  0.1230
  193PHE     CH 2502   2.188   2.709   2.038 -0.0126 -0.1123 -0.1866
  193PHE     OH 2503   2.212   2.681   2.272 -0.1437 -0.1731 -0.2003
  193PHE     HC 2504   2.459   2.773   2.245 -1.0996 -0.8535  0.3468
  193PHE     HC 2505   2.555   2.845   2.023 -0.5620  2.3309 -1.0592
  193PHE     HC 2506   2.433   2.803   1.821 -0.6425  0.6895 -0.5682
  193PHE     HC 2507   2.207   2.724   1.821  2.5074 -0.7497 -0.8384
  193PHE     HC 2508   2.084   2.679   2.046 -0.2954  0.4696 -1.3625
  193PHE     HO 2509   2.125   2.645   2.271 -0.7138  1.1295  0.1647
  194PHE     CO 2510   2.537   1.167   1.807 -0.3016  0.1947  0.3016
  194PHE     CH 2511   2.562   1.177   1.944  0.4090 -0.3876  0.2222
  194PHE     CH 2512   2.630   1.290   1.992 -0.3246  0.1995 -0.1048
  194PHE     CH 2513   2.679   1.385   1.902 -0.0314  0.2551  0.1133
  194PHE     CH 2514   2.665   1.369   1.764 -0.4512  0.0677  0.1767
  194PHE     CH 2515   2.586   1.263   1.717 -0.0012 -0.2049  0.0320
  194PHE     OH 2516   2.474   1.058   1.755  0.0898  0.1346 -0.0541
  194PHE     HC 2517   2.531   1.107   2.020  3.1011  0.5472  2.3684
  194PHE     HC 2518   2.647   1.324   2.093  2.5665  1.1050 -0.8104
  194PHE     HC 2519   2.732   1.472   1.937 -0.4853  1.9146 -2.9678
  194PHE     HC 2520   2.702   1.437   1.688 -1.5189 -1.0081 -1.3878
  194PHE     HC 2521   2.567   1.251   1.612  0.6992  0.1092 -0.1360
  194PHE     HO 2522   2.445   1.058   1.665 -2.5175  0.9827  0.6984
  195PHE     CO 2523   3.462   0.127   0.554 -0.2878  0.0299  0.1652
  195PHE     CH 2524   3.554   0.050   0.480 -0.3245 -0.2177  0.3764
  195PHE     CH 2525   3.686   0.094   0.465 -0.5130  0.1154 -0.3124
  195PHE     CH 2526   3.728   0.208   0.535 -0.3124  0.0389 -0.3093
  195PHE     CH 2527   3.638   0.277   0.617 -0.0774  0.0475 -0.0576
  195PHE     CH 2528   3.501   0.246   0.616 -0.0900  0.1042 -0.1017
  195PHE     OH 2529   3.330   0.091   0.547 -0.3681  0.2271  0.6779
  195PHE     HC 2530   3.525   5.065   0.420 -0.5478 -0.3020  0.6013
  195PHE     HC 2531   3.754   0.037   0.404  0.8267  1.9603 -0.6427
  195PHE     HC 2532   3.830   0.242   0.531 -1.1441  2.6426 -0.8278
  195PHE     HC 2533   3.671   0.364   0.671  1.9490 -0.7401  0.0876
  195PHE     HC 2534   3.426   0.309   0.660 -0.6992  0.3303 -1.4099
  195PHE     HO 2535   3.323   5.097   0.548 -0.2991  0.2211  0.6315
  196PHE     CO 2536   4.923   4.588   0.861 -0.1185 -0.2070 -0.2547
  196PHE     CH 2537   5.052   4.640   0.877 -0.2784  0.1844 -0.2344
  196PHE     CH 2538   5.070   4.775   0.843  0.0693  0.1802 -0.0747
  196PHE     CH 2539   4.964   4.854   0.796 -0.2511  0.0480  0.4236
  196PHE     CH 2540   4.839   4.795   0.773 -0.2937  0.1013  0.5178
  196PHE     CH 2541   4.816   4.661   0.807 -0.2100  0.0066  0.2095
  196PHE     OH 2542   4.904   4.460   0.905 -0.5192 -0.1616 -0.2942
  196PHE     HC 2543   0.031   4.574   0.908  0.2583 -0.1266 -2.1751
  196PHE     HC 2544   0.074   4.800   0.833  0.2396 -0.9823 -1.6065
  196PHE     HC 2545   4.986   4.957   0.774  0.3727 -0.3174 -0.7214
  196PHE     HC 2546   4.751   4.849   0.742  0.4673  0.5378 -0.9850
  196PHE     HC 2547   4.716   4.620   0.811 -0.5734  0.8289 -0.1938
  196PHE     HO 2548   4.819   4.425   0.885 -1.2731  1.0444  0.6636
  197PHE     CO 2549   2.025   0.271   3.040  0.1261  0.2228 -0.2620
  197PHE     CH 2550   2.053   0.190   2.930 -0.3726 -0.0427 -0.1981
  197PHE     CH 2551   1.960   0.176   2.826 -0.2895  0.0565 -0.2850
  197PHE     CH 2552   1.839   0.245   2.833 -0.0046  0.4996  0.4790
  197PHE     CH 2553   1.815   0.333   2.939  0.0894  0.7675  0.2786
  197PHE     CH 2554   1.905   0.344   3.045 -0.4875 -0.8307  0.9583
  197PHE     OH 2555   2.116   0.287   3.140  0.2317 -0.2127 -0.2885
  197PHE     HC 2556   2.148   0.141   2.913 -0.5883  0.0171 -1.7171
  197PHE     HC 2557   1.979   0.122   2.735 -1.3924  0.0088 -0.5012
  197PHE     HC 2558   1.782   0.216   2.745  1.1820  0.8524 -0.4346
  197PHE     HC 2559   1.725   0.392   2.937 -0.3505  0.1004 -0.8845
  197PHE     HC 2560   1.884   0.408   3.129 -2.6786 -1.0500  0.6232
  197PHE     HO 2561   2.200   0.243   3.133  0.3753  0.2594 -1.8243
  198PHE     CO 2562   1.226   2.932   1.705  0.3697  0.0146  0.1567
  198PHE     CH 2563   1.285   2.805   1.718 -0.3248 -0.3325 -0.0571
  198PHE     CH 2564   1.263   2.725   1.830 -0.1594 -0.4045 -0.0753
  198PHE     CH 2565   1.187   2.777   1.936 -0.6741 -0.2973 -0.4941
  198PHE     CH 2566   1.138   2.908   1.932  0.4421  0.1682  0.7239
  198PHE     CH 2567   1.158   2.983   1.816  0.1828 -0.4642  0.2672
  198PHE     OH 2568   1.241   3.008   1.593 -0.0444  0.2421  0.2546
  198PHE     HC 2569   1.344   2.763   1.638  0.6924  0.1837  0.4101
  198PHE     HC 2570   1.291   2.621   1.844  0.0893 -0.1961  1.1094
  198PHE     HC 2571   1.158   2.711   2.017 -0.0495  2.4635  2.1626
  198PHE     HC 2572   1.080   2.941   2.017 -0.6729 -1.1482  0.5142
  198PHE     HC 2573   1.116   3.082   1.803  0.3126 -0.4651 -0.1964
  198PHE     HO 2574   1.254   2.956   1.515 -2.3825  0.3350 -0.2641
  199PHE     CO 2575   2.455   4.297   4.675  0.0260 -0.2754  0.4114
  199PHE     CH 2576   2.455   4.248   4.544  0.3316  0.2346  0.2173
  199PHE     CH 2577   2.392   4.126   4.516  0.0282  0.4292  0.0481
  199PHE     CH 2578   2.324   4.058   4.618  0.0842  0.0050 -0.1931
  199PHE     CH 2579   2.314   4.112   4.747 -0.3007 -0.7064  0.0797
  199PHE     CH 2580   2.383   4.231   4.775  0.1949 -0.9886  0.0678
  199PHE     OH 2581   2.525   4.413   4.693 -0.4124  0.0955 -0.2407
  199PHE     HC 2582   2.507   4.306   4.469 -0.2784 -1.1105 -1.3015
  199PHE     HC 2583   2.380   4.098   4.412  0.6565 -2.6619  0.7158
  199PHE     HC 2584   2.272   3.968   4.592 -0.9327 -0.4804  3.0510
  199PHE     HC 2585   2.256   4.063   4.824 -0.1213 -1.1921 -0.0913
  199PHE     HC 2586   2.389   4.260   4.879  1.9227  0.4870 -0.3900
  199PHE     HO 2587   2.546   4.462   4.615  1.9193 -1.6459 -0.8015
  200PHE     CO 2588   2.127   4.921   1.332 -0.1666  0.3353  0.1005
  200PHE     CH 2589   2.018   5.008   1.317 -0.5250 -0.2070 -0.4998
  200PHE     CH 2590   1.917   5.005   1.413 -0.1774  0.2078 -0.1155
  200PHE     CH 2591   1.927   4.927   1.529  0.2303  0.0928 -0.2274
  200PHE     CH 2592   2.040   4.846   1.544  0.5036  0.7008  1.1581
  200PHE     CH 2593   2.137   4.837   1.443 -0.6258  0.2675  0.0901
  200PHE     OH 2594   2.217   4.907   1.230 -0.5404 -0.5131 -0.1134
  200PHE     HC 2595   2.016   5.072   1.230  0.9470  0.5427 -0.0124
  200PHE     HC 2596   1.838   5.075   1.388  0.5852  0.6151 -1.4468
  200PHE     HC 2597   1.857   4.926   1.611  0.8468  2.0727  0.3886
  200PHE     HC 2598   2.049   4.776   1.626 -0.4415  1.4341  1.9147
  200PHE     HC 2599   2.225   4.775   1.450  1.2357  2.8013  0.8047
  200PHE     HO 2600   2.298   4.870   1.261  1.2117  2.6170 -0.6291
  201PHE     CO 2601   0.022   3.989   2.290  0.1965 -0.3252  0.0054
  201PHE     CH 2602   0.117   4.058   2.367  0.6214 -0.2803 -0.5547
  201PHE     CH 2603   0.186   4.001   2.474  0.0143 -0.3612 -0.2009
  201PHE     CH 2604   0.179   3.862   2.489  0.1650 -0.2998  0.4567
  201PHE     CH 2605   0.098   3.789   2.402 -0.3667  0.2585  0.4746
  201PHE     CH 2606   0.014   3.850   2.309 -0.1731 -0.3165 -0.0847
  201PHE     OH 2607   5.046   4.049   2.194  0.3460  0.4959  0.3909
  201PHE     HC 2608   0.127   4.164   2.351 -0.3286  0.3123  2.2703
  201PHE     HC 2609   0.252   4.061   2.535  0.1188 -1.0601  0.3965
  201PHE     HC 2610   0.241   3.813   2.563  0.0106 -4.1777 -1.7249
  201PHE     HC 2611   0.091   3.681   2.410  0.2064  0.3047  2.0543
  201PHE     HC 2612   5.045   3.796   2.245  0.6296  0.0482 -1.2878
  201PHE     HO 2613   5.020   4.139   2.203  0.2546  0.5273 -0.1595
  202PHE     CO 2614   0.505   1.781   0.887  0.6548  0.1438  0.2471
  202PHE     CH 2615   0.632   1.808   0.837  0.3347 -0.0387 -0.6824
  202PHE     CH 2616   0.675   1.941   0.836  0.1570  0.0275  0.2136
  202PHE     CH 2617   0.587   2.047   0.864 -0.3265 -0.3516  0.1369
  202PHE     CH 2618   0.457   2.015   0.907 -0.0695  0.0035  1.2142
  202PHE     CH 2619   0.410   1.883   0.901  0.3297 -0.0951 -0.1720
  202PHE     OH 2620   0.452   1.655   0.878  0.4600  0.2215  0.3055
  202PHE     HC 2621   0.695   1.727   0.802 -1.6707 -0.4146 -3.8625
  202PHE     HC 2622   0.773   1.972   0.805  0.7038  0.2031  2.0011
  202PHE     HC 2623   0.612   2.152   0.862 -2.7836  0.3766  2.3112
  202PHE     HC 2624   0.390   2.095   0.933 -2.3184 -1.9102  1.5443
  202PHE     HC 2625   0.310   1.854   0.928  0.1015 -0.8358 -1.7149
  202PHE     HO 2626   0.527   1.602   0.853  1.0364  1.0869  0.1526
  203PHE     CO 2627   3.797   0.873   2.457 -0.2879  0.3038  0.3717
  203PHE     CH 2628   3.888   0.976   2.483 -0.3678  0.5167 -0.1833
  203PHE     CH 2629   4.026   0.956   2.489 -0.5532 -0.6964  0.3062
  203PHE     CH 2630   4.075   0.826   2.471 -0.0751 -0.5038  0.2028
  203PHE     CH 2631   3.987   0.720   2.447 -0.5230 -0.1374  0.2083
  203PHE     CH 2632   3.849   0.743   2.447 -0.4593  0.2690 -0.1016
  203PHE     OH 2633   3.664   0.902   2.453 -0.2409  0.4203 -0.5351
  203PHE     HC 2634   3.855   1.076   2.509  0.9036  0.4818  1.7905
  203PHE     HC 2635   4.085   1.040   2.526 -2.5806  1.3654 -0.8837
  203PHE     HC 2636   4.177   0.792   2.480  0.4986  1.1018  0.0668
  203PHE     HC 2637   4.021   0.618   2.453  2.2844  0.7883  3.3002
  203PHE     HC 2638   3.787   0.655   2.438 -0.9700  0.4432  1.3982
  203PHE     HO 2639   3.617   0.830   2.417 -1.5497  0.2188  1.4138
  204PHE     CO 2640   4.997   4.999   3.830 -0.1509  0.2916 -0.0059
  204PHE     CH 2641   5.037   0.002   3.744 -0.1400  0.3895  0.1174
  204PHE     CH 2642   4.959   0.117   3.740 -0.4624  0.1668 -0.0099
  204PHE     CH 2643   4.838   0.125   3.810 -0.3423 -0.0869  0.2241
  204PHE     CH 2644   4.796   0.011   3.880  0.3667 -0.1573  0.5435
  204PHE     CH 2645   4.876   4.998   3.901 -0.2832 -0.7741 -0.2289
  204PHE     OH 2646   5.084   4.895   3.847 -0.0123  0.4101  0.0198
  204PHE     HC 2647   0.028   0.002   3.686 -0.4800 -1.1521 -0.4690
  204PHE     HC 2648   4.989   0.203   3.681  0.6074  0.2309  0.6125
  204PHE     HC 2649   4.786   0.220   3.803 -1.0762 -0.5322 -0.5471
  204PHE     HC 2650   4.699   0.016   3.927 -0.7835 -2.5616 -1.3401
  204PHE     HC 2651   4.842   4.924   3.972 -0.1073  0.0151  0.6972
  204PHE     HO 2652   0.076   4.909   3.831 -0.3579  1.4554 -1.2567
  205PHE     CO 2653   0.914   1.184   3.927 -0.2033  0.5683  0.2038
  205PHE     CH 2654   0.858   1.160   3.801  0.4095 -0.8305  0.1835
  205PHE     CH 2655   0.739   1.086   3.795  0.1431 -0.3495 -0.7037
  205PHE     CH 2656   0.673   1.051   3.913  0.8307  0.2691 -0.1219
  205PHE     CH 2657   0.727   1.082   4.038 -0.1090  0.6143  0.2080
  205PHE     CH 2658   0.844   1.159   4.045 -0.3573  0.9950  0.2043
  205PHE     OH 2659   1.036   1.243   3.932  0.0444  0.0911 -0.0967
  205PHE     HC 2660   0.904   1.201   3.712  1.5039 -0.2858  0.9788
  205PHE     HC 2661   0.701   1.065   3.696  1.0426 -0.7861 -0.9674
  205PHE     HC 2662   0.578   1.003   3.891  1.2895 -0.0342 -1.5374
  205PHE     HC 2663   0.681   1.061   4.134  0.3275  0.4546  0.3838
  205PHE     HC 2664   0.889   1.177   4.142 -1.4155  0.1783  0.8774
  205PHE     HO 2665   1.091   1.201   3.868 -1.5011 -0.0618 -1.3708
  206PHE     CO 2666   2.506   4.807   1.408 -0.5518  0.4365  0.5522
  206PHE     CH 2667   2.491   4.763   1.540 -0.9076 -0.0912  0.3393
  206PHE     CH 2668   2.539   4.844   1.643 -0.4955 -0.4008  0.3904
  206PHE     CH 2669   2.608   4.962   1.614 -0.3405 -0.4966  0.3658
  206PHE     CH 2670   2.638   4.999   1.482 -0.1681 -0.5192  0.3987
  206PHE     CH 2671   2.586   4.918   1.380 -0.7277  0.4134 -0.0729
  206PHE     OH 2672   2.442   4.734   1.312  0.5351 -0.0213  0.1521
  206PHE     HC 2673   2.430   4.676   1.560  0.7974 -1.3247  0.4067
  206PHE     HC 2674   2.525   4.811   1.745 -0.0993  2.1025  1.3222
  206PHE     HC 2675   2.639   5.024   1.697 -2.7505  0.4267  0.6433
  206PHE     HC 2676   2.707   5.078   1.456  1.0512 -1.1739  1.5028
  206PHE     HC 2677   2.609   4.937   1.277 -0.4032 -1.3316 -0.3447
  206PHE     HO 2678   2.437   4.641   1.326 -0.8936  0.2327  1.7459
  207PHE     CO 2679   3.302   0.262   4.236 -0.0360 -0.2138  0.5203
  207PHE     CH 2680   3.262   0.389   4.277 -0.3642 -0.2533  0.3296
  207PHE     CH 2681   3.169   0.462   4.202  0.2951 -0.3540 -0.6109
  207PHE     CH 2682   3.104   0.408   4.091 -0.3405  0.0549 -0.4462
  207PHE     CH 2683   3.135   0.275   4.059  0.0630 -0.1185  0.6175
  207PHE     CH 2684   3.240   0.207   4.123  0.5279  0.0668  0.0699
  207PHE     OH 2685   3.389   0.189   4.312  0.0504 -0.3998  0.2470
  207PHE     HC 2686   3.300   0.425   4.372 -0.4405 -0.1897  0.3362
  207PHE     HC 2687   3.146   0.560   4.242 -2.5968 -1.3680  0.5288
  207PHE     HC 2688   3.025   0.464   4.043  1.0665  1.3669 -1.3116
  207PHE     HC 2689   3.090   0.218   3.979  2.3791  0.2851 -1.1037
  207PHE     HC 2690   3.253   0.106   4.087  1.0663  0.9210 -2.3440
  207PHE     HO 2691   3.446   0.241   4.368 -1.9443  0.1924  1.8648
  208PHE     CO 2692   0.834   4.595   4.812  0.4788  0.1416 -0.3413
  208PHE     CH 2693   0.746   4.699   4.780  0.3599  0.0972 -0.1623
  208PHE     CH 2694   0.707   4.786   4.882 -0.0273 -0.2394 -0.0216
  208PHE     CH 2695   0.758   4.771   5.012 -0.1851  0.0237  0.0725
  208PHE     CH 2696   0.833   4.658   5.046 -0.6262 -0.2624  0.1027
  208PHE     CH 2697   0.871   4.569   4.945 -0.4828  0.0148 -0.0891
  208PHE     OH 2698   0.877   4.509   4.715  0.1520 -0.0597 -0.3108
  208PHE     HC 2699   0.705   4.708   4.681 -0.4565 -2.3114 -0.1140
  208PHE     HC 2700   0.639   4.867   4.860  1.6220  1.1465 -0.2598
  208PHE     HC 2701   0.729   4.839   5.091 -0.6186  0.5898 -0.5633
  208PHE     HC 2702   0.860   4.628   0.046  0.7151  2.2424  0.5637
  208PHE     HC 2703   0.933   4.483   4.966  0.8666  0.5115 -1.7984
  208PHE     HO 2704   0.955   4.465   4.746  1.4195  0.9530 -1.9338
  209PHE     CO 2705   2.641   0.545   3.577  0.1828 -0.4966 -0.8839
  209PHE     CH 2706   2.779   0.564   3.562  0.2199  0.3539  0.3950
  209PHE     CH 2707   2.863   0.452   3.568  0.2158  0.3551  0.4690
  209PHE     CH 2708   2.809   0.327   3.600 -0.2401  0.4084 -0.0686
  209PHE     CH 2709   2.673   0.314   3.627 -0.1958  0.1707  0.0425
  209PHE     CH 2710   2.587   0.424   3.619 -0.3813  0.0151 -0.1204
  209PHE     OH 2711   2.571   0.661   3.558 -0.4770 -0.6739  0.3782
  209PHE     HC 2712   2.814   0.663   3.536  1.5462  0.4407  2.2835
  209PHE     HC 2713   2.968   0.473   3.554  0.2661  1.4785  2.2017
  209PHE     HC 2714   2.873   0.239   3.596 -1.5226 -0.5038 -1.5182
  209PHE     HC 2715   2.631   0.215   3.644  3.4279 -1.5054  0.1848
  209PHE     HC 2716   2.484   0.413   3.650 -0.6941  3.2860  0.3080
  209PHE     HO 2717   2.477   0.664   3.564 -0.5161  1.8695 -0.2182
  210PHE     CO 2718   1.410   0.708   1.139  0.4548  0.0707 -0.6276
  210PHE     CH 2719   1.545   0.671   1.147  0.3795  0.0580  0.9496
  210PHE     CH 2720   1.633   0.722   1.051  0.1777 -0.1682  0.6466
  210PHE     CH 2721   1.586   0.805   0.949 -0.4108 -0.7200  0.4596
  210PHE     CH 2722   1.454   0.852   0.948  0.0669  0.6763 -0.0050
  210PHE     CH 2723   1.366   0.802   1.045  0.0769  0.3843 -0.1450
  210PHE     OH 2724   1.319   0.667   1.232  0.6481 -0.4313 -0.6588
  210PHE     HC 2725   1.575   0.595   1.218  1.7923 -1.5473 -1.2373
  210PHE     HC 2726   1.733   0.682   1.054  0.7352  1.1408  0.1651
  210PHE     HC 2727   1.653   0.842   0.872  0.5773 -2.0225  0.6668
  210PHE     HC 2728   1.423   0.920   0.870 -1.4124  0.4624  0.3721
  210PHE     HC 2729   1.269   0.847   1.035  0.0449  0.3587  0.0525
  210PHE     HO 2730   1.359   0.660   1.318 -0.1747  2.5350  0.0827
  211PHE     CO 2731   2.412   0.159   4.716  0.0521 -0.1997 -0.0664
  211PHE     CH 2732   2.291   0.225   4.739  0.2492  0.1715 -0.0884
  211PHE     CH 2733   2.248   0.256   4.869  0.1234 -0.4218  0.0163
  211PHE     CH 2734   2.333   0.225   4.976 -0.1872 -0.3479  0.2861
  211PHE     CH 2735   2.460   0.169   4.955 -0.1260 -0.2663  0.4362
  211PHE     CH 2736   2.496   0.131   4.825 -0.3176  0.0684  0.2863
  211PHE     OH 2737   2.444   0.122   4.588  0.6408 -0.8896  0.2707
  211PHE     HC 2738   2.220   0.239   4.659 -0.4844  1.9591  0.8183
  211PHE     HC 2739   2.158   0.310   4.892  0.4732  0.7001 -1.1042
  211PHE     HC 2740   2.300   0.254   5.074  0.8079  0.5094  0.3843
  211PHE     HC 2741   2.531   0.143   5.032  2.0096 -0.6947 -1.5563
  211PHE     HC 2742   2.587   0.077   4.809 -0.2072  0.7496 -1.7060
  211PHE     HO 2743   2.383   0.167   4.532  0.5296  2.5670  2.8049
  212PHE     CO 2744   1.863   4.031   1.464 -0.1263 -0.2854  0.6401
  212PHE     CH 2745   1.904   4.162   1.491  0.5977 -0.5288  0.7319
  212PHE     CH 2746   2.038   4.202   1.480  0.2248  0.3960 -0.7945
  212PHE     CH 2747   2.132   4.104   1.444  0.1938 -0.0974  0.4109
  212PHE     CH 2748   2.093   3.975   1.405  0.3453 -0.0919  0.2364
  212PHE     CH 2749   1.958   3.940   1.418  0.1532  0.4368 -0.2582
  212PHE     OH 2750   1.730   4.001   1.471 -0.1256 -0.4482 -0.0386
  212PHE     HC 2751   1.829   4.230   1.528  1.2486  0.7932 -0.2530
  212PHE     HC 2752   2.079   4.295   1.516  3.0300 -0.9524 -0.2131
  212PHE     HC 2753   2.236   4.131   1.437  0.2311 -0.3958 -0.2648
  212PHE     HC 2754   2.163   3.898   1.378 -0.3612 -0.4040 -0.7533
  212PHE     HC 2755   1.920   3.844   1.387 -4.0110  2.1393 -0.9998
  212PHE     HO 2756   1.676   4.063   1.517  0.9134 -1.0379  2.0892
  213PHE     CO 2757   2.802   0.614   4.557  0.0197 -0.4825  0.7424
  213PHE     CH 2758   2.717   0.722   4.585  0.3134  0.1020 -0.5821
  213PHE     CH 2759   2.771   0.850   4.601 -0.1464  0.2409 -0.1271
  213PHE     CH 2760   2.908   0.875   4.586 -0.0201 -0.3627  0.0131
  213PHE     CH 2761   2.994   0.767   4.562 -0.0177 -0.2997 -0.2675
  213PHE     CH 2762   2.939   0.640   4.545 -0.0418 -0.3669  0.2957
  213PHE     OH 2763   2.753   0.493   4.516  0.3018 -0.3269 -0.0663
  213PHE     HC 2764   2.612   0.701   4.595  0.6835 -1.3797  0.4455
  213PHE     HC 2765   2.707   0.929   4.639 -0.4709  0.3779 -0.9334
  213PHE     HC 2766   2.942   0.977   4.595  1.6195 -0.3008 -4.2442
  213PHE     HC 2767   3.101   0.782   4.554  0.3156 -1.3697  1.5442
  213PHE     HC 2768   3.010   0.559   4.535  0.7734 -0.0518  2.9342
  213PHE     HO 2769   2.816   0.422   4.522 -0.2460 -0.7114  1.9714
  214PHE     CO 2770   0.019   0.577   3.585  0.1592  0.3062 -0.1529
  214PHE     CH 2771   0.070   0.659   3.687 -0.1770  0.4494 -0.1001
  214PHE     CH 2772   0.126   0.786   3.668  0.0744  0.3766  0.1498
  214PHE     CH 2773   0.129   0.824   3.534  0.4751  0.4040  0.1640
  214PHE     CH 2774   0.081   0.749   3.426  0.2298  0.0236  0.5350
  214PHE     CH 2775   0.020   0.626   3.454  0.1759 -0.1515 -0.3235
  214PHE     OH 2776   5.062   0.457   3.614 -0.1044  0.5586  0.3943
  214PHE     HC 2777   0.059   0.631   3.791 -1.7474 -0.4080 -0.4655
  214PHE     HC 2778   0.153   0.862   3.740 -1.2026 -0.2129  1.3166
  214PHE     HC 2779   0.159   0.926   3.516  0.7963 -0.0824 -2.4697
  214PHE     HC 2780   0.088   0.782   3.324  2.2356 -1.2802  0.2010
  214PHE     HC 2781   5.074   0.559   3.383  0.2734  0.3316 -0.8495
  214PHE     HO 2782   5.062   0.433   3.705  0.9761 -0.2546  0.1928
  215PHE     CO 2783   4.649   0.888   0.378 -0.0841  0.6258 -0.4834
  215PHE     CH 2784   4.776   0.928   0.421  0.0907  0.0964 -0.4987
  215PHE     CH 2785   4.885   0.854   0.375  0.5921  0.3839  0.2096
  215PHE     CH 2786   4.874   0.751   0.280 -0.1296 -0.1739  0.8888
  215PHE     CH 2787   4.747   0.721   0.231  0.3627 -0.6467 -0.1157
  215PHE     CH 2788   4.635   0.786   0.283  0.7727 -0.3341  0.3906
  215PHE     OH 2789   4.537   0.958   0.414 -0.3235  0.0530 -0.1045
  215PHE     HC 2790   4.789   1.008   0.493 -1.6379 -0.1308  0.1221
  215PHE     HC 2791   4.983   0.878   0.413  0.4118 -0.3293  1.1458
  215PHE     HC 2792   4.959   0.704   0.232 -0.3722  2.1383 -2.0284
  215PHE     HC 2793   4.732   0.636   0.166 -3.0060 -0.5960  0.4176
  215PHE     HC 2794   4.536   0.747   0.261 -0.6007  1.0684  3.5164
  215PHE     HO 2795   4.563   1.032   0.468 -2.0729 -0.4796  1.5633
  216PHE     CO 2796   1.490   4.241   4.506 -0.1888  0.2118  0.1791
  216PHE     CH 2797   1.547   4.115   4.527 -0.5356  0.0526  0.1618
  216PHE     CH 2798   1.543   4.022   4.423  0.3089  0.1227  0.0662
  216PHE     CH 2799   1.493   4.053   4.296  0.0194  0.3297  0.2311
  216PHE     CH 2800   1.426   4.175   4.276 -0.0262  0.1830 -0.5214
  216PHE     CH 2801   1.435   4.267   4.380  0.2362 -0.2903 -0.1171
  216PHE     OH 2802   1.490   4.337   4.603  0.1076 -0.1035  0.4938
  216PHE     HC 2803   1.587   4.085   4.623 -1.5744 -0.1975  0.5394
  216PHE     HC 2804   1.580   3.922   4.440 -1.5177 -0.7412 -0.7806
  216PHE     HC 2805   1.506   3.980   4.218 -2.7894 -0.4485  0.3903
  216PHE     HC 2806   1.384   4.193   4.178  1.6473  0.2952 -1.2595
  216PHE     HC 2807   1.386   4.363   4.367 -1.3776 -1.2777 -1.7033
  216PHE     HO 2808   1.548   4.321   4.676  2.0966  4.3644  0.2451
  217PHE     CO 2809   0.181   1.330   0.766 -0.6041 -0.1835  0.0183
  217PHE     CH 2810   0.166   1.292   0.632  0.3197 -0.1570 -0.0939
  217PHE     CH 2811   0.159   1.386   0.529 -0.2018 -0.0475  0.0396
  217PHE     CH 2812   0.180   1.522   0.558  0.3176 -0.2087  0.4266
  217PHE     CH 2813   0.205   1.554   0.692  0.1858 -0.2404  0.4584
  217PHE     CH 2814   0.200   1.464   0.799 -0.1029 -0.3366  0.3657
  217PHE     OH 2815   0.188   1.236   0.866  0.3073 -0.1771 -0.0317
  217PHE     HC 2816   0.160   1.187   0.608  0.2077  0.0660 -1.0883
  217PHE     HC 2817   0.148   1.346   0.429  0.9323  1.4135 -0.7222
  217PHE     HC 2818   0.196   1.594   0.480  1.1920  2.0410  2.5728
  217PHE     HC 2819   0.226   1.657   0.715  0.4745 -0.7153  2.4558
  217PHE     HC 2820   0.221   1.503   0.898 -0.1045  1.6239 -0.3463
  217PHE     HO 2821   0.188   1.284   0.947 -2.1160  0.7030 -0.4436
  218PHE     CO 2822   2.383   0.777   1.957 -0.7449  0.0050  0.1830
  218PHE     CH 2823   2.288   0.700   2.024 -0.5862 -0.2097  0.1620
  218PHE     CH 2824   2.262   0.569   1.982 -0.5330  0.0357 -0.6438
  218PHE     CH 2825   2.332   0.519   1.872  0.2325  0.1140 -0.2020
  218PHE     CH 2826   2.430   0.593   1.806  0.0874  0.1408 -0.3904
  218PHE     CH 2827   2.456   0.724   1.850 -0.1272 -0.1725  0.6887
  218PHE     OH 2828   2.394   0.912   1.978  0.4505 -0.0344 -0.1591
  218PHE     HC 2829   2.223   0.735   2.103  1.3392 -0.3644  1.9091
  218PHE     HC 2830   2.177   0.516   2.022  0.8070 -1.5922  0.1481
  218PHE     HC 2831   2.307   0.418   1.843 -1.3447  0.8069 -1.4674
  218PHE     HC 2832   2.487   0.551   1.724 -0.4948 -0.1034 -0.6756
  218PHE     HC 2833   2.521   0.786   1.791  0.6369  0.4625  2.1572
  218PHE     HO 2834   2.430   0.963   1.907  1.6339 -1.2493 -0.4904
  219PHE     CO 2835   4.258   4.945   0.708  0.3639 -0.1351  0.4852
  219PHE     CH 2836   4.133   4.884   0.720  0.2338  0.0764  0.2203
  219PHE     CH 2837   4.127   4.744   0.720  0.6458  0.0565 -0.8352
  219PHE     CH 2838   4.244   4.667   0.715  0.3078 -0.4812 -0.5789
  219PHE     CH 2839   4.367   4.732   0.697  0.1176  0.0736  0.0750
  219PHE     CH 2840   4.376   4.872   0.694  0.3148  0.0460 -0.9653
  219PHE     OH 2841   4.264   5.082   0.710 -0.6757 -0.0750  0.1921
  219PHE     HC 2842   4.041   4.938   0.735  0.7704  1.0095  0.1876
  219PHE     HC 2843   4.032   4.697   0.741  0.2082  1.5523  0.6697
  219PHE     HC 2844   4.234   4.560   0.717 -3.0641 -0.2494  1.0455
  219PHE     HC 2845   4.460   4.676   0.695 -0.5761 -1.1758  1.1573
  219PHE     HC 2846   4.472   4.920   0.698  0.9922 -1.3624  1.6766
  219PHE     HO 2847   4.184   0.025   0.685 -0.5346  0.4353  0.6033
  220PHE     CO 2848   2.865   4.929   2.899  0.3834  0.7407 -0.7758
  220PHE     CH 2849   2.847   5.067   2.907  0.1268  0.6609  0.2164
  220PHE     CH 2850   2.959   0.050   2.918  0.2992  0.3951  0.4590
  220PHE     CH 2851   3.087   5.097   2.938  0.3757 -0.0243 -0.9989
  220PHE     CH 2852   3.099   4.958   2.941  0.0526 -0.0385  0.2526
  220PHE     CH 2853   2.991   4.871   2.921 -0.0019  0.1200 -0.1409
  220PHE     OH 2854   2.754   4.853   2.878  0.2921  0.4584  0.6294
  220PHE     HC 2855   2.750   0.011   2.888  0.9104  1.2490 -3.1212
  220PHE     HC 2856   2.947   0.156   2.901 -2.3655 -0.2170 -2.4077
  220PHE     HC 2857   3.175   0.059   2.947  0.6089 -0.5525  0.9389
  220PHE     HC 2858   3.194   4.909   2.959 -1.6879 -3.2816  1.3859
  220PHE     HC 2859   3.007   4.765   2.910 -2.0322 -0.1915 -0.5088
  220PHE     HO 2860   2.781   4.774   2.834  0.0270  1.0873 -0.6937
  221PHE     CO 2861   0.694   4.699   0.774  0.1518 -0.2497  0.0756
  221PHE     CH 2862   0.594   4.716   0.678  0.0371 -0.0813  0.2227
  221PHE     CH 2863   0.619   4.804   0.572  0.2226 -0.4982 -0.0839
  221PHE     CH 2864   0.740   4.873   0.556  0.1252 -0.3538 -0.2086
  221PHE     CH 2865   0.832   4.860   0.662 -0.2825  0.6515  0.2834
  221PHE     CH 2866   0.808   4.781   0.775 -0.2307  0.2882  0.0438
  221PHE     OH 2867   0.672   4.627   0.888 -0.3496 -0.2193 -0.0023
  221PHE     HC 2868   0.494   4.676   0.682 -0.4132  0.8900 -0.8753
  221PHE     HC 2869   0.545   4.821   0.495  2.1455 -0.6221 -2.0590
  221PHE     HC 2870   0.753   4.939   0.472 -1.0463 -0.5996 -0.5872
  221PHE     HC 2871   0.923   4.917   0.656 -0.4053  0.8364  0.1591
  221PHE     HC 2872   0.882   4.785   0.853 -0.6477 -0.1556  0.4693
  221PHE     HO 2873   0.748   4.626   0.944 -1.2247 -1.5321  1.2363
  222PHE     CO 2874   4.930   0.882   0.763 -0.3002 -0.0820 -0.6067
  222PHE     CH 2875   5.012   0.777   0.720 -0.3724 -0.2400 -0.3544
  222PHE     CH 2876   4.954   0.662   0.665  0.3873 -0.5065 -0.6117
  222PHE     CH 2877   4.816   0.638   0.669  0.2571  0.3151  0.1380
  222PHE     CH 2878   4.737   0.737   0.729 -0.2207  0.2106 -0.3103
  222PHE     CH 2879   4.792   0.859   0.770 -0.2554 -0.0525  0.5385
  222PHE     OH 2880   4.978   1.004   0.802  0.3257 -0.5541  0.1326
  222PHE     HC 2881   0.018   0.796   0.724 -0.3906 -0.3297  2.1265
  222PHE     HC 2882   5.032   0.599   0.625  1.5931  0.2501  0.4656
  222PHE     HC 2883   4.787   0.547   0.619 -0.2649 -0.2804  1.4668
  222PHE     HC 2884   4.630   0.722   0.732  0.0286 -1.7428  2.3956
  222PHE     HC 2885   4.722   0.932   0.807 -2.1835 -1.8292  0.5738
  222PHE     HO 2886   5.072   0.991   0.803  0.7077  1.2981 -1.9107
  223PHE     CO 2887   0.591   0.378   1.656  0.7532  0.3042  0.6657
  223PHE     CH 2888   0.703   0.305   1.614  0.3506 -0.0218  0.1510
  223PHE     CH 2889   0.811   0.368   1.550  0.3691 -0.1875  0.0181
  223PHE     CH 2890   0.815   0.507   1.532  0.4072 -0.1450  0.3524
  223PHE     CH 2891   0.703   0.581   1.573  0.2378  0.1130 -0.5606
  223PHE     CH 2892   0.595   0.517   1.634  0.2459  0.1419 -0.5155
  223PHE     OH 2893   0.481   0.328   1.717  0.2182  0.7122  0.0503
  223PHE     HC 2894   0.698   0.199   1.635  2.2395  0.3067  2.6800
  223PHE     HC 2895   0.891   0.310   1.507 -0.1883 -2.1586  1.4870
  223PHE     HC 2896   0.899   0.559   1.489 -0.8393  2.6345  1.0551
  223PHE     HC 2897   0.701   0.688   1.560 -1.7003  0.2275  0.3426
  223PHE     HC 2898   0.507   0.566   1.672 -0.4549 -1.1146 -0.4371
  223PHE     HO 2899   0.409   0.385   1.693 -0.6743 -0.6878 -0.7683
  224PHE     CO 2900   0.166   1.173   2.862 -0.3047 -0.2698  0.3516
  224PHE     CH 2901   0.043   1.239   2.858 -0.0783  0.1236 -0.4692
  224PHE     CH 2902   5.095   1.307   2.971  0.2016  0.1512 -0.3680
  224PHE     CH 2903   0.070   1.307   3.089 -0.0300  0.2012 -0.2214
  224PHE     CH 2904   0.198   1.250   3.088 -0.1024  0.0375 -0.0803
  224PHE     CH 2905   0.248   1.184   2.975  0.1147  0.0242  0.0231
  224PHE     OH 2906   0.207   1.118   2.743 -0.0645 -0.3352  0.4640
  224PHE     HC 2907   5.078   1.248   2.773  1.0898  0.3690 -1.3550
  224PHE     HC 2908   4.996   1.349   2.971 -0.6286 -1.6613 -1.8178
  224PHE     HC 2909   0.030   1.352   3.179  0.9396  0.5141  0.0650
  224PHE     HC 2910   0.261   1.262   3.175 -1.3580 -0.0408  0.8669
  224PHE     HC 2911   0.339   1.127   2.965 -1.0085 -1.7257 -0.6660
  224PHE     HO 2912   0.299   1.099   2.742  0.4831  2.0502 -0.4194
  225PHE     CO 2913   1.105   0.048   4.522  0.3333  0.1384  0.1934
  225PHE     CH 2914   1.125   0.140   4.626  0.1936  0.3290  0.0513
  225PHE     CH 2915   1.196   0.096   4.738 -0.0236  0.1270  0.1105
  225PHE     CH 2916   1.254   5.069   4.747  0.2017  0.2177 -0.0323
  225PHE     CH 2917   1.230   4.978   4.643 -0.1045  0.2372  0.0209
  225PHE     CH 2918   1.156   5.018   4.531 -0.1784 -0.0841 -0.0479
  225PHE     OH 2919   1.039   0.090   4.410  0.4835  0.1721  0.1180
  225PHE     HC 2920   1.087   0.242   4.623  0.7913  0.6810  2.4975
  225PHE     HC 2921   1.215   0.174   4.810  0.0608  0.3553 -0.1568
  225PHE     HC 2922   1.323   5.046   4.826 -0.8378 -2.7129  0.1512
  225PHE     HC 2923   1.273   4.879   4.645  0.6398  0.5308 -1.1205
  225PHE     HC 2924   1.139   4.940   4.459 -0.1695  0.4714 -0.6644
  225PHE     HO 2925   1.040   0.036   4.333  0.7150 -0.5194  0.6006
  226PHE     CO 2926   1.929   0.699   1.826  0.5416 -0.1706  0.4731
  226PHE     CH 2927   1.931   0.798   1.925 -0.2501  0.4076 -0.0825
  226PHE     CH 2928   2.032   0.894   1.915  0.4047 -0.2638 -0.0718
  226PHE     CH 2929   2.112   0.908   1.801  0.2721 -0.1064 -0.1473
  226PHE     CH 2930   2.112   0.805   1.707 -0.8309 -0.0421 -0.2265
  226PHE     CH 2931   2.023   0.697   1.722 -0.3663 -0.4478 -0.3547
  226PHE     OH 2932   1.844   0.592   1.831 -0.0896  0.3288  0.4195
  226PHE     HC 2933   1.858   0.802   2.005  2.0629 -0.3390  2.1877
  226PHE     HC 2934   2.033   0.972   1.990 -3.4108  0.7330 -0.7958
  226PHE     HC 2935   2.174   0.996   1.807  1.2370 -0.8730  2.5620
  226PHE     HC 2936   2.185   0.799   1.628 -3.0143 -0.4886 -2.3354
  226PHE     HC 2937   2.038   0.615   1.653 -0.0021  0.0374 -0.8656
  226PHE     HO 2938   1.784   0.604   1.903 -0.8476 -1.1195  0.0722
  227PHE     CO 2939   1.562   1.371   0.606 -0.3673  0.5341 -0.7592
  227PHE     CH 2940   1.502   1.476   0.536 -0.2260  0.8455 -0.4140
  227PHE     CH 2941   1.581   1.586   0.498  0.6392  0.1380 -0.7110
  227PHE     CH 2942   1.711   1.600   0.547  0.4380  0.0540 -0.1464
  227PHE     CH 2943   1.771   1.491   0.612  0.1542  0.0721  0.1469
  227PHE     CH 2944   1.692   1.385   0.656 -0.7352  0.7301  0.1684
  227PHE     OH 2945   1.493   1.255   0.629  0.2327  0.2332 -0.4630
  227PHE     HC 2946   1.399   1.473   0.505 -0.2138 -0.6092 -0.3666
  227PHE     HC 2947   1.534   1.667   0.443  1.3245  0.9287 -0.1513
  227PHE     HC 2948   1.765   1.690   0.522 -0.6277  1.0179  0.8912
  227PHE     HC 2949   1.877   1.500   0.631  0.6314  2.1859 -2.7453
  227PHE     HC 2950   1.739   1.301   0.706  0.1736  0.7046 -0.6834
  227PHE     HO 2951   1.411   1.241   0.584 -1.5904  0.4296  2.5572
  228PHE     CO 2952   4.472   5.090   1.036 -0.7756 -0.0487 -0.9059
  228PHE     CH 2953   4.563   0.025   1.137 -0.5178 -0.8126 -0.8649
  228PHE     CH 2954   4.570   5.047   1.253 -0.1347  0.8197  0.2399
  228PHE     CH 2955   4.502   4.925   1.262  0.1700  0.6012 -0.3427
  228PHE     CH 2956   4.403   4.896   1.168 -0.2907 -0.0240  0.3224
  228PHE     CH 2957   4.394   4.975   1.053 -0.7390  0.1050  0.4444
  228PHE     OH 2958   4.478   0.050   0.914 -0.2384  0.9056 -0.4242
  228PHE     HC 2959   4.626   0.112   1.130  0.5736 -1.5353 -0.3332
  228PHE     HC 2960   4.643   5.085   1.323  0.3144  1.1211 -0.3901
  228PHE     HC 2961   4.512   4.862   1.350  0.1979  0.5850 -0.3576
  228PHE     HC 2962   4.349   4.805   1.192 -0.8662  0.4866  1.0158
  228PHE     HC 2963   4.341   4.932   0.969  1.4182  0.0147 -0.9492
  228PHE     HO 2964   4.409   0.019   0.858 -1.2689  0.9887  0.7811
  229PHE     CO 2965   3.918   4.738   4.971  0.1458 -0.0509 -0.0767
  229PHE     CH 2966   4.003   4.674   5.061 -0.0840  0.1280  0.2681
  229PHE     CH 2967   4.087   4.575   5.010  0.1327  0.4992 -0.0986
  229PHE     CH 2968   4.081   4.538   4.875 -0.3706 -0.2430  0.1199
  229PHE     CH 2969   3.990   4.597   4.786 -0.2037  0.4603  0.4050
  229PHE     CH 2970   3.913   4.703   4.835 -0.7633  0.3210 -0.1519
  229PHE     OH 2971   3.844   4.839   5.026  0.1425 -0.4923  0.7372
  229PHE     HC 2972   4.017   4.713   0.061 -0.4747  1.2024 -0.0860
  229PHE     HC 2973   4.160   4.523   5.070 -0.1047 -0.1362 -0.3505
  229PHE     HC 2974   4.149   4.463   4.838  0.6219  0.1865  1.0282
  229PHE     HC 2975   3.992   4.572   4.680 -1.0898  1.1557  0.2122
  229PHE     HC 2976   3.845   4.758   4.772  0.4849  2.4776  0.2776
  229PHE     HO 2977   3.755   4.842   4.993  0.1929  0.0702  0.6506
  230PHE     CO 2978   1.771   0.401   1.354 -0.1775 -1.0182  0.2191
  230PHE     CH 2979   1.909   0.382   1.353 -0.1030 -0.5540  0.8151
  230PHE     CH 2980   1.971   0.317   1.245 -0.6734  0.0499  0.1118
  230PHE     CH 2981   1.891   0.274   1.138  0.4082 -0.5262 -0.4854
  230PHE     CH 2982   1.753   0.301   1.136  0.4736 -0.1353  0.0326
  230PHE     CH 2983   1.693   0.371   1.241  0.1976  0.3282 -0.4253
  230PHE     OH 2984   1.708   0.437   1.470 -0.0023 -0.3470  0.1095
  230PHE     HC 2985   1.972   0.413   1.435  2.6098  0.6926 -1.5306
  230PHE     HC 2986   2.077   0.297   1.250 -0.3494  1.7630  0.6865
  230PHE     HC 2987   1.939   0.218   1.060  0.6893 -2.0926  0.7665
  230PHE     HC 2988   1.687   0.265   1.059 -0.2496 -0.1406  0.6512
  230PHE     HC 2989   1.588   0.393   1.250 -0.0933 -0.8785 -0.7308
  230PHE     HO 2990   1.768   0.406   1.535 -0.6596 -1.9937 -0.0244
  231PHE     CO 2991   3.070   3.903   0.891  0.0194  0.1030 -0.0935
  231PHE     CH 2992   3.136   3.787   0.936  0.3883  0.2420 -0.2697
  231PHE     CH 2993   3.178   3.780   1.069 -0.3888  0.3522 -0.0132
  231PHE     CH 2994   3.164   3.891   1.154  0.1559  0.8152 -0.5176
  231PHE     CH 2995   3.091   4.003   1.112 -0.1756  0.9735  0.4590
  231PHE     CH 2996   3.042   4.005   0.982 -0.5619 -0.6126  0.5508
  231PHE     OH 2997   3.040   3.912   0.758 -0.1755 -0.0564 -0.0619
  231PHE     HC 2998   3.150   3.704   0.868 -0.8250 -1.6776  1.7031
  231PHE     HC 2999   3.233   3.692   1.099 -1.5943 -0.2127  0.6118
  231PHE     HC 3000   3.213   3.891   1.251  0.5162  0.1294 -0.6878
  231PHE     HC 3001   3.080   4.087   1.180 -2.2100  0.4607  0.8206
  231PHE     HC 3002   2.997   4.099   0.952  0.1193  0.2833  2.2202
  231PHE     HO 3003   3.015   3.998   0.727 -0.8235 -0.5593 -0.9411
  232PHE     CO 3004   1.709   4.829   0.919  0.8225 -0.1316  0.2690
  232PHE     CH 3005   1.759   4.815   0.789  0.0542 -0.6346  0.0239
  232PHE     CH 3006   1.854   4.903   0.736 -0.5861  0.0184 -0.0528
  232PHE     CH 3007   1.893   5.013   0.814 -0.7850  0.1360 -0.1191
  232PHE     CH 3008   1.828   5.034   0.936  0.2228  0.1523  0.4227
  232PHE     CH 3009   1.737   4.944   0.993 -0.4820  0.4831 -0.1496
  232PHE     OH 3010   1.627   4.735   0.975 -0.2094  0.5049 -0.1378
  232PHE     HC 3011   1.726   4.731   0.729  1.0951  0.0305 -1.5319
  232PHE     HC 3012   1.901   4.895   0.639  0.4821  3.9058 -0.0252
  232PHE     HC 3013   1.967   5.083   0.777 -1.1030 -0.9394 -3.1224
  232PHE     HC 3014   1.861   0.019   0.994  1.0754 -0.4328  0.8193
  232PHE     HC 3015   1.706   4.956   1.096 -0.5724 -1.8880  0.1447
  232PHE     HO 3016   1.569   4.761   1.045  0.0776  2.2811 -0.5081
  233PHE     CO 3017   4.375   1.010   0.042  0.2960 -0.2365  0.1584
  233PHE     CH 3018   4.294   0.904   0.083  0.0541 -0.1206 -0.0151
  233PHE     CH 3019   4.180   0.868   0.010  0.1480 -0.4452 -0.0010
  233PHE     CH 3020   4.139   0.944   5.001  0.2123 -0.6002 -0.1343
  233PHE     CH 3021   4.220   1.052   4.961 -0.0076 -0.4883 -0.2796
  233PHE     CH 3022   4.335   1.087   5.032 -0.3410 -0.4373  0.2454
  233PHE     OH 3023   4.492   1.031   0.110  0.0291  0.2017  0.4859
  233PHE     HC 3024   4.329   0.837   0.161  0.0976 -0.9305 -0.7130
  233PHE     HC 3025   4.123   0.779   0.035 -2.6216  0.7140 -1.6955
  233PHE     HC 3026   4.048   0.916   4.951 -0.9791  2.3337  0.1796
  233PHE     HC 3027   4.197   1.109   4.872  1.8229 -1.8489 -1.6981
  233PHE     HC 3028   4.407   1.162   5.002  1.7247 -0.9908  3.2891
  233PHE     HO 3029   4.498   0.963   0.176 -0.2056  1.1700  1.5398
  234PHE     CO 3030   1.704   3.146   1.134  0.1739  0.1215  0.3437
  234PHE     CH 3031   1.761   3.044   1.057 -0.0919  0.2524 -0.0246
  234PHE     CH 3032   1.841   3.073   0.946 -0.1119  0.2709 -0.0341
  234PHE     CH 3033   1.876   3.207   0.923  0.6322  0.1133  0.1275
  234PHE     CH 3034   1.812   3.306   0.999 -0.0763 -0.2568  0.0247
  234PHE     CH 3035   1.724   3.282   1.106 -0.0848  0.1107  0.1034
  234PHE     OH 3036   1.628   3.107   1.240 -0.5006 -0.0530 -0.2006
  234PHE     HC 3037   1.752   2.938   1.076  0.0395  0.2515  0.0294
  234PHE     HC 3038   1.886   3.005   0.876  0.0603 -1.0420  1.3051
  234PHE     HC 3039   1.949   3.231   0.847  0.4490 -1.7255 -0.6878
  234PHE     HC 3040   1.836   3.411   0.990  0.9313 -0.5803 -1.3596
  234PHE     HC 3041   1.679   3.358   1.167 -1.4951 -1.2197  0.7927
  234PHE     HO 3042   1.552   3.163   1.242 -0.3711  0.1347  2.5925
  235PHE     CO 3043   4.129   4.207   1.460  0.0451  0.0731 -0.1951
  235PHE     CH 3044   4.241   4.132   1.500  0.2936  0.6394  0.1782
  235PHE     CH 3045   4.268   4.113   1.636 -0.2733 -0.5441  0.1385
  235PHE     CH 3046   4.190   4.180   1.731 -0.5112 -0.9532  0.2297
  235PHE     CH 3047   4.079   4.256   1.692  0.0999 -0.1653  0.0265
  235PHE     CH 3048   4.051   4.272   1.556  0.0462 -0.2526  0.0277
  235PHE     OH 3049   4.115   4.224   1.325  0.6982  0.3707 -0.2310
  235PHE     HC 3050   4.311   4.107   1.422  2.1557  0.9808  1.6660
  235PHE     HC 3051   4.357   4.067   1.674 -1.1306 -1.4594  1.0886
  235PHE     HC 3052   4.212   4.171   1.837 -0.5067  1.1184  0.4316
  235PHE     HC 3053   4.018   4.299   1.770  2.5046  1.0563  1.3528
  235PHE     HC 3054   3.967   4.334   1.527 -0.3486 -0.5161  0.5792
  235PHE     HO 3055   4.184   4.185   1.274 -1.0483 -1.8874 -0.9981
  236PHE     CO 3056   4.773   0.132   2.812 -0.3920 -0.1429  0.2173
  236PHE     CH 3057   4.701   0.013   2.823 -0.2987 -0.2200  0.0086
  236PHE     CH 3058   4.616   5.094   2.932 -0.7380  0.0180 -0.2894
  236PHE     CH 3059   4.597   0.094   3.029 -0.2070  0.1130 -0.2792
  236PHE     CH 3060   4.670   0.212   3.016  0.6622 -0.3269  0.4845
  236PHE     CH 3061   4.753   0.234   2.905 -0.1741  0.1579 -0.0586
  236PHE     OH 3062   4.862   0.156   2.711 -0.1918 -0.1089  0.4010
  236PHE     HC 3063   4.711   5.036   2.748  0.8019  0.8480 -0.9868
  236PHE     HC 3064   4.560   5.003   2.950  1.5730 -1.1631  1.6174
  236PHE     HC 3065   4.527   0.091   3.111 -0.6209  1.0915 -0.5896
  236PHE     HC 3066   4.661   0.286   3.095  0.6446 -0.6878  0.8215
  236PHE     HC 3067   4.810   0.325   2.894  3.3508 -2.0804 -1.9562
  236PHE     HO 3068   4.840   0.115   2.629  0.2146 -0.1239  0.2983
  237PHE     CO 3069   2.761   0.835   3.319 -0.6230  0.1254 -0.6179
  237PHE     CH 3070   2.851   0.928   3.265  0.2505 -0.0716  0.4578
  237PHE     CH 3071   2.946   0.897   3.168 -0.2269  0.1893 -0.1005
  237PHE     CH 3072   2.944   0.770   3.109  0.2996  0.0890  0.0930
  237PHE     CH 3073   2.844   0.682   3.151  0.3334  0.2349  0.4850
  237PHE     CH 3074   2.762   0.707   3.262 -0.1791 -0.2576  0.2211
  237PHE     OH 3075   2.680   0.871   3.422 -0.1027 -0.2491 -0.0730
  237PHE     HC 3076   2.854   1.021   3.320  0.6840  0.0758  0.1897
  237PHE     HC 3077   3.029   0.963   3.142 -0.6054  0.1978 -1.3685
  237PHE     HC 3078   3.004   0.738   3.025  0.0734 -1.2190  0.4052
  237PHE     HC 3079   2.837   0.581   3.113  0.2861  0.7845 -0.9992
  237PHE     HC 3080   2.702   0.622   3.290 -1.0690 -0.3168 -1.6566
  237PHE     HO 3081   2.647   0.796   3.471 -0.6470  0.0392  0.0115
  238PHE     CO 3082   1.008   4.635   3.545 -0.1006 -0.6402 -0.1441
  238PHE     CH 3083   1.124   4.587   3.607  0.1061  0.1569  0.1022
  238PHE     CH 3084   1.118   4.536   3.737  0.1505  0.1259  0.0922
  238PHE     CH 3085   0.995   4.532   3.804  0.1829 -0.3203  0.1323
  238PHE     CH 3086   0.876   4.572   3.741  0.3574  0.2080  0.1273
  238PHE     CH 3087   0.887   4.631   3.615 -0.1236 -0.3094 -0.1635
  238PHE     OH 3088   1.013   4.700   3.425 -0.2511  0.3668  0.3825
  238PHE     HC 3089   1.219   4.595   3.555 -0.5952  1.3590 -1.0786
  238PHE     HC 3090   1.208   4.501   3.785 -0.2103  1.4276  1.7992
  238PHE     HC 3091   0.991   4.493   3.904  1.0439  0.0839  0.3341
  238PHE     HC 3092   0.775   4.556   3.775 -0.4526 -1.4419 -2.6933
  238PHE     HC 3093   0.794   4.661   3.569 -0.7774  0.4696  1.5596
  238PHE     HO 3094   0.935   4.692   3.372  0.3972 -1.4357 -0.3753
  239PHE     CO 3095   4.406   4.318   0.023  0.1430  0.2317 -0.1681
  239PHE     CH 3096   4.437   4.262   4.999  0.2213 -0.1771  0.0340
  239PHE     CH 3097   4.461   4.125   4.987  0.0861 -0.1367 -0.7500
  239PHE     CH 3098   4.446   4.044   0.001 -0.2407  0.1486 -0.5905
  239PHE     CH 3099   4.414   4.101   0.125 -0.0374  0.1205 -0.5252
  239PHE     CH 3100   4.398   4.239   0.139 -0.2814  0.0706 -0.3050
  239PHE     OH 3101   4.371   4.449   0.042 -0.4401  0.0317  0.1627
  239PHE     HC 3102   4.462   4.328   4.917  1.0671  0.7396  1.0125
  239PHE     HC 3103   4.492   4.081   4.893  2.1180 -2.1548  0.7592
  239PHE     HC 3104   4.470   3.939   0.002 -0.3432  0.1314  0.7886
  239PHE     HC 3105   4.411   4.043   0.216  0.3619 -0.0237 -0.6013
  239PHE     HC 3106   4.388   4.284   0.236  1.5466 -0.8361  0.3474
  239PHE     HO 3107   4.347   4.475   0.130  0.9731  0.4893  0.4364
  240PHE     CO 3108   3.471   4.327   0.358  0.0619  0.4474 -0.4714
  240PHE     CH 3109   3.333   4.309   0.350  0.1323 -0.4956  0.1780
  240PHE     CH 3110   3.288   4.230   0.243  0.0745 -0.3117  0.0645
  240PHE     CH 3111   3.375   4.165   0.154  0.4787 -0.3710  0.4960
  240PHE     CH 3112   3.511   4.193   0.163  0.5409 -0.4452 -0.1856
  240PHE     CH 3113   3.561   4.278   0.262  0.1528 -0.5624  0.1118
  240PHE     OH 3114   3.527   4.395   0.463  0.0169  0.3845 -0.4063
  240PHE     HC 3115   3.270   4.349   0.428  0.9799 -1.1637  1.2207
  240PHE     HC 3116   3.182   4.214   0.237 -0.2444  1.6522 -0.0479
  240PHE     HC 3117   3.337   4.097   0.079  1.9048  0.0725 -0.6535
  240PHE     HC 3118   3.589   4.142   0.108 -0.5363 -1.3812 -0.8759
  240PHE     HC 3119   3.665   4.305   0.273 -0.3145  1.3173  0.4145
  240PHE     HO 3120   3.470   4.440   0.523  2.5489  2.0571  0.9157
  241PHE     CO 3121   0.920   4.947   4.140 -0.1922  0.4712 -0.0068
  241PHE     CH 3122   0.886   4.948   4.004 -0.5537  0.0969  0.0764
  241PHE     CH 3123   0.807   4.849   3.946 -0.6812  0.4795 -0.4139
  241PHE     CH 3124   0.758   4.743   4.024  0.3749  0.7977  0.6929
  241PHE     CH 3125   0.788   4.740   4.161  0.1628  0.2322  0.7274
  241PHE     CH 3126   0.877   4.835   4.212  1.0050 -0.0828 -0.1287
  241PHE     OH 3127   0.995   5.049   4.191 -0.1363  0.4669 -0.0784
  241PHE     HC 3128   0.919   5.036   3.950 -2.4878  0.6574 -0.2719
  241PHE     HC 3129   0.782   4.870   3.843 -0.5459  0.3762 -0.4682
  241PHE     HC 3130   0.694   4.669   3.980  2.3479 -0.8795  0.5189
  241PHE     HC 3131   0.742   4.665   4.225 -1.5139  2.5886  2.4808
  241PHE     HC 3132   0.898   4.821   4.317  2.2690  2.4337  0.0302
  241PHE     HO 3133   1.017   0.021   4.135 -3.1330  0.0777 -2.0111
  242PHE     CO 3134   2.134   1.883   2.645  0.0743  0.4676  0.0664
  242PHE     CH 3135   2.223   1.961   2.570 -0.4816  0.7695 -0.2850
  242PHE     CH 3136   2.359   1.958   2.601 -0.5769  0.0097  0.0662
  242PHE     CH 3137   2.405   1.875   2.705  0.1267  0.2863 -0.0195
  242PHE     CH 3138   2.317   1.804   2.788  0.4711 -0.4755 -0.2938
  242PHE     CH 3139   2.182   1.806   2.751  0.5308 -0.0463 -0.5047
  242PHE     OH 3140   2.004   1.880   2.604  0.0829 -0.0981  0.0681
  242PHE     HC 3141   2.181   2.019   2.489 -0.5167 -0.3216 -1.0787
  242PHE     HC 3142   2.423   2.017   2.537 -0.1285 -0.1361  0.3689
  242PHE     HC 3143   2.507   1.868   2.740  0.7082  0.9471 -1.4803
  242PHE     HC 3144   2.341   1.746   2.875 -0.5687 -1.4853 -0.6642
  242PHE     HC 3145   2.116   1.742   2.807 -1.4234  1.2102 -1.2783
  242PHE     HO 3146   1.952   1.810   2.639  2.5437 -1.8169  0.5504
  243PHE     CO 3147   4.093   4.587   1.864 -0.1475  0.4348 -0.0110
  243PHE     CH 3148   4.149   4.515   1.970 -1.1593 -0.5980 -0.1626
  243PHE     CH 3149   4.072   4.469   2.078 -0.0108  0.0810  0.9615
  243PHE     CH 3150   3.934   4.488   2.072  0.0771  0.4837  0.1909
  243PHE     CH 3151   3.873   4.563   1.970 -0.5921 -0.8545 -0.4181
  243PHE     CH 3152   3.956   4.615   1.870 -0.1662  0.2430  0.4842
  243PHE     OH 3153   4.179   4.626   1.766  0.2576 -0.5195 -0.0413
  243PHE     HC 3154   4.255   4.499   1.970 -0.9934  0.4331  0.1184
  243PHE     HC 3155   4.112   4.407   2.157 -0.0270 -0.4914  0.5242
  243PHE     HC 3156   3.869   4.442   2.145 -1.6283  0.8946 -1.0042
  243PHE     HC 3157   3.765   4.565   1.974 -0.5585  0.8636  0.8070
  243PHE     HC 3158   3.912   4.670   1.788 -0.1702  0.3352  0.5475
  243PHE     HO 3159   4.147   4.682   1.697 -0.0086  1.1735  1.3898
  244PHE     CO 3160   1.628   3.409   2.140 -0.1087 -0.0734 -0.1106
  244PHE     CH 3161   1.688   3.535   2.124  0.7080 -0.4575 -0.1482
  244PHE     CH 3162   1.660   3.609   2.009  0.7783 -0.0623  0.0865
  244PHE     CH 3163   1.573   3.563   1.909  0.0560  0.4438  0.4686
  244PHE     CH 3164   1.525   3.433   1.924  0.2021  0.2964 -0.2995
  244PHE     CH 3165   1.547   3.356   2.039  0.2435  0.0562 -0.4654
  244PHE     OH 3166   1.656   3.325   2.244  0.6338  0.0089 -0.2379
  244PHE     HC 3167   1.756   3.580   2.195  1.3855 -0.9452 -0.4814
  244PHE     HC 3168   1.705   3.707   2.004 -0.3000  0.4715  0.4887
  244PHE     HC 3169   1.563   3.628   1.823 -1.2780  2.0349  1.7792
  244PHE     HC 3170   1.460   3.391   1.848 -1.9304  1.9314  0.5301
  244PHE     HC 3171   1.520   3.252   2.037  1.3475 -0.2965  1.2228
  244PHE     HO 3172   1.748   3.307   2.258  0.1921 -3.2427 -0.6945
  245PHE     CO 3173   0.711   3.362   2.555 -0.0429 -0.2724  0.1277
  245PHE     CH 3174   0.803   3.466   2.544  0.0475 -0.3718 -0.0592
  245PHE     CH 3175   0.782   3.586   2.613  0.0500 -0.2943 -0.1932
  245PHE     CH 3176   0.674   3.592   2.701  0.1345  0.2410 -0.1196
  245PHE     CH 3177   0.596   3.478   2.727  0.9063 -0.2730 -0.0161
  245PHE     CH 3178   0.610   3.361   2.652 -0.2448 -0.3826 -0.0824
  245PHE     OH 3179   0.736   3.246   2.487  0.3481 -0.0940 -0.0379
  245PHE     HC 3180   0.891   3.450   2.482  2.6646 -1.1807  3.5659
  245PHE     HC 3181   0.843   3.675   2.607  0.8392 -0.6275  2.0079
  245PHE     HC 3182   0.648   3.682   2.754  1.7036 -0.2870  1.6372
  245PHE     HC 3183   0.521   3.486   2.804  2.1137 -0.5980  1.2355
  245PHE     HC 3184   0.555   3.272   2.679  0.4825 -0.6038  0.7217
  245PHE     HO 3185   0.826   3.225   2.503  0.3633 -0.3010 -0.3857
  246PHE     CO 3186   3.515   4.207   0.859 -0.4420 -0.1438  0.1754
  246PHE     CH 3187   3.452   4.136   0.756 -0.3441 -0.1793  0.1399
  246PHE     CH 3188   3.433   3.997   0.763 -0.1894 -0.1968  0.1994
  246PHE     CH 3189   3.477   3.929   0.877 -0.3522 -0.5305  0.0628
  246PHE     CH 3190   3.527   4.005   0.983 -0.2076 -0.0955 -0.3155
  246PHE     CH 3191   3.560   4.141   0.974  0.1142 -0.1556 -0.0476
  246PHE     OH 3192   3.518   4.343   0.850  0.0409 -0.1309  0.5080
  246PHE     HC 3193   3.416   4.194   0.672  0.0493 -0.3437 -0.1479
  246PHE     HC 3194   3.378   3.947   0.685 -2.8119  0.7275  1.3478
  246PHE     HC 3195   3.456   3.825   0.894  0.0959 -0.3806  1.6980
  246PHE     HC 3196   3.554   3.954   1.074 -0.2694  2.3617  1.1704
  246PHE     HC 3197   3.594   4.198   1.059 -0.3708 -0.0403  0.0724
  246PHE     HO 3198   3.588   4.381   0.900  1.8318 -1.7572 -0.6059
  247PHE     CO 3199   1.100   4.545   0.698 -0.3168  1.2896  0.0611
  247PHE     CH 3200   1.156   4.621   0.595  0.0662  0.6032 -0.2376
  247PHE     CH 3201   1.287   4.670   0.607  0.0412  0.6243 -0.0565
  247PHE     CH 3202   1.358   4.638   0.723 -0.2590  0.2773  0.0316
  247PHE     CH 3203   1.306   4.568   0.833 -0.2789 -0.2208 -0.2956
  247PHE     CH 3204   1.173   4.526   0.816 -0.6108  0.6483  0.1427
  247PHE     OH 3205   0.972   4.500   0.684 -0.0160  0.4807 -0.1040
  247PHE     HC 3206   1.099   4.641   0.506  1.3681 -0.9858 -1.5144
  247PHE     HC 3207   1.335   4.720   0.524  0.7213 -1.0067 -0.6788
  247PHE     HC 3208   1.458   4.675   0.735 -0.8590  2.0619 -0.2239
  247PHE     HC 3209   1.363   4.552   0.923 -2.6193 -0.2279  1.2803
  247PHE     HC 3210   1.124   4.482   0.902 -2.5852  2.5900  0.1081
  247PHE     HO 3211   0.918   4.530   0.613 -0.9538  2.0396  1.1968
  248PHE     CO 3212   0.382   0.057   1.916 -0.0898  0.2506 -0.0608
  248PHE     CH 3213   0.266   0.135   1.913 -0.1767  0.1142 -0.2940
  248PHE     CH 3214   0.143   0.079   1.946  0.3475 -0.8241  0.1008
  248PHE     CH 3215   0.138   5.043   1.977  0.0411 -0.7379  0.4317
  248PHE     CH 3216   0.255   4.967   1.990  0.4826 -0.1114  0.1444
  248PHE     CH 3217   0.379   5.023   1.958  0.2778  0.2584 -0.0052
  248PHE     OH 3218   0.497   0.109   1.864 -0.1221  1.1718  0.7606
  248PHE     HC 3219   0.269   0.238   1.880 -1.0793  0.0822 -0.4943
  248PHE     HC 3220   0.054   0.140   1.948  0.5184 -0.4686 -1.6449
  248PHE     HC 3221   0.045   4.997   2.009 -0.2779  0.3316  1.0801
  248PHE     HC 3222   0.243   4.862   2.014 -1.1440 -0.0445 -0.2645
  248PHE     HC 3223   0.463   4.956   1.964  1.5578  1.8362  0.5969
  248PHE     HO 3224   0.489   0.190   1.816 -0.2879 -0.7756 -2.8389
  249PHE     CO 3225   4.748   0.262   2.031 -0.4249  0.2146  0.1509
  249PHE     CH 3226   4.764   0.257   1.892  0.1440  0.3105  0.2120
  249PHE     CH 3227   4.879   0.303   1.826 -0.1137  0.2131 -0.3170
  249PHE     CH 3228   4.978   0.369   1.901 -0.3787  0.1141  0.1256
  249PHE     CH 3229   4.964   0.376   2.040  0.1473 -0.5297  0.2183
  249PHE     CH 3230   4.853   0.318   2.103 -0.1475 -0.1608  0.0446
  249PHE     OH 3231   4.637   0.212   2.093 -0.0454  0.0970  0.7389
  249PHE     HC 3232   4.688   0.216   1.827  2.4718 -0.6398 -2.1012
  249PHE     HC 3233   4.895   0.302   1.720 -1.2437  0.6793 -0.4980
  249PHE     HC 3234   5.070   0.397   1.853  0.1380 -0.1242  0.9572
  249PHE     HC 3235   5.049   0.409   2.097  0.3897 -0.3747 -0.2251
  249PHE     HC 3236   4.849   0.328   2.211  1.7730 -0.3325  0.1687
  249PHE     HO 3237   4.564   0.196   2.036 -0.4498  1.7181  0.7398
  250PHE     CO 3238   0.274   4.915   1.540 -0.5158  0.6645  0.5522
  250PHE     CH 3239   0.315   4.964   1.416 -0.1777  0.1360  0.4527
  250PHE     CH 3240   0.449   4.989   1.383 -0.1682  0.0126  0.3980
  250PHE     CH 3241   0.547   4.968   1.480  0.3354 -0.5254 -0.2169
  250PHE     CH 3242   0.510   4.919   1.606 -0.0166  1.0573  0.3206
  250PHE     CH 3243   0.376   4.889   1.633 -0.0171  0.7995  0.0494
  250PHE     OH 3244   0.146   4.873   1.563 -0.1291 -0.8242  0.1408
  250PHE     HC 3245   0.232   4.960   1.347 -1.8416 -3.0796  2.3922
  250PHE     HC 3246   0.474   5.029   1.286 -0.1132 -0.1586  0.3408
  250PHE     HC 3247   0.649   5.000   1.463  0.0300  1.2250  0.9679
  250PHE     HC 3248   0.584   4.895   1.681  0.4703 -1.5770 -0.8740
  250PHE     HC 3249   0.350   4.836   1.724  0.4691  0.1153 -0.2039
  250PHE     HO 3250   0.093   4.874   1.486 -0.8137 -2.4949  0.5563
  251PHE     CO 3251   2.444   0.986   1.417  0.0307  0.3727  0.0608
  251PHE     CH 3252   2.493   0.872   1.484 -0.4817 -0.1326 -0.4141
  251PHE     CH 3253   2.562   0.773   1.414  0.6152  0.4172 -0.1370
  251PHE     CH 3254   2.596   0.793   1.280 -0.3757  0.0717 -0.4522
  251PHE     CH 3255   2.548   0.906   1.212 -0.2104  0.3513 -0.1088
  251PHE     CH 3256   2.476   1.003   1.282 -0.0414  0.3686  0.0426
  251PHE     OH 3257   2.358   1.075   1.474 -0.3924  0.2484 -0.3777
  251PHE     HC 3258   2.464   0.860   1.587  3.3590  0.3325  0.8376
  251PHE     HC 3259   2.580   0.679   1.465 -1.0615 -1.5470 -2.8585
  251PHE     HC 3260   2.639   0.711   1.225  0.1092 -0.6806  0.9955
  251PHE     HC 3261   2.559   0.918   1.105 -0.8930  0.3459 -0.1859
  251PHE     HC 3262   2.448   1.091   1.225 -0.6018  0.2183  0.0759
  251PHE     HO 3263   2.345   1.153   1.423 -1.1854  0.3988  0.0359
  252PHE     CO 3264   1.084   4.136   0.430  0.3493  0.6573  0.0016
  252PHE     CH 3265   1.106   4.203   0.551 -0.0203 -0.1058  0.5030
  252PHE     CH 3266   1.238   4.222   0.595  0.3081  0.6256 -0.7481
  252PHE     CH 3267   1.347   4.167   0.526  0.3636  0.0486 -0.2039
  252PHE     CH 3268   1.323   4.096   0.408 -0.3843  0.5473 -0.3605
  252PHE     CH 3269   1.192   4.082   0.359 -0.4094 -1.0319  0.0739
  252PHE     OH 3270   0.958   4.126   0.381  0.5703  0.2645 -0.4994
  252PHE     HC 3271   1.019   4.250   0.593  0.5566  1.2594  0.2410
  252PHE     HC 3272   1.262   4.283   0.681 -0.6450  1.0836 -0.7879
  252PHE     HC 3273   1.450   4.181   0.554  0.3756 -0.5878  0.0763
  252PHE     HC 3274   1.409   4.054   0.358 -1.0673  1.0186 -1.9736
  252PHE     HC 3275   1.180   4.038   0.262  2.5753  1.7469 -1.8039
  252PHE     HO 3276   0.957   4.058   0.316  0.1764 -2.1474  1.8401
  253PHE     CO 3277   4.809   4.192   1.336 -0.1182  0.1399 -0.2068
  253PHE     CH 3278   4.937   4.224   1.381  0.0015 -0.3566 -0.1854
  253PHE     CH 3279   4.954   4.305   1.494 -0.4919 -0.6221  0.0786
  253PHE     CH 3280   4.841   4.350   1.563 -0.5235 -0.0305 -0.3499
  253PHE     CH 3281   4.714   4.312   1.518 -0.3965 -0.2652 -0.5060
  253PHE     CH 3282   4.693   4.238   1.401 -0.4259  0.2595 -0.8368
  253PHE     OH 3283   4.804   4.138   1.211  0.3388 -0.0541 -0.1423
  253PHE     HC 3284   5.026   4.189   1.330  0.4985  0.4553  0.1015
  253PHE     HC 3285   5.056   4.323   1.522 -0.4483  0.2047 -0.5739
  253PHE     HC 3286   4.842   4.433   1.633 -1.6824 -0.6223  0.4122
  253PHE     HC 3287   4.636   4.359   1.576 -0.9648 -2.3705  0.5322
  253PHE     HC 3288   4.595   4.223   1.360  0.6919 -1.3438 -3.1709
  253PHE     HO 3289   4.883   4.155   1.161 -0.8089  0.6076 -1.8127
  254PHE     CO 3290   0.706   4.300   4.161  0.1744  0.0668 -0.0753
  254PHE     CH 3291   0.681   4.173   4.215  0.3074 -0.0101 -0.1936
  254PHE     CH 3292   0.648   4.069   4.127 -0.4523  0.3176 -0.3037
  254PHE     CH 3293   0.632   4.088   3.989 -0.4712  0.3311 -0.3000
  254PHE     CH 3294   0.650   4.219   3.942 -0.0748  0.4799  0.2582
  254PHE     CH 3295   0.685   4.326   4.025  0.4231  0.5405 -0.0242
  254PHE     OH 3296   0.741   4.403   4.244  0.4307 -0.3647  0.3575
  254PHE     HC 3297   0.675   4.156   4.321 -1.4773  1.6652  0.0366
  254PHE     HC 3298   0.627   3.971   4.167 -0.7691  0.4435 -0.1582
  254PHE     HC 3299   0.608   4.007   3.922  1.3165  0.5686 -1.2959
  254PHE     HC 3300   0.657   4.235   3.835 -1.6548  0.3085  0.1177
  254PHE     HC 3301   0.704   4.427   3.992  0.9945  0.0090 -1.3793
  254PHE     HO 3302   0.718   4.391   4.334  1.6310 -1.1327  0.5849
  255PHE     CO 3303   0.312   4.397   2.399 -0.2076 -0.4194 -0.3221
  255PHE     CH 3304   0.354   4.375   2.530  0.1169 -0.5889 -0.4534
  255PHE     CH 3305   0.489   4.393   2.566 -0.0406  0.6102 -0.4263
  255PHE     CH 3306   0.579   4.426   2.464  0.4886  0.2848 -0.0650
  255PHE     CH 3307   0.537   4.441   2.332 -0.0624  0.0175  0.0773
  255PHE     CH 3308   0.403   4.420   2.295 -0.0788  0.3332 -0.0453
  255PHE     OH 3309   0.178   4.393   2.373 -0.2883 -0.6884  0.1216
  255PHE     HC 3310   0.275   4.344   2.597  0.3505  1.5224  0.8971
  255PHE     HC 3311   0.520   4.377   2.668 -0.4501  0.3158 -0.3454
  255PHE     HC 3312   0.682   4.438   2.494  0.5654 -2.2944  1.0047
  255PHE     HC 3313   0.613   4.473   2.261  0.0837 -0.3904  0.0466
  255PHE     HC 3314   0.363   4.414   2.195 -0.1544 -1.1592  0.0547
  255PHE     HO 3315   0.155   4.426   2.287  1.4783  2.6272  0.7457
  256PHE     CO 3316   0.156   1.942   1.940 -0.1868 -0.3893  0.0519
  256PHE     CH 3317   0.188   2.055   1.863 -0.9276  0.4413  0.9284
  256PHE     CH 3318   0.095   2.107   1.773 -0.0687 -0.1116 -0.3223
  256PHE     CH 3319   5.074   2.041   1.749 -0.6291  0.5321  0.6334
  256PHE     CH 3320   5.037   1.934   1.830 -0.1086  0.1801  0.4093
  256PHE     CH 3321   0.028   1.887   1.926 -0.2867 -0.2408  0.3770
  256PHE     OH 3322   0.257   1.878   2.006  0.0593 -0.1273 -0.0657
  256PHE     HC 3323   0.285   2.103   1.861 -1.4826  1.7129  2.5682
  256PHE     HC 3324   0.126   2.191   1.713 -0.8654  0.6326  0.2718
  256PHE     HC 3325   5.011   2.084   1.672 -1.2121 -2.2684 -0.5442
  256PHE     HC 3326   4.939   1.890   1.823 -0.2873  0.5191  0.7461
  256PHE     HC 3327   5.100   1.799   1.981  2.0318 -1.0509  0.3790
  256PHE     HO 3328   0.332   1.929   2.029  1.2401 -1.8165  0.0270
  257PHE     CO 3329   2.224   3.820   0.137  0.0812  0.0971 -0.2611
  257PHE     CH 3330   2.203   3.697   0.074  0.3371 -0.0749 -0.0149
  257PHE     CH 3331   2.317   3.620   0.050 -0.1114 -0.4967 -0.8550
  257PHE     CH 3332   2.447   3.663   0.077 -0.4324 -0.1187  0.1086
  257PHE     CH 3333   2.467   3.796   0.117 -0.5121 -0.0803  0.0189
  257PHE     CH 3334   2.353   3.871   0.151 -0.0763  0.2108  0.8460
  257PHE     OH 3335   2.114   3.898   0.157  0.2517  0.2567  0.0531
  257PHE     HC 3336   2.110   3.649   0.045 -0.7724  2.0287 -0.1891
  257PHE     HC 3337   2.305   3.522   0.006  1.3000  0.4586 -3.5683
  257PHE     HC 3338   2.528   3.592   0.069 -1.5069 -1.6004  1.6283
  257PHE     HC 3339   2.567   3.835   0.124 -0.5474  0.1661 -0.6815
  257PHE     HC 3340   2.359   3.974   0.182  0.2355 -0.3642  2.8918
  257PHE     HO 3341   2.131   3.983   0.195  0.7575  0.0569  0.2787
  258PHE     CO 3342   3.447   0.364   2.028  0.0112 -0.1970 -0.0460
  258PHE     CH 3343   3.522   0.423   1.925 -0.0672  0.1926  0.1185
  258PHE     CH 3344   3.651   0.379   1.893 -0.0556  0.1134  0.2743
  258PHE     CH 3345   3.701   0.265   1.957 -0.3562 -0.2293 -0.0931
  258PHE     CH 3346   3.626   0.204   2.059  0.5738  0.3145  0.9395
  258PHE     CH 3347   3.501   0.254   2.096  0.0111 -0.2570 -0.1421
  258PHE     OH 3348   3.316   0.398   2.048  0.1686  0.0520  0.5657
  258PHE     HC 3349   3.479   0.509   1.876 -1.2447 -0.8497 -0.7546
  258PHE     HC 3350   3.713   0.423   1.817  0.3648  0.2575  0.6964
  258PHE     HC 3351   3.800   0.222   1.947 -0.5047 -1.2033  1.9807
  258PHE     HC 3352   3.668   0.124   2.118  0.8208  0.5889  1.1421
  258PHE     HC 3353   3.452   0.215   2.184 -0.4047 -1.4283 -0.8760
  258PHE     HO 3354   3.281   0.437   1.970 -1.2497  0.2589  1.2753
  259PHE     CO 3355   2.091   0.206   0.407 -0.1949  0.5354 -0.3545
  259PHE     CH 3356   2.205   0.219   0.327  0.1678  0.1478  0.0900
  259PHE     CH 3357   2.315   0.301   0.355  0.2790  0.0295  0.0018
  259PHE     CH 3358   2.300   0.372   0.475 -0.3950  0.1114 -0.1257
  259PHE     CH 3359   2.187   0.368   0.557  0.0889 -0.1188  0.5329
  259PHE     CH 3360   2.080   0.285   0.522  0.2391 -0.1641  0.1810
  259PHE     OH 3361   1.988   0.123   0.371 -0.1316  0.4847 -0.4189
  259PHE     HC 3362   2.210   0.164   0.234  0.7890  1.6611 -0.8086
  259PHE     HC 3363   2.393   0.301   0.280  2.9814 -1.3259  2.6293
  259PHE     HC 3364   2.381   0.429   0.516 -1.1736  1.1993 -0.0634
  259PHE     HC 3365   2.176   0.435   0.641 -0.6344 -1.2749  1.3903
  259PHE     HC 3366   1.989   0.274   0.580 -0.6679 -1.6818 -1.4184
  259PHE     HO 3367   1.912   0.144   0.423  0.5185  3.9924 -0.5891
  260PHE     CO 3368   1.335   3.274   1.113  0.0300  0.1491  0.1393
  260PHE     CH 3369   1.398   3.394   1.079 -0.0215  0.1176 -0.0697
  260PHE     CH 3370   1.361   3.459   0.960  0.3636 -0.0020 -0.2578
  260PHE     CH 3371   1.264   3.405   0.875 -0.4090  0.5040  0.2903
  260PHE     CH 3372   1.207   3.281   0.908  0.3604  0.1320  0.2445
  260PHE     CH 3373   1.239   3.218   1.028  0.2756 -0.2022  0.0905
  260PHE     OH 3374   1.363   3.221   1.235  0.0713 -0.0975  0.0244
  260PHE     HC 3375   1.474   3.433   1.145 -0.2621 -0.9565  0.8702
  260PHE     HC 3376   1.394   3.561   0.947 -0.9190  0.2224 -2.0429
  260PHE     HC 3377   1.229   3.464   0.791 -0.9184  3.8602  2.6547
  260PHE     HC 3378   1.127   3.241   0.848  1.0337 -0.0177 -0.5776
  260PHE     HC 3379   1.187   3.131   1.067  0.4640 -0.0979  0.5807
  260PHE     HO 3380   1.288   3.202   1.289  0.3835  2.3316  1.4522
  261PHE     CO 3381   3.582   4.612   3.115  0.0684 -0.1112  0.4819
  261PHE     CH 3382   3.480   4.673   3.188 -0.2096  0.0598 -0.0389
  261PHE     CH 3383   3.382   4.587   3.240 -0.5256 -0.0352 -0.7876
  261PHE     CH 3384   3.383   4.449   3.211  0.1823 -0.1057 -0.4512
  261PHE     CH 3385   3.495   4.393   3.150  0.6363  0.2782  0.0262
  261PHE     CH 3386   3.601   4.473   3.105  0.5932  0.0249 -0.5258
  261PHE     OH 3387   3.691   4.684   3.075 -0.2639  0.1493  0.0255
  261PHE     HC 3388   3.475   4.779   3.209 -0.8608  0.3190 -1.3811
  261PHE     HC 3389   3.298   4.632   3.290 -1.8560 -3.1423  0.0604
  261PHE     HC 3390   3.326   4.374   3.264  5.1368 -1.9411  2.9613
  261PHE     HC 3391   3.507   4.286   3.149  1.6673  0.3594  0.9723
  261PHE     HC 3392   3.690   4.443   3.051  0.6602  0.7150 -0.8176
  261PHE     HO 3393   3.711   4.758   3.130  1.5192  0.7635 -1.3681
  262PHE     CO 3394   4.408   0.194   1.836 -0.4406 -0.3157  0.0186
  262PHE     CH 3395   4.415   0.334   1.836  0.2653 -0.3467  0.0950
  262PHE     CH 3396   4.418   0.406   1.717 -0.3226 -0.7195 -0.1455
  262PHE     CH 3397   4.426   0.338   1.595 -0.1424 -0.2024 -0.4270
  262PHE     CH 3398   4.436   0.198   1.593 -0.3266 -0.2196 -0.1992
  262PHE     CH 3399   4.425   0.128   1.713 -0.1715 -0.0519 -0.0877
  262PHE     OH 3400   4.404   0.131   1.956 -0.9329 -0.4539 -0.0701
  262PHE     HC 3401   4.406   0.385   1.931 -0.4950 -0.9135  0.3385
  262PHE     HC 3402   4.409   0.514   1.715  1.8694 -0.4903  0.2678
  262PHE     HC 3403   4.441   0.393   1.503  2.5600 -2.3080 -1.3734
  262PHE     HC 3404   4.466   0.159   1.497  0.3551  1.1445 -0.5734
  262PHE     HC 3405   4.435   0.022   1.729 -1.3356  0.1689  2.8468
  262PHE     HO 3406   4.389   0.037   1.953 -2.0416 -0.2708 -0.7873
  263PHE     CO 3407   2.792   1.179   2.917  0.3794 -0.0683 -0.2051
  263PHE     CH 3408   2.790   1.213   2.781 -0.0302 -0.1156 -0.2129
  263PHE     CH 3409   2.859   1.326   2.735  0.3352 -0.3699 -0.2911
  263PHE     CH 3410   2.923   1.411   2.826  0.0703 -0.4765 -0.0039
  263PHE     CH 3411   2.921   1.378   2.962 -0.0019 -0.0932  0.0894
  263PHE     CH 3412   2.864   1.258   3.007 -0.4871  0.2029  0.2607
  263PHE     OH 3413   2.732   1.065   2.962  0.0899  0.1592 -0.0114
  263PHE     HC 3414   2.741   1.144   2.713 -0.9287 -1.1122  1.3845
  263PHE     HC 3415   2.860   1.350   2.630 -0.7176  0.5669 -0.0950
  263PHE     HC 3416   2.963   1.508   2.801 -0.5073 -0.1620  0.2648
  263PHE     HC 3417   2.961   1.454   3.027  0.6624 -0.3728  0.0217
  263PHE     HC 3418   2.884   1.244   3.112  0.5151  2.4180  0.4175
  263PHE     HO 3419   2.692   1.071   3.048  1.4238  0.1032  0.6362
  264PHE     CO 3420   2.616   0.746   0.742  0.0452  0.7422  0.0973
  264PHE     CH 3421   2.720   0.800   0.666  0.1020  0.0395 -0.3299
  264PHE     CH 3422   2.837   0.851   0.724 -0.2602  0.4474  0.0374
  264PHE     CH 3423   2.856   0.845   0.862  0.3000 -0.1406 -0.0599
  264PHE     CH 3424   2.753   0.794   0.942  0.0207  0.1847 -0.2073
  264PHE     CH 3425   2.637   0.744   0.881 -0.1658  0.2056  0.1241
  264PHE     OH 3426   2.498   0.711   0.684  0.3614 -0.1363 -0.0339
  264PHE     HC 3427   2.711   0.809   0.558  2.5453 -0.3292 -0.6326
  264PHE     HC 3428   2.917   0.891   0.663 -0.0386 -0.5605 -0.3384
  264PHE     HC 3429   2.946   0.877   0.912  0.0106 -4.9567  4.3988
  264PHE     HC 3430   2.772   0.786   1.048  0.7666 -1.4374 -0.4220
  264PHE     HC 3431   2.562   0.697   0.942 -0.0144 -1.9884 -1.2436
  264PHE     HO 3432   2.418   0.711   0.735  0.1234 -0.6399 -0.3941
  265PHE     CO 3433   0.274   0.169   2.376 -0.2557 -0.1797  0.2068
  265PHE     CH 3434   0.166   0.148   2.290 -0.3617 -0.0248  0.3016
  265PHE     CH 3435   0.052   0.228   2.301 -0.1638  0.3443 -0.2492
  265PHE     CH 3436   0.051   0.336   2.390 -0.5689 -0.0102  0.1827
  265PHE     CH 3437   0.162   0.365   2.471  0.2136 -0.0420 -0.8571
  265PHE     CH 3438   0.271   0.278   2.465 -0.0439 -0.5016  0.6114
  265PHE     OH 3439   0.388   0.094   2.382 -0.1430 -0.0667 -0.4675
  265PHE     HC 3440   0.166   0.070   2.215 -0.8585 -0.5234  0.8082
  265PHE     HC 3441   5.069   0.192   2.242 -0.1081 -0.7305  0.3162
  265PHE     HC 3442   5.065   0.401   2.387 -1.3869 -1.1012 -0.9754
  265PHE     HC 3443   0.164   0.455   2.530 -1.5847 -0.1501 -0.5535
  265PHE     HC 3444   0.356   0.312   2.522 -0.2203  0.9413  0.0498
  265PHE     HO 3445   0.468   0.138   2.407 -2.2006  3.7076  0.2640
  266PHE     CO 3446   1.756   1.256   2.335  0.7156  0.1639  0.4261
  266PHE     CH 3447   1.712   1.192   2.219  0.4362  1.1865 -0.0387
  266PHE     CH 3448   1.788   1.200   2.101  0.2859 -0.2291 -0.2450
  266PHE     CH 3449   1.906   1.274   2.099  0.4041 -0.4146 -0.1662
  266PHE     CH 3450   1.959   1.330   2.217 -0.1561  0.3634 -0.2756
  266PHE     CH 3451   1.879   1.323   2.332  0.5329  0.4915  0.2142
  266PHE     OH 3452   1.684   1.250   2.451 -0.3687 -0.3196 -0.2580
  266PHE     HC 3453   1.618   1.139   2.224  1.6550 -1.0326  0.8461
  266PHE     HC 3454   1.743   1.160   2.012 -1.4330  0.4133  0.2921
  266PHE     HC 3455   1.962   1.291   2.008  1.3694 -1.0129  0.2946
  266PHE     HC 3456   2.050   1.387   2.222 -1.0301  1.9080 -1.2214
  266PHE     HC 3457   1.920   1.371   2.420  0.4841 -1.1829  1.1999
  266PHE     HO 3458   1.725   1.280   2.531 -1.2040 -2.6159  1.1070
  267PHE     CO 3459   1.243   1.438   3.281  0.3092  0.1154  0.4005
  267PHE     CH 3460   1.324   1.392   3.177 -0.0314  0.2067  0.0928
  267PHE     CH 3461   1.387   1.481   3.089  0.3966 -0.1483  0.0359
  267PHE     CH 3462   1.360   1.618   3.101  0.2232 -0.1795  0.0048
  267PHE     CH 3463   1.279   1.666   3.205 -0.6068 -0.2901 -0.5815
  267PHE     CH 3464   1.217   1.575   3.292  0.0909  0.0806  0.3214
  267PHE     OH 3465   1.186   1.350   3.368  0.0473  0.2169  0.3313
  267PHE     HC 3466   1.347   1.287   3.186  0.0989 -0.0913 -2.6844
  267PHE     HC 3467   1.458   1.447   3.015 -0.4429  1.5417 -1.6232
  267PHE     HC 3468   1.415   1.683   3.035  1.1524 -1.2788 -0.3345
  267PHE     HC 3469   1.267   1.771   3.225 -1.7130 -0.4349 -0.4468
  267PHE     HC 3470   1.149   1.609   3.369 -1.1706  2.4020 -1.6617
  267PHE     HO 3471   1.142   1.400   3.436 -0.4853  1.1400 -0.6520
  268PHE     CO 3472   4.241   1.199   1.382  0.3080  0.2528 -0.4308
  268PHE     CH 3473   4.198   1.279   1.277  0.2149  0.6962 -0.0566
  268PHE     CH 3474   4.107   1.386   1.291  0.0373  0.5538 -0.1106
  268PHE     CH 3475   4.067   1.417   1.422  0.1657  0.2404  0.0064
  268PHE     CH 3476   4.117   1.343   1.529  0.4303 -0.0578 -0.3221
  268PHE     CH 3477   4.198   1.230   1.512 -0.1264 -0.4483 -0.3992
  268PHE     OH 3478   4.323   1.090   1.376  0.1536  0.0806  0.4394
  268PHE     HC 3479   4.232   1.256   1.177  2.0700  3.0001 -0.0511
  268PHE     HC 3480   4.076   1.448   1.209 -3.2860 -0.6322  0.0963
  268PHE     HC 3481   3.992   1.488   1.454  0.4004  0.7831 -0.6113
  268PHE     HC 3482   4.075   1.372   1.624 -1.3036  1.0654 -1.3860
  268PHE     HC 3483   4.226   1.181   1.604  0.3672  2.2488  0.9865
  268PHE     HO 3484   4.362   1.075   1.461 -1.9170 -0.8549  1.2901
  269PHE     CO 3485   4.592   4.841   0.285  0.6641 -0.2814 -0.2202
  269PHE     CH 3486   4.580   4.872   0.421 -0.0522 -0.4549 -0.2381
  269PHE     CH 3487   4.654   4.978   0.474  0.1871 -0.6108 -0.2582
  269PHE     CH 3488   4.739   5.056   0.394 -0.1046  0.0414  0.0590
  269PHE     CH 3489   4.733   5.037   0.256  0.2098 -0.0267  0.0522
  269PHE     CH 3490   4.664   4.928   0.202  0.5073 -0.1049 -0.1741
  269PHE     OH 3491   4.533   4.732   0.228  0.4971  0.0263 -0.6403
  269PHE     HC 3492   4.529   4.802   0.486 -0.6305 -0.6225 -0.8633
  269PHE     HC 3493   4.655   4.995   0.580  1.7388 -0.9192 -0.1916
  269PHE     HC 3494   4.799   0.037   0.432  1.0886  1.3254 -4.0157
  269PHE     HC 3495   4.784   0.008   0.192  0.9194  0.5729  1.2692
  269PHE     HC 3496   4.659   4.903   0.097  3.7197  0.5118 -0.5493
  269PHE     HO 3497   4.574   4.708   0.147 -0.3242 -1.6263 -0.6146
  270PHE     CO 3498   2.748   4.319   3.013  0.1295  0.0269 -0.3356
  270PHE     CH 3499   2.689   4.442   2.981 -0.8097 -0.3807 -0.1917
  270PHE     CH 3500   2.596   4.451   2.877 -0.0613  0.7349 -0.7826
  270PHE     CH 3501   2.565   4.331   2.811  0.2940  0.5270 -0.5755
  270PHE     CH 3502   2.614   4.204   2.844  0.4196  0.5785 -0.5656
  270PHE     CH 3503   2.709   4.202   2.946 -0.4067 -0.1121  0.2097
  270PHE     OH 3504   2.828   4.304   3.123 -0.4125 -0.2400  0.0277
  270PHE     HC 3505   2.719   4.532   3.032 -0.7056 -1.1569  1.1743
  270PHE     HC 3506   2.543   4.539   2.844 -1.1616 -0.2921 -1.8909
  270PHE     HC 3507   2.498   4.339   2.726 -0.3052  1.1493 -0.0621
  270PHE     HC 3508   2.569   4.114   2.806 -0.1069 -0.1454  1.6447
  270PHE     HC 3509   2.748   4.109   2.986  0.8050 -0.4859 -1.7095
  270PHE     HO 3510   2.831   4.379   3.181 -1.5327 -0.3918  0.3109
  271PHE     CO 3511   0.298   0.557   1.956 -0.0311 -0.3694  0.2968
  271PHE     CH 3512   0.338   0.691   1.944 -0.7553 -0.1244  0.6003
  271PHE     CH 3513   0.387   0.756   2.058  0.3680 -0.0008  0.0597
  271PHE     CH 3514   0.402   0.688   2.179  0.4842 -0.1907 -0.0605
  271PHE     CH 3515   0.364   0.554   2.191 -0.4193  0.0805  0.2313
  271PHE     CH 3516   0.316   0.489   2.077  0.6676 -0.5299  0.1086
  271PHE     OH 3517   0.260   0.500   1.838  0.0488 -0.0149  0.0973
  271PHE     HC 3518   0.325   0.748   1.853 -2.5361 -0.5127  0.5680
  271PHE     HC 3519   0.412   0.861   2.063  2.3426 -0.4701  0.7758
  271PHE     HC 3520   0.433   0.748   2.264 -3.6300  1.0456  0.7797
  271PHE     HC 3521   0.378   0.494   2.279 -3.2564  0.1292  0.8128
  271PHE     HC 3522   0.293   0.383   2.082  0.4571 -0.5410 -0.7907
  271PHE     HO 3523   0.238   0.562   1.771 -1.9783 -1.0356 -0.2542
  272PHE     CO 3524   3.101   0.801   0.357 -0.1776 -0.3190  0.2871
  272PHE     CH 3525   3.015   0.723   0.280 -0.0461  0.0359 -0.2258
  272PHE     CH 3526   2.883   0.767   0.261 -0.1967 -0.1921  0.2754
  272PHE     CH 3527   2.840   0.892   0.307 -0.2482  0.0702 -0.4692
  272PHE     CH 3528   2.924   0.969   0.390  0.0438 -0.3889 -0.3380
  272PHE     CH 3529   3.053   0.921   0.413  0.0922 -0.0879  0.0299
  272PHE     OH 3530   3.234   0.772   0.373 -0.1232 -0.1963  0.0626
  272PHE     HC 3531   3.049   0.631   0.236 -0.8015  1.0689 -3.2240
  272PHE     HC 3532   2.815   0.703   0.207 -1.8725  2.8611 -1.5823
  272PHE     HC 3533   2.737   0.917   0.285 -0.3406 -0.6184 -0.8256
  272PHE     HC 3534   2.891   1.061   0.436  2.1267  0.0783  0.3002
  272PHE     HC 3535   3.118   0.977   0.478 -0.8708 -0.5761  1.4716
  272PHE     HO 3536   3.244   0.685   0.338 -1.0744 -0.3875  0.2419
  273PHE     CO 3537   0.431   4.891   2.460 -0.4398 -0.6909 -0.3860
  273PHE     CH 3538   0.453   4.811   2.573 -0.0069 -0.7196 -0.4870
  273PHE     CH 3539   0.581   4.758   2.593  0.3834  0.4500  0.2609
  273PHE     CH 3540   0.680   4.772   2.495  0.0952  0.1139 -0.0853
  273PHE     CH 3541   0.651   4.847   2.380 -0.4136 -0.6103 -0.4344
  273PHE     CH 3542   0.529   4.915   2.363 -0.0377  0.2518  0.2326
  273PHE     OH 3543   0.313   4.958   2.448 -0.3341 -0.3994  0.1579
  273PHE     HC 3544   0.372   4.797   2.644  0.5265  2.3628  0.8893
  273PHE     HC 3545   0.601   4.688   2.673  0.0970  1.3237  1.1146
  273PHE     HC 3546   0.764   4.708   2.520 -1.3558 -1.5188  0.8369
  273PHE     HC 3547   0.734   4.856   2.312  0.5928  1.1309  0.9538
  273PHE     HC 3548   0.509   4.979   2.278 -0.3655  0.9226  0.8072
  273PHE     HO 3549   0.329   5.042   2.409  2.6023 -0.1812  1.5580
  274PHE     CO 3550   1.184   1.188   0.487  0.0046 -0.3809  0.0419
  274PHE     CH 3551   1.193   1.089   0.585  0.1136 -0.0642  0.3546
  274PHE     CH 3552   1.081   1.020   0.632  0.0929 -0.0231  0.3660
  274PHE     CH 3553   0.956   1.054   0.580  0.2321  0.5390  0.3926
  274PHE     CH 3554   0.947   1.155   0.484 -0.2453  0.2421  0.1188
  274PHE     CH 3555   1.058   1.232   0.446  0.0756 -0.3293 -0.1236
  274PHE     OH 3556   1.287   1.272   0.456 -0.5432  0.2139 -0.1848
  274PHE     HC 3557   1.286   1.062   0.633  0.1390 -2.3185 -0.8268
  274PHE     HC 3558   1.096   0.939   0.702  0.1860 -0.4222 -0.1090
  274PHE     HC 3559   0.873   0.990   0.606  0.4111 -0.7101 -1.8403
  274PHE     HC 3560   0.850   1.174   0.440  0.0241  0.8548 -0.2259
  274PHE     HC 3561   1.049   1.321   0.385 -2.9709 -0.8587 -0.6039
  274PHE     HO 3562   1.259   1.357   0.423 -0.7318  0.3019  0.1945
  275PHE     CO 3563   4.356   4.872   4.061  0.5683  0.0321  0.1511
  275PHE     CH 3564   4.447   4.795   3.987  0.3878 -0.1810  0.1494
  275PHE     CH 3565   4.512   4.684   4.043  0.8768  0.1917  0.3285
  275PHE     CH 3566   4.477   4.637   4.170  0.3439  0.0401  0.1291
  275PHE     CH 3567   4.377   4.706   4.238  0.0811  0.1550 -0.3662
  275PHE     CH 3568   4.326   4.827   4.190  0.2620  0.4697  0.2344
  275PHE     OH 3569   4.286   4.974   4.002  0.0391 -0.5689 -0.2725
  275PHE     HC 3570   4.459   4.818   3.882 -2.5055 -0.9444 -0.4274
  275PHE     HC 3571   4.568   4.624   3.972 -1.0455 -3.1817  1.4865
  275PHE     HC 3572   4.519   4.542   4.200 -1.0983 -0.9699 -0.9549
  275PHE     HC 3573   4.336   4.672   4.332 -0.1230 -2.4188 -1.2940
  275PHE     HC 3574   4.251   4.886   4.241  0.2620  0.5819  0.1040
  275PHE     HO 3575   4.321   5.011   3.923 -1.0544  0.0785 -0.4657
  276PHE     CO 3576   1.819   3.203   1.587 -0.2368  0.2946 -0.4461
  276PHE     CH 3577   1.735   3.239   1.693 -0.0480 -0.6321  0.0195
  276PHE     CH 3578   1.629   3.155   1.729 -0.3794 -0.1790  0.1033
  276PHE     CH 3579   1.609   3.038   1.654  0.2939 -0.3777  0.2252
  276PHE     CH 3580   1.686   3.007   1.542  0.2605 -0.3660  0.1993
  276PHE     CH 3581   1.797   3.087   1.512  0.0502 -0.1091  0.0947
  276PHE     OH 3582   1.934   3.276   1.581  0.1200 -0.1940  0.3951
  276PHE     HC 3583   1.764   3.326   1.750  0.5727 -2.3591  2.5058
  276PHE     HC 3584   1.570   3.171   1.818 -1.1120 -1.2492 -0.1678
  276PHE     HC 3585   1.539   2.970   1.700  2.0272 -0.4992  2.8850
  276PHE     HC 3586   1.675   2.919   1.480 -0.3070 -0.2701  0.1583
  276PHE     HC 3587   1.872   3.053   1.442 -1.4954 -0.6002 -1.4005
  276PHE     HO 3588   1.912   3.367   1.589 -3.6517 -0.8478 -0.7445
  277PHE     CO 3589   2.742   0.004   3.815  0.1895 -0.5251  0.3370
  277PHE     CH 3590   2.603   5.098   3.802  0.1637  0.4519  0.0580
  277PHE     CH 3591   2.525   0.085   3.879 -0.0204  0.1422  0.2243
  277PHE     CH 3592   2.582   0.174   3.971 -0.6784  0.4210  0.3644
  277PHE     CH 3593   2.721   0.177   3.979 -0.6422  0.7453 -0.3533
  277PHE     CH 3594   2.804   0.093   3.903 -0.6363  0.6836 -0.2787
  277PHE     OH 3595   2.820   5.029   3.732  0.2711 -0.4497  0.3452
  277PHE     HC 3596   2.556   5.031   3.731  0.2707 -0.7857  1.1034
  277PHE     HC 3597   2.419   0.070   3.869  0.0166 -0.7876  1.0288
  277PHE     HC 3598   2.510   0.234   4.025  1.7213  1.8550  2.1714
  277PHE     HC 3599   2.769   0.248   4.045 -2.3223  1.5691  0.0358
  277PHE     HC 3600   2.912   0.091   3.907 -0.6445 -1.3582  0.0282
  277PHE     HO 3601   2.913   5.043   3.743  0.1263 -0.0397  1.1186
  278PHE     CO 3602   4.202   4.593   1.403  0.1581 -0.0239 -0.4558
  278PHE     CH 3603   4.295   4.504   1.456 -0.3438 -0.2114  0.1161
  278PHE     CH 3604   4.381   4.436   1.370 -0.2673 -0.4063  0.3438
  278PHE     CH 3605   4.368   4.456   1.232 -0.4620  0.1431  0.4381
  278PHE     CH 3606   4.268   4.537   1.178 -0.1686  0.1537 -0.1062
  278PHE     CH 3607   4.178   4.601   1.265 -0.0965  0.6331 -0.3800
  278PHE     OH 3608   4.126   4.662   1.493 -0.3130 -0.1517 -0.7464
  278PHE     HC 3609   4.299   4.499   1.564  0.4221 -1.8440  0.0378
  278PHE     HC 3610   4.449   4.364   1.413  0.2484  0.5864  1.2351
  278PHE     HC 3611   4.428   4.385   1.176 -0.1352  1.7720 -1.4171
  278PHE     HC 3612   4.243   4.537   1.073  0.0976 -0.3685 -0.1720
  278PHE     HC 3613   4.096   4.657   1.224 -1.7005 -1.3286 -0.0056
  278PHE     HO 3614   4.063   4.712   1.443 -0.1242 -0.1391 -0.9733
  279PHE     CO 3615   4.622   4.655   4.991  0.5121 -0.7784 -0.6060
  279PHE     CH 3616   4.721   4.753   4.977  0.0809 -0.2615 -0.0541
  279PHE     CH 3617   4.736   4.817   4.854 -0.0744 -0.4586 -0.1739
  279PHE     CH 3618   4.650   4.779   4.749  0.0347 -0.2930 -0.3233
  279PHE     CH 3619   4.553   4.679   4.762  0.2545 -0.4505  0.1382
  279PHE     CH 3620   4.536   4.618   4.887 -0.5018 -0.3765  0.0785
  279PHE     OH 3621   4.603   4.586   0.007 -0.9119  0.1773 -0.2460
  279PHE     HC 3622   4.793   4.782   5.053 -0.7063 -0.3715  0.7485
  279PHE     HC 3623   4.814   4.891   4.843  0.4269 -0.7349  1.3702
  279PHE     HC 3624   4.645   4.822   4.651  0.7414 -1.1830 -0.7626
  279PHE     HC 3625   4.483   4.647   4.686 -1.0035  0.5508  0.8282
  279PHE     HC 3626   4.471   4.532   4.889  0.6080 -1.2233  1.1044
  279PHE     HO 3627   4.534   4.521   0.002 -2.3253  1.3806  2.0207
  280PHE     CO 3628   0.510   3.309   2.175 -0.3685 -0.2671  0.2629
  280PHE     CH 3629   0.484   3.323   2.038  0.2019 -0.5515  0.1203
  280PHE     CH 3630   0.373   3.398   1.998  0.1318 -0.6216  0.1833
  280PHE     CH 3631   0.295   3.468   2.091 -0.1742 -0.2465 -0.3477
  280PHE     CH 3632   0.327   3.460   2.227  0.0498  0.1944 -0.3721
  280PHE     CH 3633   0.432   3.378   2.268 -0.1626  0.1623  0.1155
  280PHE     OH 3634   0.627   3.245   2.205 -0.2723 -0.2624 -0.0906
  280PHE     HC 3635   0.545   3.274   1.964  2.0917  0.8615  0.6697
  280PHE     HC 3636   0.353   3.408   1.892  0.6654  1.7843  0.2532
  280PHE     HC 3637   0.217   3.528   2.046  0.5352 -1.3665 -3.2701
  280PHE     HC 3638   0.264   3.518   2.294 -2.2390 -0.1716 -2.0902
  280PHE     HC 3639   0.454   3.375   2.374 -1.6269 -0.9681  0.4070
  280PHE     HO 3640   0.657   3.273   2.290  0.6054  1.9713 -1.0721
  281PHE     CO 3641   2.788   1.605   2.354  0.1425 -0.2546  0.3518
  281PHE     CH 3642   2.902   1.678   2.391  0.2617 -0.1869 -0.1426
  281PHE     CH 3643   2.910   1.716   2.525  0.5411 -0.6388 -0.0313
  281PHE     CH 3644   2.806   1.696   2.617 -0.2457  0.6382 -0.6235
  281PHE     CH 3645   2.695   1.622   2.576 -0.4011  0.5904 -0.1204
  281PHE     CH 3646   2.683   1.579   2.443 -0.1519 -0.0562  0.0646
  281PHE     OH 3647   2.767   1.561   2.227  0.1711 -0.0459  0.2749
  281PHE     HC 3648   2.985   1.693   2.323  1.5347 -1.0299  1.1782
  281PHE     HC 3649   3.001   1.765   2.560  0.1613  0.8497 -1.0467
  281PHE     HC 3650   2.821   1.724   2.720  0.4753  0.4306 -0.6670
  281PHE     HC 3651   2.614   1.602   2.644  0.0386  0.4380  0.3647
  281PHE     HC 3652   2.591   1.531   2.413 -0.7968  1.9943 -1.3988
  281PHE     HO 3653   2.836   1.506   2.190 -0.5082 -0.6528 -0.1209
  282PHE     CO 3654   0.179   1.326   1.238  0.0931 -0.5975 -0.0058
  282PHE     CH 3655   0.250   1.357   1.355 -0.4080 -0.3414  0.2372
  282PHE     CH 3656   0.182   1.364   1.477 -0.3338  1.4585  0.1948
  282PHE     CH 3657   0.045   1.336   1.480  0.0817 -0.7078  0.2531
  282PHE     CH 3658   5.076   1.293   1.366 -0.0044 -0.0992  0.0747
  282PHE     CH 3659   0.042   1.297   1.243  0.0576 -0.4223  0.0978
  282PHE     OH 3660   0.236   1.311   1.116  0.0233 -0.4071 -0.0626
  282PHE     HC 3661   0.358   1.364   1.351 -0.4560 -0.1708 -1.3812
  282PHE     HC 3662   0.234   1.387   1.569 -0.8758 -0.3601  0.9907
  282PHE     HC 3663   5.084   1.342   1.569 -2.6675  2.2141 -1.6112
  282PHE     HC 3664   4.975   1.259   1.380  0.5967 -3.0005 -1.8245
  282PHE     HC 3665   5.094   1.270   1.150  1.0880 -0.2553 -0.5014
  282PHE     HO 3666   0.331   1.313   1.118  0.0116 -0.0957  0.1409
  283PHE     CO 3667   3.207   0.623   1.064 -0.0952 -0.6323 -0.0713
  283PHE     CH 3668   3.293   0.583   0.961  0.0737 -0.0998 -0.1420
  283PHE     CH 3669   3.378   0.678   0.904  0.0878 -0.0018  0.0420
  283PHE     CH 3670   3.372   0.814   0.937 -0.2640 -0.0420  0.1468
  283PHE     CH 3671   3.281   0.853   1.036 -0.3894 -0.2677  0.1206
  283PHE     CH 3672   3.205   0.757   1.104  0.4326 -0.7534  0.3704
  283PHE     OH 3673   3.128   0.527   1.120 -0.8566  0.0516  0.0441
  283PHE     HC 3674   3.295   0.483   0.920  2.7619 -0.1268 -0.1162
  283PHE     HC 3675   3.441   0.660   0.817 -0.2844  0.2794 -0.2908
  283PHE     HC 3676   3.427   0.893   0.889 -1.0596  0.0846 -0.5711
  283PHE     HC 3677   3.270   0.958   1.059  0.8661 -0.6273  2.7551
  283PHE     HC 3678   3.145   0.789   1.188  2.7922 -2.0745  2.7146
  283PHE     HO 3679   3.162   0.440   1.104 -0.7234  0.5070 -2.5201
  284PHE     CO 3680   4.970   4.496   4.825 -0.0807 -0.1488 -0.4648
  284PHE     CH 3681   5.039   4.551   4.717  0.1067  0.5757  0.0113
  284PHE     CH 3682   5.019   4.498   4.588  0.2166  0.4971  0.0264
  284PHE     CH 3683   4.936   4.387   4.570 -0.4476  0.9600  0.1676
  284PHE     CH 3684   4.877   4.327   4.681  0.3527  0.0435  0.1138
  284PHE     CH 3685   4.895   4.379   4.810  0.3625 -0.5473  0.3559
  284PHE     OH 3686   4.982   4.544   4.952  0.0812 -0.3175 -0.4176
  284PHE     HC 3687   5.097   4.640   4.735 -0.5751  1.2316 -0.9091
  284PHE     HC 3688   5.066   4.545   4.503  1.4662  0.8984  0.9064
  284PHE     HC 3689   4.912   4.340   4.476 -0.8147  2.1108 -0.3277
  284PHE     HC 3690   4.818   4.241   4.652  0.4757 -0.0985  0.2785
  284PHE     HC 3691   4.847   4.338   4.898  0.2582  0.0337  0.5725
  284PHE     HO 3692   4.953   4.480   5.015 -1.3192 -0.3649 -1.0910
  285PHE     CO 3693   2.784   4.707   3.324 -0.4819 -0.1222  0.0325
  285PHE     CH 3694   2.708   4.734   3.439  0.5377  0.0354  0.6836
  285PHE     CH 3695   2.684   4.868   3.471  0.0249  0.0581  0.2133
  285PHE     CH 3696   2.726   4.970   3.385  0.2762 -0.0462  0.2132
  285PHE     CH 3697   2.803   4.944   3.271 -0.1527 -0.0051 -0.0888
  285PHE     CH 3698   2.829   4.810   3.240  0.0923 -0.0724  0.3931
  285PHE     OH 3699   2.837   4.583   3.304 -0.5046 -0.1349  0.0533
  285PHE     HC 3700   2.680   4.651   3.502 -2.4477 -0.5268 -1.1760
  285PHE     HC 3701   2.626   4.890   3.560 -0.0518 -0.8752  0.4017
  285PHE     HC 3702   2.694   5.072   3.401  0.2769  0.1992 -1.1848
  285PHE     HC 3703   2.842   5.020   3.205 -0.8487  0.3655 -0.0786
  285PHE     HC 3704   2.889   4.784   3.154 -0.2345  0.8529 -0.1266
  285PHE     HO 3705   2.867   4.524   3.372  0.3329 -0.3691 -0.5125
  286PHE     CO 3706   0.894   4.861   3.185  0.3338  0.2712  0.1342
  286PHE     CH 3707   1.026   4.822   3.156  0.2146  0.1235 -0.2121
  286PHE     CH 3708   1.126   4.920   3.148  0.4624 -0.0768  0.3935
  286PHE     CH 3709   1.088   5.054   3.143  0.7673  0.0123  0.4867
  286PHE     CH 3710   0.956   5.092   3.167  0.6175  0.1605 -0.5061
  286PHE     CH 3711   0.859   4.995   3.200  0.3833  0.3673 -0.5852
  286PHE     OH 3712   0.799   4.763   3.189  0.3677  0.2341  0.0249
  286PHE     HC 3713   1.048   4.717   3.152 -1.4775 -0.3276  0.9769
  286PHE     HC 3714   1.229   4.888   3.141  0.5646 -0.1699  1.9455
  286PHE     HC 3715   1.164   0.029   3.122  0.1894 -0.1187 -2.6111
  286PHE     HC 3716   0.925   0.095   3.166  1.3779  0.4085  0.2222
  286PHE     HC 3717   0.760   5.034   3.219  0.6347  1.2740 -1.0329
  286PHE     HO 3718   0.719   4.805   3.220  0.7441  0.6643  0.4375
  287PHE     CO 3719   1.107   0.052   0.517  0.6884 -0.1399 -0.2818
  287PHE     CH 3720   1.015   0.126   0.442  0.1894 -0.4692  0.0007
  287PHE     CH 3721   0.946   0.067   0.335 -0.0989  0.4156 -0.3160
  287PHE     CH 3722   0.962   5.029   0.312 -0.1687  0.4600 -0.6244
  287PHE     CH 3723   1.045   4.956   0.396 -0.3796  1.0320  0.0904
  287PHE     CH 3724   1.117   5.014   0.501  0.0439 -0.2919  0.5548
  287PHE     OH 3725   1.174   0.114   0.618 -0.7232  0.3983  0.3566
  287PHE     HC 3726   0.997   0.232   0.456 -0.6406 -0.5593 -0.3171
  287PHE     HC 3727   0.885   0.115   0.261  2.7310  0.3184 -2.9141
  287PHE     HC 3728   0.902   4.986   0.233 -0.5827  0.7586 -0.4795
  287PHE     HC 3729   1.053   4.850   0.377 -0.0925  1.0042  0.3610
  287PHE     HC 3730   1.172   4.948   0.567  2.5108  0.0323 -1.0410
  287PHE     HO 3731   1.151   0.204   0.639  0.8744  0.3032  3.0503
  288PHE     CO 3732   1.213   3.632   2.855 -0.5346 -0.0646  0.1226
  288PHE     CH 3733   1.243   3.762   2.813  0.1339 -0.1841  0.2229
  288PHE     CH 3734   1.346   3.836   2.871  0.0961 -0.1347  0.2271
  288PHE     CH 3735   1.414   3.777   2.978  0.5465 -0.5229 -0.2665
  288PHE     CH 3736   1.374   3.654   3.031  0.0286 -0.2387  0.0097
  288PHE     CH 3737   1.271   3.581   2.972 -0.3783  0.2065  0.1645
  288PHE     OH 3738   1.126   3.553   2.786 -0.1538 -0.2527 -0.1415
  288PHE     HC 3739   1.185   3.807   2.733  1.3896 -0.0789 -0.6636
  288PHE     HC 3740   1.364   3.938   2.839 -0.5189  0.1555  0.7818
  288PHE     HC 3741   1.490   3.832   3.032  0.8733 -0.3219 -0.9187
  288PHE     HC 3742   1.420   3.619   3.122  0.7582  0.7455  0.0395
  288PHE     HC 3743   1.241   3.481   3.002  1.0415 -0.4623 -0.5677
  288PHE     HO 3744   1.114   3.589   2.700  2.1838  2.0054  0.3765
  289PHE     CO 3745   0.785   4.468   0.331  0.1410  0.2278 -0.0322
  289PHE     CH 3746   0.675   4.395   0.285  0.4090  0.0317 -0.3675
  289PHE     CH 3747   0.570   4.454   0.213 -0.0140 -0.4106 -0.1227
  289PHE     CH 3748   0.564   4.594   0.205  0.3265 -0.3614  0.3902
  289PHE     CH 3749   0.668   4.669   0.260  0.3268 -0.1615  0.1208
  289PHE     CH 3750   0.779   4.608   0.319  0.3103  0.2944  0.6365
  289PHE     OH 3751   0.892   4.408   0.390 -0.0812 -0.2528 -0.1190
  289PHE     HC 3752   0.668   4.288   0.297 -2.2092  0.0672 -0.8820
  289PHE     HC 3753   0.502   4.383   0.169  1.3394 -1.2881 -0.8639
  289PHE     HC 3754   0.472   4.630   0.160 -0.7317 -1.1229  1.8438
  289PHE     HC 3755   0.656   4.776   0.258 -0.9003 -0.2616  0.8614
  289PHE     HC 3756   0.865   4.660   0.360  0.6492  0.6584 -0.4973
  289PHE     HO 3757   0.881   4.314   0.394 -0.1454 -0.2839 -0.8715
  290PHE     CO 3758   0.952   0.973   2.549 -0.4215  0.1132  0.7723
  290PHE     CH 3759   0.990   0.840   2.526 -0.0401  0.4248 -0.4378
  290PHE     CH 3760   0.942   0.773   2.413  0.2625  0.0674 -0.3581
  290PHE     CH 3761   0.856   0.838   2.323 -0.1490 -0.4351 -0.3311
  290PHE     CH 3762   0.821   0.971   2.346  0.0942 -0.5026  0.4793
  290PHE     CH 3763   0.865   1.037   2.461 -0.0639 -0.0555  0.2879
  290PHE     OH 3764   0.990   1.035   2.665  0.7104 -0.0154  0.4802
  290PHE     HC 3765   1.059   0.791   2.593  0.8239  1.3159 -0.6415
  290PHE     HC 3766   0.975   0.674   2.385 -3.3809 -1.6210  0.7328
  290PHE     HC 3767   0.825   0.788   2.232 -0.6074 -0.1705 -0.3244
  290PHE     HC 3768   0.758   1.024   2.275 -1.0900 -0.4741  1.5228
  290PHE     HC 3769   0.840   1.140   2.482 -0.8420 -0.3646  0.9604
  290PHE     HO 3770   1.072   1.004   2.701  0.4010 -0.8153  0.5167
  291PHE     CO 3771   0.677   2.936   2.160 -0.2338  0.1334  0.2243
  291PHE     CH 3772   0.759   2.858   2.243 -0.2259 -0.2707 -0.1643
  291PHE     CH 3773   0.695   2.774   2.335  0.5312 -0.1355  0.4940
  291PHE     CH 3774   0.555   2.777   2.343  0.5098  0.0785  0.0517
  291PHE     CH 3775   0.478   2.861   2.262  0.5295 -0.1298 -0.1834
  291PHE     CH 3776   0.538   2.940   2.163 -0.2316  0.5205 -0.1311
  291PHE     OH 3777   0.737   3.022   2.073  0.6981 -0.5393  0.1798
  291PHE     HC 3778   0.867   2.863   2.237 -0.3324  1.7664 -1.1416
  291PHE     HC 3779   0.749   2.705   2.399 -1.9058  0.5219  3.4904
  291PHE     HC 3780   0.498   2.718   2.413 -0.9493 -2.1582 -2.7875
  291PHE     HC 3781   0.371   2.870   2.272  0.5880  0.2861  0.0744
  291PHE     HC 3782   0.479   3.003   2.098  0.6668  0.0957 -1.3934
  291PHE     HO 3783   0.680   3.098   2.074  0.8413 -0.4103 -0.5934
  292PHE     CO 3784   2.058   4.565   3.194  0.0776  0.4588  0.1595
  292PHE     CH 3785   2.054   4.703   3.168  0.2870  0.4269 -0.0407
  292PHE     CH 3786   1.943   4.779   3.205  0.0783  0.0257  0.1622
  292PHE     CH 3787   1.829   4.715   3.256  0.4328 -0.3998  0.4191
  292PHE     CH 3788   1.832   4.577   3.280 -0.6385 -0.4808  0.1038
  292PHE     CH 3789   1.952   4.507   3.266 -0.3594  0.1508 -0.7237
  292PHE     OH 3790   2.165   4.489   3.161  0.0343  0.5475 -0.1864
  292PHE     HC 3791   2.141   4.760   3.138  0.5841  0.0750  0.1340
  292PHE     HC 3792   1.944   4.887   3.197  1.0608  0.1005  1.0338
  292PHE     HC 3793   1.736   4.765   3.277  0.2016 -0.6990  0.1336
  292PHE     HC 3794   1.744   4.523   3.314 -0.2124 -1.7437 -0.7015
  292PHE     HC 3795   1.958   4.401   3.286 -3.7628  0.0799  0.5102
  292PHE     HO 3796   2.167   4.396   3.182  1.4423  0.4960 -0.4433
  293PHE     CO 3797   3.823   1.007   1.886  0.3079 -0.4048  0.2060
  293PHE     CH 3798   3.698   1.068   1.869  0.7965  0.5158 -0.1482
  293PHE     CH 3799   3.633   1.128   1.977 -0.3631 -0.1639 -0.4554
  293PHE     CH 3800   3.691   1.110   2.103  0.0559 -0.1710 -0.6473
  293PHE     CH 3801   3.818   1.055   2.120 -0.1697 -0.5818 -0.2488
  293PHE     CH 3802   3.886   0.999   2.011  0.5930 -0.2955  0.0697
  293PHE     OH 3803   3.887   0.969   1.771 -0.1928 -0.2957 -0.1108
  293PHE     HC 3804   3.669   1.069   1.765 -1.3227 -2.5642  0.2609
  293PHE     HC 3805   3.536   1.174   1.963 -0.1019  0.9516  1.0699
  293PHE     HC 3806   3.641   1.142   2.193  0.8952 -0.8261  0.0707
  293PHE     HC 3807   3.858   1.040   2.219 -0.9828 -1.0674  0.0122
  293PHE     HC 3808   3.988   0.966   2.002  0.9512  0.5983  0.6999
  293PHE     HO 3809   3.980   0.956   1.780  0.2620 -0.1478 -3.4210
  294PHE     CO 3810   0.354   0.592   4.080  0.0730  0.0079  0.3834
  294PHE     CH 3811   0.424   0.493   4.010  0.2147  0.3018  0.1043
  294PHE     CH 3812   0.507   0.536   3.906  0.6100 -0.0504  0.2684
  294PHE     CH 3813   0.520   0.671   3.872  0.4262 -0.1135 -0.0683
  294PHE     CH 3814   0.438   0.766   3.935 -0.6314 -0.3960 -0.9917
  294PHE     CH 3815   0.348   0.724   4.033 -0.5467 -0.4743 -0.9482
  294PHE     OH 3816   0.280   0.565   4.191 -0.0757 -0.4619  0.1707
  294PHE     HC 3817   0.427   0.388   4.034 -2.8053  0.2039  0.3916
  294PHE     HC 3818   0.558   0.456   3.854 -0.3611 -0.4936 -0.0433
  294PHE     HC 3819   0.576   0.710   3.789 -0.4011 -1.3130 -1.2341
  294PHE     HC 3820   0.427   0.872   3.917  1.9765  0.3242  0.9449
  294PHE     HC 3821   0.278   0.794   4.076 -1.7306  0.6305 -4.4007
  294PHE     HO 3822   0.301   0.488   4.242  0.8247 -2.0492 -2.3841
  295PHE     CO 3823   3.920   1.534   0.377 -0.1764 -0.0552 -0.0343
  295PHE     CH 3824   3.938   1.604   0.497 -0.3290 -0.2228  0.0864
  295PHE     CH 3825   3.870   1.726   0.510 -0.6668 -0.4515  0.4722
  295PHE     CH 3826   3.782   1.774   0.413 -0.2255  0.2498  0.4182
  295PHE     CH 3827   3.771   1.711   0.288 -0.4803  0.0719  0.5306
  295PHE     CH 3828   3.846   1.593   0.275 -0.1240  0.3378  0.1534
  295PHE     OH 3829   4.000   1.424   0.366 -1.0616 -0.6904 -0.2228
  295PHE     HC 3830   4.025   1.582   0.557  2.1365  3.6194 -1.7337
  295PHE     HC 3831   3.887   1.780   0.602 -0.6663 -1.7679  1.2724
  295PHE     HC 3832   3.721   1.862   0.426  0.2149  0.7938 -1.0249
  295PHE     HC 3833   3.712   1.748   0.206  2.1711  0.1571 -1.4873
  295PHE     HC 3834   3.838   1.537   0.183 -0.0265 -2.0639  1.5404
  295PHE     HO 3835   4.025   1.397   0.279 -0.2817  0.1893 -0.2929
  296PHE     CO 3836   2.632   4.661   4.488 -0.0208 -0.3870 -0.3994
  296PHE     CH 3837   2.759   4.631   4.437  0.4031 -0.1188  0.4945
  296PHE     CH 3838   2.854   4.734   4.428 -0.1576  0.3774  0.1396
  296PHE     CH 3839   2.835   4.856   4.493 -0.5181  0.4808 -0.1565
  296PHE     CH 3840   2.713   4.884   4.554 -0.2800  0.3421  0.3873
  296PHE     CH 3841   2.612   4.787   4.545  0.2470 -0.1102 -0.9062
  296PHE     OH 3842   2.537   4.567   4.459 -0.2097 -0.0219 -0.9801
  296PHE     HC 3843   2.789   4.542   4.385  1.0700  1.2781 -1.6465
  296PHE     HC 3844   2.946   4.715   4.374  0.5942  4.0347 -0.1269
  296PHE     HC 3845   2.906   4.938   4.486 -0.6123  0.5317 -0.5535
  296PHE     HC 3846   2.676   4.979   4.589  1.6227  1.7151 -1.1226
  296PHE     HC 3847   2.512   4.816   4.570 -0.0027 -0.4753 -1.4655
  296PHE     HO 3848   2.461   4.621   4.442 -0.8415 -0.6507 -0.2365
  297PHE     CO 3849   0.733   0.846   3.106  1.4214 -0.2412  1.0248
  297PHE     CH 3850   0.659   0.745   3.168 -0.1610 -0.1886 -0.6790
  297PHE     CH 3851   0.590   0.770   3.287  0.3928 -0.4445 -0.2971
  297PHE     CH 3852   0.610   0.893   3.351  0.1446 -0.4932 -0.1238
  297PHE     CH 3853   0.687   0.996   3.295 -0.1178  0.0081  0.4313
  297PHE     CH 3854   0.755   0.965   3.177 -0.0358  0.4597  0.3572
  297PHE     OH 3855   0.794   0.823   2.986 -0.0214 -0.2268  0.2639
  297PHE     HC 3856   0.653   0.644   3.129  0.6951  0.6876 -3.3450
  297PHE     HC 3857   0.531   0.701   3.345  0.3679 -0.6041 -0.5095
  297PHE     HC 3858   0.557   0.921   3.441 -0.3008  0.2351 -0.6010
  297PHE     HC 3859   0.690   1.096   3.337 -1.1226  0.2220  0.0309
  297PHE     HC 3860   0.812   1.045   3.133 -0.8255  2.0917  2.1633
  297PHE     HO 3861   0.860   0.888   2.968  0.7950 -1.2730 -0.6644
  298PHE     CO 3862   1.069   4.289   4.736  0.4154  0.4331  0.1000
  298PHE     CH 3863   1.143   4.267   4.619  0.1457 -0.5081  0.0936
  298PHE     CH 3864   1.104   4.161   4.536  0.2403 -0.0125 -0.5996
  298PHE     CH 3865   0.998   4.075   4.567  0.3276  0.1701  0.2284
  298PHE     CH 3866   0.933   4.095   4.690  0.0238  1.2124 -0.0857
  298PHE     CH 3867   0.966   4.202   4.775  0.5550  0.4995  0.6252
  298PHE     OH 3868   1.097   4.392   4.820 -0.3151  0.0977  0.7741
  298PHE     HC 3869   1.223   4.330   4.584  2.1509 -1.7468  2.1782
  298PHE     HC 3870   1.165   4.137   4.450  3.3327 -1.2278  1.6938
  298PHE     HC 3871   0.970   4.003   4.492  0.3631  0.4047 -0.0101
  298PHE     HC 3872   0.849   4.032   4.714  0.0590  1.8171  1.8382
  298PHE     HC 3873   0.913   4.225   4.866  0.1908  1.3100  0.2156
  298PHE     HO 3874   1.169   4.451   4.801  1.0616 -1.9406 -0.7996
  299PHE     CO 3875   2.351   0.386   1.351 -0.6570 -0.1705  0.1990
  299PHE     CH 3876   2.335   0.281   1.259 -0.9083  0.0961 -0.0635
  299PHE     CH 3877   2.295   0.155   1.304 -0.4500  0.1358  0.4613
  299PHE     CH 3878   2.278   0.136   1.442 -0.7890  0.2090  0.4287
  299PHE     CH 3879   2.302   0.238   1.534 -0.1604  0.1766  0.3008
  299PHE     CH 3880   2.336   0.366   1.489 -0.0726  0.1584  0.3144
  299PHE     OH 3881   2.376   0.513   1.308 -0.6516 -0.2663 -0.0825
  299PHE     HC 3882   2.354   0.287   1.153  0.0054 -0.9517  0.0270
  299PHE     HC 3883   2.275   0.068   1.244 -2.6897  0.2280  1.0156
  299PHE     HC 3884   2.254   0.034   1.470  1.6682 -0.5339  0.1045
  299PHE     HC 3885   2.288   0.222   1.640  0.0979  4.0146  1.0787
  299PHE     HC 3886   2.350   0.450   1.555 -0.7173  1.0858 -0.6939
  299PHE     HO 3887   2.292   0.557   1.299 -0.1616  0.2931 -2.7286
  300PHE     CO 3888   0.577   1.188   5.086 -1.0817  0.4333 -0.2974
  300PHE     CH 3889   0.495   1.077   5.063 -0.5095  0.1353 -0.9149
  300PHE     CH 3890   0.358   1.093   5.085 -0.3709 -0.0655  0.1421
  300PHE     CH 3891   0.306   1.205   0.052 -0.3274  0.1174 -0.1301
  300PHE     CH 3892   0.396   1.307   0.085 -0.0022 -0.0272 -0.5559
  300PHE     CH 3893   0.531   1.304   0.049  0.0386  0.9939 -0.5018
  300PHE     OH 3894   0.710   1.169   5.066 -0.9984  0.2550  0.4141
  300PHE     HC 3895   0.535   0.981   5.034 -0.2493  0.2891 -1.0669
  300PHE     HC 3896   0.292   1.015   5.050  1.7090 -1.4918 -0.8141
  300PHE     HC 3897   0.200   1.213   0.070 -0.9195 -1.5398 -2.2988
  300PHE     HC 3898   0.360   1.396   0.135  3.1923 -0.1911  2.3791
  300PHE     HC 3899   0.599   1.387   0.061  0.6853  0.2574  1.4008
  300PHE     HO 3900   0.721   1.082   5.031 -4.2019  0.1902 -0.7381
  301PHE     CO 3901   3.569   4.948   2.787 -0.0380  0.0586  0.0371
  301PHE     CH 3902   3.677   4.874   2.738 -0.0784  0.0428 -0.0277
  301PHE     CH 3903   3.806   4.928   2.732 -0.0424 -0.0402  0.0037
  301PHE     CH 3904   3.835   5.054   2.785 -0.2269 -0.3322  0.8217
  301PHE     CH 3905   3.724   0.026   2.830 -0.3707 -0.2905  0.4070
  301PHE     CH 3906   3.593   5.078   2.834 -0.6488  0.3685 -0.4862
  301PHE     OH 3907   3.445   4.893   2.801  0.0437 -0.2323 -0.3622
  301PHE     HC 3908   3.648   4.774   2.710  0.0022  0.8029 -3.2292
  301PHE     HC 3909   3.882   4.859   2.697  1.3356  0.1656  2.3733
  301PHE     HC 3910   3.931   5.100   2.803 -0.8262  0.1551  2.9711
  301PHE     HC 3911   3.751   0.123   2.869 -1.2005  0.0016  0.2687
  301PHE     HC 3912   3.511   0.033   2.878 -1.7829 -2.5361  1.3605
  301PHE     HO 3913   3.425   4.805   2.772 -2.6653  0.0399  0.4245
  302PHE     CO 3914   4.903   0.615   3.977 -0.3657 -0.2833  0.2367
  302PHE     CH 3915   4.858   0.672   3.857 -0.0395  0.2394  0.3572
  302PHE     CH 3916   4.780   0.788   3.860  0.1618  0.3835  0.0694
  302PHE     CH 3917   4.745   0.847   3.982 -1.1287 -0.1488 -0.0266
  302PHE     CH 3918   4.796   0.791   4.100 -0.1002  0.0155 -0.3839
  302PHE     CH 3919   4.873   0.674   4.101  0.7495  0.5641  0.1145
  302PHE     OH 3920   4.988   0.509   3.972  0.5298  0.4452 -0.2195
  302PHE     HC 3921   4.885   0.634   3.759  1.9433  0.7039  0.6736
  302PHE     HC 3922   4.749   0.827   3.765 -1.1076  2.3743  1.2283
  302PHE     HC 3923   4.688   0.938   3.995 -0.7755 -0.1593  2.0487
  302PHE     HC 3924   4.769   0.831   4.197 -0.1136 -1.1102  0.0962
  302PHE     HC 3925   4.907   0.627   4.192 -0.5762  0.1859  0.4303
  302PHE     HO 3926   5.031   0.496   4.054 -2.1557  0.2681  1.2734
  303PHE     CO 3927   4.949   0.968   1.190  0.8754  0.6792 -0.2688
  303PHE     CH 3928   4.910   0.929   1.319  0.2157  0.4859 -0.5231
  303PHE     CH 3929   4.789   0.978   1.369  0.0759 -0.2741 -0.0986
  303PHE     CH 3930   4.715   1.068   1.292  0.4181 -0.0283 -0.1478
  303PHE     CH 3931   4.757   1.111   1.166  0.4060  0.0818 -0.1146
  303PHE     CH 3932   4.878   1.063   1.116  0.5662  0.5320 -0.1639
  303PHE     OH 3933   5.061   0.905   1.142  0.6181 -0.2816  0.3748
  303PHE     HC 3934   4.980   0.864   1.368 -1.3236  1.4421  3.2537
  303PHE     HC 3935   4.751   0.947   1.465  1.6681  0.4439  0.8160
  303PHE     HC 3936   4.623   1.115   1.324 -1.4049 -0.2816 -4.2820
  303PHE     HC 3937   4.701   1.182   1.105  1.4154  1.1598  0.1787
  303PHE     HC 3938   4.921   1.090   1.021  0.8640 -2.2624 -0.8974
  303PHE     HO 3939   5.074   0.927   1.052  1.6717  1.0035  0.8235
  304PHE     CO 3940   4.982   4.854   1.291  0.0481  0.3506  0.1543
  304PHE     CH 3941   4.883   4.907   1.207  0.2180 -0.2614 -0.4448
  304PHE     CH 3942   4.801   4.816   1.140 -0.8948  0.0378  0.4650
  304PHE     CH 3943   4.806   4.678   1.165 -0.5263 -0.1972 -0.8200
  304PHE     CH 3944   4.897   4.627   1.258 -0.3217  0.4906 -0.6353
  304PHE     CH 3945   4.985   4.717   1.319  0.4727  0.0776 -1.1526
  304PHE     OH 3946   5.069   4.938   1.353  0.2323  0.3350 -0.0802
  304PHE     HC 3947   4.885   5.013   1.186 -1.4183  0.1470  1.2414
  304PHE     HC 3948   4.740   4.847   1.057  0.3986 -0.9403 -0.9317
  304PHE     HC 3949   4.734   4.614   1.116 -2.1262  2.1710 -1.7457
  304PHE     HC 3950   4.905   4.522   1.284 -0.2702  0.3450 -1.2263
  304PHE     HC 3951   5.068   4.676   1.373  0.4058  1.2272 -0.1296
  304PHE     HO 3952   5.075   5.024   1.313  1.6562 -0.4214 -1.6040
  305PHE     CO 3953   3.286   0.221   1.042 -0.3842  0.7747 -0.8212
  305PHE     CH 3954   3.412   0.274   1.075 -0.1420 -0.0452 -0.3875
  305PHE     CH 3955   3.528   0.210   1.030  0.0280 -0.0910  0.1183
  305PHE     CH 3956   3.520   0.105   0.938 -0.4634 -0.1562  0.2338
  305PHE     CH 3957   3.393   0.070   0.889 -0.4332 -0.3961  0.3248
  305PHE     CH 3958   3.275   0.126   0.940 -0.4276  0.0759 -0.1777
  305PHE     OH 3959   3.169   0.263   1.098 -0.1016  0.4722  0.0145
  305PHE     HC 3960   3.404   0.356   1.144 -0.4274 -1.5755  1.4628
  305PHE     HC 3961   3.627   0.244   1.056  1.6726 -2.7240 -2.1003
  305PHE     HC 3962   3.608   0.058   0.897 -0.7398  0.0066 -0.5728
  305PHE     HC 3963   3.380   0.005   0.804 -2.1376  0.6262 -0.2459
  305PHE     HC 3964   3.174   0.098   0.914 -0.2331  0.4564 -1.4481
  305PHE     HO 3965   3.113   0.191   1.123  0.8758 -0.6184 -0.7922
  306PHE     CO 3966   3.353   0.654   4.899  0.2337 -0.8388  0.1364
  306PHE     CH 3967   3.264   0.658   5.008  0.1613  0.3710  0.0510
  306PHE     CH 3968   3.302   0.740   0.014 -0.1458 -0.1807  0.5982
  306PHE     CH 3969   3.429   0.798   0.022 -0.1290 -0.0088 -0.6412
  306PHE     CH 3970   3.525   0.774   5.023  0.6181 -0.5170  0.1840
  306PHE     CH 3971   3.484   0.701   4.910  0.0871 -0.4735  0.3450
  306PHE     OH 3972   3.312   0.597   4.783 -0.4176  0.5041 -0.3184
  306PHE     HC 3973   3.167   0.610   5.002  0.0218 -0.0448  3.5278
  306PHE     HC 3974   3.239   0.754   0.101 -0.1140 -0.9031  0.7427
  306PHE     HC 3975   3.442   0.855   0.113 -1.0447 -1.2434  0.3038
  306PHE     HC 3976   3.623   0.815   5.042  0.5632  0.3393 -1.2086
  306PHE     HC 3977   3.547   0.682   4.825 -0.6701 -0.3001 -0.2683
  306PHE     HO 3978   3.381   0.602   4.718 -0.7996 -2.6329 -1.1418
  307PHE     CO 3979   1.940   1.707   1.038  0.0719 -0.0378 -0.6985
  307PHE     CH 3980   1.896   1.840   1.032 -0.0649 -0.0952 -0.9445
  307PHE     CH 3981   1.760   1.870   1.012 -0.1821 -0.2432 -0.3880
  307PHE     CH 3982   1.669   1.768   0.979 -0.2146 -0.5372  0.5706
  307PHE     CH 3983   1.712   1.635   0.976 -0.2667 -0.5437 -0.1948
  307PHE     CH 3984   1.845   1.608   1.010 -0.0939  0.0356 -0.4065
  307PHE     OH 3985   2.073   1.682   1.053  0.0307  0.1310  0.0170
  307PHE     HC 3986   1.971   1.915   1.047 -0.6011  0.4449 -0.9328
  307PHE     HC 3987   1.719   1.969   1.007 -0.1123 -0.2700 -1.9331
  307PHE     HC 3988   1.568   1.789   0.947  0.4490 -0.0951 -1.4103
  307PHE     HC 3989   1.646   1.557   0.941 -1.1164  0.6085 -1.2595
  307PHE     HC 3990   1.894   1.512   1.009 -2.2812 -1.1641  0.2643
  307PHE     HO 3991   2.119   1.755   1.090 -2.0882  1.5198  0.0909
  308PHE     CO 3992   3.968   1.211   0.721  0.0790  0.4855 -0.1626
  308PHE     CH 3993   4.022   1.196   0.849  0.5834 -0.8784 -0.5227
  308PHE     CH 3994   4.029   1.075   0.919  0.5358 -0.4018  0.3195
  308PHE     CH 3995   3.973   0.960   0.861 -0.1433 -0.2209  0.5953
  308PHE     CH 3996   3.931   0.965   0.728  0.2648 -0.1666  0.4647
  308PHE     CH 3997   3.930   1.089   0.664  0.3545 -0.0286  0.7314
  308PHE     OH 3998   3.968   1.327   0.649 -0.4498  0.5504 -0.0628
  308PHE     HC 3999   4.065   1.283   0.897 -1.4315 -0.8622  1.4096
  308PHE     HC 4000   4.070   1.067   1.019  0.3613 -2.0472  0.2938
  308PHE     HC 4001   3.977   0.866   0.915 -4.3374 -0.6044  0.5058
  308PHE     HC 4002   3.897   0.874   0.679  2.1415 -0.0856 -1.0923
  308PHE     HC 4003   3.890   1.098   0.564  0.2800  0.7942  0.8278
  308PHE     HO 4004   3.953   1.309   0.557 -0.0929 -0.6757  0.0925
  309PHE     CO 4005   0.359   5.030   0.339 -0.0784 -0.2652 -0.3666
  309PHE     CH 4006   0.331   4.908   0.278  0.3217 -0.1136 -0.8606
  309PHE     CH 4007   0.274   4.802   0.349  0.0843  0.3621 -0.3320
  309PHE     CH 4008   0.238   4.818   0.483  0.9022  0.1899 -0.0875
  309PHE     CH 4009   0.271   4.938   0.548  0.0077  0.3706  0.0435
  309PHE     CH 4010   0.329   5.043   0.475 -0.0238  0.0924 -0.3870
  309PHE     OH 4011   0.413   0.033   0.267 -0.3242 -0.2652 -0.5543
  309PHE     HC 4012   0.365   4.894   0.176  1.0486 -0.3673 -0.5885
  309PHE     HC 4013   0.260   4.702   0.310 -1.0914 -0.7610  2.6642
  309PHE     HC 4014   0.190   4.734   0.530  0.1232 -0.8798 -2.6287
  309PHE     HC 4015   0.233   4.939   0.649 -2.8224 -1.0277 -0.8918
  309PHE     HC 4016   0.347   0.036   0.527 -0.7732 -0.5843  1.1483
  309PHE     HO 4017   0.399   0.106   0.325 -2.0114 -1.9473  1.3392
  310PHE     CO 4018   0.921   3.776   1.470  0.3102 -0.6008 -0.3453
  310PHE     CH 4019   0.989   3.660   1.434  0.1964 -0.6453 -0.4144
  310PHE     CH 4020   0.946   3.534   1.477 -0.9992 -0.2699 -0.4734
  310PHE     CH 4021   0.834   3.530   1.562 -0.5701 -0.4875  0.0944
  310PHE     CH 4022   0.775   3.649   1.607 -0.0236 -0.3016  0.3339
  310PHE     CH 4023   0.820   3.775   1.567  0.5556 -0.6390 -0.0881
  310PHE     OH 4024   0.970   3.895   1.424 -0.0205 -0.3497 -0.0563
  310PHE     HC 4025   1.077   3.668   1.372  0.4738 -0.8312 -0.0514
  310PHE     HC 4026   1.009   3.449   1.454 -0.1580 -0.6072  2.5561
  310PHE     HC 4027   0.789   3.438   1.595  0.5242 -1.6490 -1.5002
  310PHE     HC 4028   0.692   3.648   1.677  0.6692  0.4397  1.1870
  310PHE     HC 4029   0.777   3.865   1.607  3.9123  0.9717  0.2523
  310PHE     HO 4030   0.919   3.962   1.466  0.5642 -0.1874  0.3996
  311PHE     CO 4031   2.059   3.578   0.508  0.0966  0.5415  0.5562
  311PHE     CH 4032   2.132   3.690   0.466  0.2272  0.0587 -0.5135
  311PHE     CH 4033   2.255   3.729   0.519 -0.0961  0.0501  0.2442
  311PHE     CH 4034   2.313   3.647   0.617 -0.3003  0.1301  0.4330
  311PHE     CH 4035   2.246   3.533   0.662 -0.0683  0.0294  0.5197
  311PHE     CH 4036   2.119   3.505   0.611  0.1820 -0.1706  0.0029
  311PHE     OH 4037   1.935   3.555   0.455  0.2990 -0.0106  0.3262
  311PHE     HC 4038   2.098   3.735   0.373  2.0360 -1.5789 -2.0766
  311PHE     HC 4039   2.304   3.815   0.474 -1.3805  1.0337  0.6459
  311PHE     HC 4040   2.406   3.662   0.668  0.2954 -1.9124  0.0056
  311PHE     HC 4041   2.291   3.462   0.731  0.6248  0.2793  0.3374
  311PHE     HC 4042   2.077   3.411   0.643  0.5690  0.0270  1.1195
  311PHE     HO 4043   1.899   3.622   0.400 -1.1026  0.7205  2.0542
  312PHE     CO 4044   1.926   0.172   3.932  0.1100 -0.5933  0.2671
  312PHE     CH 4045   1.879   0.294   3.980 -0.3476 -0.7066  0.1110
  312PHE     CH 4046   1.750   0.302   4.035 -0.0974 -0.2505  0.6498
  312PHE     CH 4047   1.670   0.187   4.040 -0.2527 -0.1422  0.6431
  312PHE     CH 4048   1.721   0.064   3.997 -0.3052  0.1122 -0.1643
  312PHE     CH 4049   1.851   0.054   3.947 -0.1952 -0.4068  0.2170
  312PHE     OH 4050   2.049   0.173   3.875 -0.0184  0.4130 -0.0044
  312PHE     HC 4051   1.939   0.383   3.967 -0.8095 -0.5876 -1.3413
  312PHE     HC 4052   1.704   0.396   4.060 -3.5359 -1.6998  0.4569
  312PHE     HC 4053   1.566   0.185   4.071 -0.5781  0.4599 -0.3699
  312PHE     HC 4054   1.666   5.072   4.007 -0.6200  0.1485 -1.4356
  312PHE     HC 4055   1.899   5.064   3.913  0.8724  0.5562 -0.9172
  312PHE     HO 4056   2.064   0.101   3.816 -0.3969  0.1564  0.2110
  313PHE     CO 4057   3.514   4.432   4.834  0.0429  0.6108 -0.2234
  313PHE     CH 4058   3.523   4.298   4.795 -0.4358  0.2798  0.7775
  313PHE     CH 4059   3.629   4.219   4.842  0.1367  0.1114 -0.7376
  313PHE     CH 4060   3.724   4.274   4.929 -0.4136 -0.1231  0.0221
  313PHE     CH 4061   3.708   4.402   4.984  0.0329 -0.2197  0.3868
  313PHE     CH 4062   3.607   4.481   4.928  0.2173 -0.2239  0.0457
  313PHE     OH 4063   3.418   4.511   4.778 -0.1964  0.2215 -0.3659
  313PHE     HC 4064   3.460   4.247   4.724  1.0951 -0.8469  0.1743
  313PHE     HC 4065   3.630   4.117   4.806 -2.5791  0.6293 -2.6272
  313PHE     HC 4066   3.802   4.211   4.971  0.4103  0.7475 -0.1815
  313PHE     HC 4067   3.773   4.436   5.063  1.2124  1.0185 -1.0401
  313PHE     HC 4068   3.603   4.583   4.961  0.5999 -0.4667  0.8551
  313PHE     HO 4069   3.343   4.460   4.754 -0.1239 -1.0043  1.7697
  314PHE     CO 4070   0.846   0.557   4.676  0.1799  0.2661  0.2393
  314PHE     CH 4071   0.954   0.481   4.723  0.2305  0.1003 -0.1493
  314PHE     CH 4072   1.080   0.534   4.749  0.2468  0.1180 -0.2646
  314PHE     CH 4073   1.095   0.674   4.746  0.2871  0.1200  0.0501
  314PHE     CH 4074   0.997   0.751   4.683  0.0868 -0.2136 -0.0496
  314PHE     CH 4075   0.874   0.692   4.650  0.0348  0.1540 -0.5255
  314PHE     OH 4076   0.727   0.498   4.646  0.1688  0.7009 -0.5983
  314PHE     HC 4077   0.941   0.377   4.748  0.1205  0.6978  2.5032
  314PHE     HC 4078   1.162   0.470   4.777  0.5334  0.4054 -0.4344
  314PHE     HC 4079   1.196   0.705   4.765  1.6183 -3.2393 -0.6944
  314PHE     HC 4080   1.017   0.856   4.670 -1.2683 -0.0417 -1.0370
  314PHE     HC 4081   0.791   0.745   4.605 -1.4175 -0.2210  1.5329
  314PHE     HO 4082   0.650   0.551   4.632 -0.4178 -0.4985 -2.2642
  315PHE     CO 4083   0.818   1.265   2.872  0.0868  0.0531  0.1492
  315PHE     CH 4084   0.759   1.298   2.995 -0.1851 -0.4366  0.1525
  315PHE     CH 4085   0.820   1.395   3.076 -0.3494 -0.3267  0.1447
  315PHE     CH 4086   0.945   1.450   3.048 -0.4386 -0.2606 -0.1190
  315PHE     CH 4087   1.005   1.411   2.927  0.1190  0.0972  0.0384
  315PHE     CH 4088   0.945   1.318   2.842 -0.0613  0.2958 -0.0522
  315PHE     OH 4089   0.755   1.180   2.788  0.6286 -0.1841 -0.0240
  315PHE     HC 4090   0.669   1.246   3.023  0.8370 -2.4254 -0.0535
  315PHE     HC 4091   0.760   1.432   3.158 -0.9826  1.3672 -1.0358
  315PHE     HC 4092   0.973   1.526   3.120 -1.2276 -0.5252  0.4777
  315PHE     HC 4093   1.097   1.456   2.894 -0.1036  0.1630 -0.4978
  315PHE     HC 4094   0.994   1.295   2.749 -2.2249 -0.6180 -1.0329
  315PHE     HO 4095   0.816   1.122   2.745 -0.9001 -1.6136 -0.4012
  316PHE     CO 4096   1.123   0.864   4.151  0.1722  0.0100 -0.2376
  316PHE     CH 4097   1.044   0.920   4.252  0.5097  0.1950 -0.0728
  316PHE     CH 4098   0.937   0.846   4.304  0.3874  0.2613 -0.2288
  316PHE     CH 4099   0.910   0.717   4.257 -0.0959  0.3917 -0.3161
  316PHE     CH 4100   0.981   0.666   4.147  0.4827  0.0915  0.1971
  316PHE     CH 4101   1.091   0.738   4.100  0.5997 -0.2045  0.0147
  316PHE     OH 4102   1.228   0.935   4.101 -0.0309  0.3517 -0.1851
  316PHE     HC 4103   1.056   1.015   4.303 -1.7537  0.1082  0.7354
  316PHE     HC 4104   0.877   0.883   4.386  0.2433  0.4209 -0.4042
  316PHE     HC 4105   0.833   0.659   4.305  2.3080 -2.2579  0.5940
  316PHE     HC 4106   0.944   0.576   4.101 -3.1621  0.8643  1.3320
  316PHE     HC 4107   1.151   0.697   4.019  0.7931  0.9074 -0.4210
  316PHE     HO 4108   1.229   1.029   4.106  1.7546  0.4037 -0.6926
  317PHE     CO 4109   1.497   5.060   0.453 -0.5469  0.4111  0.0433
  317PHE     CH 4110   1.593   4.971   0.503 -0.8242 -0.1224 -0.3645
  317PHE     CH 4111   1.656   4.879   0.419  0.2442  0.6142 -0.3930
  317PHE     CH 4112   1.616   4.865   0.285  0.0205  0.0868 -0.2740
  317PHE     CH 4113   1.519   4.954   0.236 -0.5583 -0.3376  0.0868
  317PHE     CH 4114   1.459   5.050   0.319 -0.3250 -0.1345  0.0211
  317PHE     OH 4115   1.430   0.048   0.534  0.2175  0.3728  0.7248
  317PHE     HC 4116   1.628   4.968   0.605  1.7304  0.3882 -1.1519
  317PHE     HC 4117   1.727   4.816   0.468 -0.0926  1.2158  0.9015
  317PHE     HC 4118   1.660   4.790   0.221 -0.9097 -1.2897  0.6542
  317PHE     HC 4119   1.484   4.945   0.135  1.6813 -0.3521 -0.7423
  317PHE     HC 4120   1.385   0.021   0.285  0.7523 -0.0132 -2.2836
  317PHE     HO 4121   1.342   0.067   0.507  0.7134  2.7118  0.5257
  318PHE     CO 4122   4.226   0.652   1.927  0.2007  0.5080 -0.0004
  318PHE     CH 4123   4.123   0.686   2.015  0.1944 -0.1198  0.2416
  318PHE     CH 4124   4.144   0.695   2.153 -0.2829 -0.2527  0.3271
  318PHE     CH 4125   4.270   0.671   2.209 -0.0501  1.0800  0.4091
  318PHE     CH 4126   4.368   0.626   2.119 -0.4652  0.5566  0.2197
  318PHE     CH 4127   4.352   0.623   1.980  0.1601  0.6002  0.1474
  318PHE     OH 4128   4.200   0.647   1.793  0.2375  0.6891 -0.0147
  318PHE     HC 4129   4.028   0.716   1.971  0.4554 -0.6984 -0.7397
  318PHE     HC 4130   4.065   0.737   2.213 -0.6393  2.7384 -1.9969
  318PHE     HC 4131   4.288   0.673   2.315  0.9121 -0.7739  0.3201
  318PHE     HC 4132   4.464   0.607   2.164 -0.7765 -0.5360  0.4549
  318PHE     HC 4133   4.439   0.592   1.923  2.0911  1.6334  2.3635
  318PHE     HO 4134   4.107   0.647   1.775  0.0517  2.9565  0.6928
  319PHE     CO 4135   0.613   1.953   2.147  0.0677  0.3458  0.2492
  319PHE     CH 4136   0.724   1.872   2.171  0.3026  0.3501 -0.8083
  319PHE     CH 4137   0.777   1.870   2.300 -0.9177  0.2489 -0.2928
  319PHE     CH 4138   0.716   1.941   2.404  0.1933  0.8271 -0.0188
  319PHE     CH 4139   0.604   2.022   2.381  0.0976  0.6400 -0.2097
  319PHE     CH 4140   0.550   2.022   2.252 -0.2297  0.5637 -0.0712
  319PHE     OH 4141   0.563   1.962   2.020  0.3629 -0.2097  0.0927
  319PHE     HC 4142   0.776   1.829   2.086 -1.6359  0.4748 -2.1314
  319PHE     HC 4143   0.867   1.810   2.302 -0.8380  0.2020 -2.7495
  319PHE     HC 4144   0.756   1.942   2.505 -0.9585  2.2171  0.4550
  319PHE     HC 4145   0.557   2.065   2.468 -2.5150 -1.1274 -0.6596
  319PHE     HC 4146   0.456   2.076   2.244 -0.2864  0.8652  2.0989
  319PHE     HO 4147   0.631   1.943   1.958  0.6974  0.0980  0.3561
  320PHE     CO 4148   4.345   0.044   3.643 -0.1435  0.0118 -0.0605
  320PHE     CH 4149   4.378   0.177   3.672 -0.2362  0.0776 -0.2587
  320PHE     CH 4150   4.397   0.275   3.574  0.2197  0.2355 -0.0174
  320PHE     CH 4151   4.379   0.237   3.440  0.1437  0.0253  0.0531
  320PHE     CH 4152   4.327   0.112   3.404 -0.2504  0.1674  0.1248
  320PHE     CH 4153   4.319   0.019   3.508 -0.1361 -0.0410 -0.0518
  320PHE     OH 4154   4.333   5.047   3.738 -0.1260 -0.1371 -0.2104
  320PHE     HC 4155   4.388   0.201   3.777 -1.2551 -2.1906  0.4357
  320PHE     HC 4156   4.433   0.374   3.595 -0.2547  0.2259  0.8788
  320PHE     HC 4157   4.394   0.302   3.356  0.0906 -0.2571 -0.1787
  320PHE     HC 4158   4.311   0.091   3.299  0.7090 -0.7586  0.1463
  320PHE     HC 4159   4.287   5.017   3.493  2.4551 -1.1044  1.0406
  320PHE     HO 4160   4.316   4.960   3.705 -0.7722  0.3849 -1.2937
  321PHE     CO 4161   2.815   1.150   1.340  0.7863 -0.5210  0.3368
  321PHE     CH 4162   2.864   1.218   1.452  0.1656  0.2435  0.1545
  321PHE     CH 4163   2.875   1.358   1.447 -0.2390  0.2707  0.0462
  321PHE     CH 4164   2.822   1.428   1.338  0.1248  0.1343 -0.2225
  321PHE     CH 4165   2.782   1.360   1.222 -0.7883 -0.4004  0.3948
  321PHE     CH 4166   2.779   1.220   1.225  0.1906 -0.4245  0.5780
  321PHE     OH 4167   2.802   1.014   1.344  0.5539 -0.5142 -0.1429
  321PHE     HC 4168   2.902   1.166   1.539 -0.3257 -1.1125 -0.4168
  321PHE     HC 4169   2.930   1.410   1.523  1.1410 -1.1288  0.0501
  321PHE     HC 4170   2.828   1.536   1.346 -1.9611  0.3420 -0.8973
  321PHE     HC 4171   2.766   1.410   1.128 -2.6660 -2.1776 -0.2924
  321PHE     HC 4172   2.752   1.164   1.136  1.7446 -0.2592 -0.0321
  321PHE     HO 4173   2.713   0.985   1.330  0.6348 -0.7664 -0.1398
  322PHE     CO 4174   0.444   4.027   1.909 -0.3239 -0.5863  0.4360
  322PHE     CH 4175   0.497   4.106   1.807 -0.5989 -0.3923  0.4402
  322PHE     CH 4176   0.562   4.225   1.844  0.8325 -1.2274  0.7101
  322PHE     CH 4177   0.585   4.253   1.979  0.1202  0.2262  0.5518
  322PHE     CH 4178   0.533   4.169   2.079  0.5939 -0.4436  0.2434
  322PHE     CH 4179   0.467   4.050   2.046  0.1454 -0.2129  0.2960
  322PHE     OH 4180   0.373   3.916   1.877  0.1301 -0.8247  0.2560
  322PHE     HC 4181   0.489   4.090   1.700  0.6876  1.7802 -0.0582
  322PHE     HC 4182   0.605   4.283   1.763  0.3894  0.7568  1.8271
  322PHE     HC 4183   0.637   4.344   2.003 -2.2512  2.3759 -1.8122
  322PHE     HC 4184   0.538   4.198   2.183  1.3371  1.2494 -0.2305
  322PHE     HC 4185   0.427   3.988   2.124  0.6100 -2.5360 -1.2003
  322PHE     HO 4186   0.355   3.870   1.958  2.1825 -0.2120  1.1068
  323PHE     CO 4187   4.417   0.379   0.437 -0.2657 -0.5169  0.1207
  323PHE     CH 4188   4.348   0.393   0.317 -0.6953 -0.4022  0.3785
  323PHE     CH 4189   4.265   0.505   0.302  0.1657  0.1395 -0.5406
  323PHE     CH 4190   4.245   0.596   0.407  0.0655 -0.3959 -0.0864
  323PHE     CH 4191   4.320   0.585   0.524 -0.4043 -0.3154  0.2227
  323PHE     CH 4192   4.414   0.482   0.532  0.1779  0.1461 -0.5753
  323PHE     OH 4193   4.518   0.287   0.435  0.4228  0.2350 -0.2931
  323PHE     HC 4194   4.371   0.323   0.238  0.7648 -0.3284  0.7127
  323PHE     HC 4195   4.217   0.519   0.206 -1.0355  2.3064  0.2998
  323PHE     HC 4196   4.181   0.680   0.386 -1.7666 -1.9239 -0.8912
  323PHE     HC 4197   4.328   0.655   0.606  0.3281 -0.9026  0.6708
  323PHE     HC 4198   4.487   0.482   0.612 -0.8490  1.6670  0.4023
  323PHE     HO 4199   4.580   0.287   0.507 -0.7214  2.5448  0.8050
  324PHE     CO 4200   3.479   1.083   0.400 -0.1630 -0.2187  0.8901
  324PHE     CH 4201   3.605   1.139   0.422 -0.0639  0.1625 -0.5218
  324PHE     CH 4202   3.621   1.276   0.446  0.7205  0.1954 -1.1989
  324PHE     CH 4203   3.512   1.362   0.448  0.2436 -0.4225  0.3438
  324PHE     CH 4204   3.386   1.304   0.426  0.0209  0.0677  0.2940
  324PHE     CH 4205   3.367   1.167   0.403  0.0254  0.0612  0.3307
  324PHE     OH 4206   3.471   0.955   0.354 -0.4934  0.0183  0.2702
  324PHE     HC 4207   3.690   1.072   0.420  0.5110  0.8868 -0.7091
  324PHE     HC 4208   3.721   1.314   0.465  0.5510 -0.2279  0.7522
  324PHE     HC 4209   3.519   1.470   0.455  0.4450 -0.3870 -0.4285
  324PHE     HC 4210   3.293   1.358   0.434  1.1783  1.9483  2.3090
  324PHE     HC 4211   3.268   1.133   0.376  0.7532 -0.9315 -1.1999
  324PHE     HO 4212   3.385   0.921   0.369 -1.2802  1.6270 -0.3945
  325PHE     CO 4213   3.874   0.590   3.485 -0.2965  0.0643  0.0590
  325PHE     CH 4214   3.886   0.564   3.622 -0.0156  0.0324  0.0279
  325PHE     CH 4215   3.991   0.625   3.693  0.1030 -0.0783 -0.0529
  325PHE     CH 4216   4.083   0.704   3.623 -0.0660 -0.2094 -0.4281
  325PHE     CH 4217   4.063   0.737   3.488  0.1877  0.0862 -0.3935
  325PHE     CH 4218   3.961   0.674   3.415  0.4025 -0.7150 -0.0113
  325PHE     OH 4219   3.771   0.526   3.423  0.2399 -0.6693 -0.0784
  325PHE     HC 4220   3.820   0.494   3.672  0.9939 -0.7537  0.2920
  325PHE     HC 4221   4.007   0.618   3.799 -0.7756 -0.7131  0.0537
  325PHE     HC 4222   4.168   0.742   3.676  0.9247 -0.6478 -1.6653
  325PHE     HC 4223   4.139   0.793   3.436  0.1063 -0.2479 -0.8729
  325PHE     HC 4224   3.952   0.702   3.312  0.8474  1.2523  0.4391
  325PHE     HO 4225   3.772   0.547   3.331  0.0887 -1.4068 -0.2531
  326PHE     CO 4226   0.434   0.092   3.869 -0.0982 -0.3135  0.0899
  326PHE     CH 4227   0.573   0.091   3.856 -0.1070 -0.5308  0.0016
  326PHE     CH 4228   0.640   0.139   3.743 -0.2885 -0.7982 -0.2211
  326PHE     CH 4229   0.560   0.186   3.638 -0.6490  0.1077  0.4413
  326PHE     CH 4230   0.420   0.181   3.649 -0.7045  0.9289  0.1546
  326PHE     CH 4231   0.353   0.137   3.764 -0.0732 -0.3493  0.0547
  326PHE     OH 4232   0.375   0.045   3.982  0.0797 -0.1125  0.2655
  326PHE     HC 4233   0.637   0.049   3.932 -0.4616 -0.1195  0.5337
  326PHE     HC 4234   0.748   0.134   3.737 -0.1944  0.2674  0.3191
  326PHE     HC 4235   0.605   0.228   3.549 -1.9163 -2.1532 -1.3937
  326PHE     HC 4236   0.357   0.222   3.572 -1.2912 -0.1588  0.0430
  326PHE     HC 4237   0.245   0.145   3.770 -0.0551  2.2149 -1.5254
  326PHE     HO 4238   0.361   0.110   4.050 -2.1436  1.6030 -1.6520
  327PHE     CO 4239   3.435   0.441   3.564 -0.2983 -0.1865  0.2993
  327PHE     CH 4240   3.438   0.581   3.567  0.1601 -0.1855 -0.0314
  327PHE     CH 4241   3.341   0.641   3.649  0.4475 -0.1080  0.2531
  327PHE     CH 4242   3.255   0.565   3.729  0.3365 -0.0198  0.2175
  327PHE     CH 4243   3.256   0.425   3.723 -0.2205 -0.0654  1.0082
  327PHE     CH 4244   3.353   0.361   3.644 -0.7624  0.1456  0.1599
  327PHE     OH 4245   3.527   0.379   3.484  0.3825  1.0663  0.0818
  327PHE     HC 4246   3.503   0.641   3.504 -2.3011  3.0182  0.2056
  327PHE     HC 4247   3.333   0.747   3.635  0.3661 -0.2064 -0.5263
  327PHE     HC 4248   3.186   0.622   3.789  0.3242  0.3727 -0.1709
  327PHE     HC 4249   3.190   0.368   3.787  0.9473 -2.5243  0.1468
  327PHE     HC 4250   3.359   0.254   3.635 -0.0667  0.1907  0.0182
  327PHE     HO 4251   3.569   0.445   3.431 -0.6860  0.9020 -1.0119
  328PHE     CO 4252   1.373   4.756   2.848  0.3070  0.0864  0.0084
  328PHE     CH 4253   1.398   4.869   2.769 -0.4710 -0.3726 -0.9171
  328PHE     CH 4254   1.299   4.954   2.718 -0.2558  0.6562  0.3120
  328PHE     CH 4255   1.165   4.921   2.742 -0.1266 -0.1372 -0.0127
  328PHE     CH 4256   1.138   4.819   2.834  0.1718  0.6644  0.9781
  328PHE     CH 4257   1.239   4.736   2.883  0.2554  0.0507 -0.2114
  328PHE     OH 4258   1.478   4.682   2.893  0.5206  0.1575 -0.3678
  328PHE     HC 4259   1.504   4.884   2.753 -0.1454 -0.9345  0.5365
  328PHE     HC 4260   1.317   5.047   2.667  1.5696  1.1851  1.8155
  328PHE     HC 4261   1.084   4.983   2.705 -1.5429  0.4029  3.6249
  328PHE     HC 4262   1.032   4.800   2.845  0.7477 -1.6691  3.2926
  328PHE     HC 4263   1.213   4.651   2.944  1.1145 -1.0485 -1.3192
  328PHE     HO 4264   1.450   4.626   2.964  1.0454 -1.0229 -1.0595
  329PHE     CO 4265   1.980   1.337   2.701  0.0071  0.0937  0.2964
  329PHE     CH 4266   1.977   1.200   2.675 -0.0501  0.0526  0.5179
  329PHE     CH 4267   2.092   1.127   2.708 -0.1551 -0.7258 -0.7772
  329PHE     CH 4268   2.200   1.182   2.778 -1.0330 -0.5921  0.4859
  329PHE     CH 4269   2.192   1.316   2.817 -0.5612 -0.4729  0.1769
  329PHE     CH 4270   2.091   1.397   2.763  0.1475  0.2483 -0.0995
  329PHE     OH 4271   1.880   1.418   2.655  0.3244 -0.1986 -0.9232
  329PHE     HC 4272   1.898   1.153   2.618  0.1633 -0.5140  0.6786
  329PHE     HC 4273   2.100   1.028   2.666 -0.1012 -0.2150 -2.0278
  329PHE     HC 4274   2.280   1.113   2.799 -0.8245  0.3291  3.1427
  329PHE     HC 4275   2.266   1.364   2.880 -1.3537  0.2394  0.5920
  329PHE     HC 4276   2.089   1.501   2.792  1.4766  0.5120 -0.8843
  329PHE     HO 4277   1.893   1.511   2.664 -0.6160 -0.1398 -0.0412
  330PHE     CO 4278   1.499   0.901   4.320  0.1877  0.3421 -0.2013
  330PHE     CH 4279   1.584   0.977   4.402  0.0996  0.5369 -0.2904
  330PHE     CH 4280   1.612   0.924   4.528  0.0566 -0.2727 -0.6147
  330PHE     CH 4281   1.539   0.816   4.579 -0.0776  0.0321 -0.1472
  330PHE     CH 4282   1.445   0.747   4.501 -0.2193  0.2156 -0.1393
  330PHE     CH 4283   1.426   0.792   4.369  0.3287  0.2433 -0.2102
  330PHE     OH 4284   1.487   0.933   4.188 -0.1679  0.5845 -0.1097
  330PHE     HC 4285   1.627   1.071   4.368  1.5411 -0.3159 -0.9240
  330PHE     HC 4286   1.671   0.980   4.600 -0.6787 -1.3101  0.8584
  330PHE     HC 4287   1.555   0.781   4.679 -0.8096  1.2861  0.4346
  330PHE     HC 4288   1.396   0.660   4.543  1.5436  0.5346  2.8254
  330PHE     HC 4289   1.359   0.739   4.304  1.5323 -1.0557 -0.4446
  330PHE     HO 4290   1.397   0.916   4.163 -0.2675  0.3067  0.4126
  331PHE     CO 4291   1.159   1.277   4.289 -0.2115 -0.1011  0.1525
  331PHE     CH 4292   1.073   1.385   4.269  0.1699  0.1955  0.0998
  331PHE     CH 4293   1.009   1.441   4.381 -0.2128 -0.3299  0.1454
  331PHE     CH 4294   1.047   1.398   4.508  0.1279 -0.1870  0.0920
  331PHE     CH 4295   1.146   1.300   4.523  0.3312 -0.0202 -0.1651
  331PHE     CH 4296   1.210   1.239   4.415  0.9834  0.5572 -0.1160
  331PHE     OH 4297   1.206   1.215   4.177 -0.1281 -0.1247  0.2012
  331PHE     HC 4298   1.045   1.425   4.173 -0.4877  1.1537  0.6643
  331PHE     HC 4299   0.927   1.511   4.378 -1.8815 -1.9955  2.7363
  331PHE     HC 4300   0.995   1.426   4.599  1.4661 -1.0095  1.1554
  331PHE     HC 4301   1.182   1.263   4.618 -2.4950 -2.9046 -0.0720
  331PHE     HC 4302   1.276   1.155   4.431 -0.2531 -0.3137  0.6015
  331PHE     HO 4303   1.156   1.233   4.099 -1.6407 -1.8166  0.7126
  332PHE     CO 4304   4.297   4.832   3.237  0.6319 -0.1958 -0.0404
  332PHE     CH 4305   4.177   4.771   3.197  0.4762 -0.0003  0.1260
  332PHE     CH 4306   4.101   4.830   3.095  0.2839 -0.0482  0.2432
  332PHE     CH 4307   4.146   4.943   3.027  0.0664 -0.0592  0.0806
  332PHE     CH 4308   4.266   5.002   3.067  0.0489  0.1911 -0.2312
  332PHE     CH 4309   4.343   4.946   3.169 -0.0429 -0.0739 -0.3084
  332PHE     OH 4310   4.375   4.782   3.336 -0.0041 -0.3946  0.3686
  332PHE     HC 4311   4.128   4.686   3.242 -1.7390  0.8066 -0.6124
  332PHE     HC 4312   4.009   4.778   3.071  0.6601 -0.4569 -0.3297
  332PHE     HC 4313   4.101   4.980   2.936  1.5979 -0.9396 -1.0935
  332PHE     HC 4314   4.301   5.093   3.021  0.7077 -0.6821 -1.4953
  332PHE     HC 4315   4.437   4.989   3.200 -0.1437  0.6270 -0.9556
  332PHE     HO 4316   4.465   4.811   3.329 -0.1363  0.2826  1.3439
  333PHE     CO 4317   4.011   4.965   1.300 -0.1587  0.0918 -0.2174
  333PHE     CH 4318   3.936   4.978   1.182  0.4223  0.0265 -0.5988
  333PHE     CH 4319   3.961   5.080   1.090 -0.1631  0.2687 -0.4952
  333PHE     CH 4320   4.065   0.070   1.120  0.3334 -0.4065 -0.1654
  333PHE     CH 4321   4.144   0.057   1.235  0.2597 -0.3179 -0.1044
  333PHE     CH 4322   4.115   5.055   1.325 -0.1504 -0.0116  0.1124
  333PHE     OH 4323   3.984   4.863   1.387 -0.2715 -0.4136 -0.8352
  333PHE     HC 4324   3.854   4.911   1.159 -0.6188 -0.6152  3.9924
  333PHE     HC 4325   3.901   5.082   1.000 -3.6792 -2.4205  1.5497
  333PHE     HC 4326   4.075   0.146   1.045 -3.6587 -0.8618 -1.4113
  333PHE     HC 4327   4.227   0.125   1.249  1.1838 -0.6825 -2.9889
  333PHE     HC 4328   4.166   5.052   1.420 -2.4801  1.9790  1.5434
  333PHE     HO 4329   3.896   4.830   1.380 -0.7125  0.6874 -0.6863
  334PHE     CO 4330   2.199   0.708   0.868 -0.1775 -0.7206 -0.9284
  334PHE     CH 4331   2.083   0.759   0.809 -0.1785  0.3421 -0.0333
  334PHE     CH 4332   1.964   0.684   0.810 -0.0693  0.1697  0.5393
  334PHE     CH 4333   1.964   0.556   0.865  0.2117 -0.4768 -0.9121
  334PHE     CH 4334   2.077   0.516   0.938 -0.3743 -0.0007  0.2906
  334PHE     CH 4335   2.196   0.588   0.940 -0.3692 -0.0090  0.2660
  334PHE     OH 4336   2.312   0.783   0.878 -0.1781 -0.7863 -0.4376
  334PHE     HC 4337   2.088   0.855   0.760 -0.6341  0.1053 -0.5651
  334PHE     HC 4338   1.868   0.711   0.768 -0.2191 -1.2284 -0.0512
  334PHE     HC 4339   1.871   0.501   0.863 -0.2051  0.1935 -0.2981
  334PHE     HC 4340   2.073   0.422   0.991 -1.7958 -0.8158 -1.1602
  334PHE     HC 4341   2.287   0.549   0.983 -0.4322  0.2785  0.6638
  334PHE     HO 4342   2.299   0.877   0.870  0.8182 -0.3428  2.1528
  335PHE     CO 4343   1.919   3.489   2.642 -0.1520  0.2532  0.2163
  335PHE     CH 4344   1.893   3.552   2.520  0.0906 -0.2512 -0.0956
  335PHE     CH 4345   1.995   3.635   2.471  0.3744 -0.1937  0.5812
  335PHE     CH 4346   2.117   3.656   2.537  0.6152  0.2698  0.0019
  335PHE     CH 4347   2.138   3.586   2.657  0.0392  0.5100  0.2513
  335PHE     CH 4348   2.042   3.497   2.708 -0.1938  0.7535  0.2371
  335PHE     OH 4349   1.829   3.397   2.688 -0.1483  0.1562  0.0281
  335PHE     HC 4350   1.799   3.542   2.469 -0.1007 -2.6916  0.5996
  335PHE     HC 4351   1.974   3.691   2.381  0.5856  1.5566  1.5807
  335PHE     HC 4352   2.196   3.714   2.492  1.1333 -1.9851 -2.1717
  335PHE     HC 4353   2.236   3.603   2.699  1.3238 -2.3777 -1.2763
  335PHE     HC 4354   2.061   3.434   2.793 -2.9697 -2.3843 -1.2580
  335PHE     HO 4355   1.745   3.405   2.645 -0.1130 -0.2359 -0.1214
  336PHE     CO 4356   1.492   0.358   4.526  0.2757  0.3712 -0.1344
  336PHE     CH 4357   1.538   0.400   4.401  0.2268  0.7714 -0.0189
  336PHE     CH 4358   1.456   0.451   4.299  0.3456 -0.1156 -0.5665
  336PHE     CH 4359   1.318   0.447   4.323  0.4198 -0.3381 -0.1631
  336PHE     CH 4360   1.266   0.408   4.448 -0.2135 -0.0417 -0.3262
  336PHE     CH 4361   1.353   0.361   4.546  0.2592  0.8608 -0.2954
  336PHE     OH 4362   1.571   0.303   4.623 -0.4093 -0.8519 -0.2593
  336PHE     HC 4363   1.644   0.390   4.385  0.4957  1.8157  0.9886
  336PHE     HC 4364   1.493   0.480   4.202 -0.1982 -0.0801 -0.7669
  336PHE     HC 4365   1.252   0.481   4.245  0.0392  0.2877  0.4167
  336PHE     HC 4366   1.161   0.407   4.470  0.2377  0.1654  2.0973
  336PHE     HC 4367   1.309   0.327   4.639  0.9183  1.0861  0.1090
  336PHE     HO 4368   1.656   0.276   4.593 -1.0923  1.3285 -5.3150
  337PHE     CO 4369   1.290   1.667   1.509 -0.2500 -0.2182  0.1726
  337PHE     CH 4370   1.172   1.650   1.436 -0.2609 -0.2499  0.1972
  337PHE     CH 4371   1.066   1.740   1.449 -0.0757 -0.0391  0.2547
  337PHE     CH 4372   1.079   1.847   1.538  0.1977 -0.0526  0.2313
  337PHE     CH 4373   1.200   1.866   1.607  0.0521 -0.5030  0.6164
  337PHE     CH 4374   1.307   1.777   1.595  0.1700 -0.3074  0.2059
  337PHE     OH 4375   1.385   1.572   1.488  0.3980  0.3407  0.5189
  337PHE     HC 4376   1.164   1.562   1.374 -0.1557 -1.3105  1.6323
  337PHE     HC 4377   0.978   1.723   1.388  1.4469  0.6248 -2.3274
  337PHE     HC 4378   0.998   1.918   1.541 -1.9962 -2.3487 -0.7712
  337PHE     HC 4379   1.216   1.949   1.673  0.4081 -0.8818  1.0134
  337PHE     HC 4380   1.398   1.796   1.650  1.2680  0.9066 -1.9024
  337PHE     HO 4381   1.453   1.560   1.554  1.9243 -1.8869 -1.2954
  338PHE     CO 4382   1.393   5.026   1.445 -0.5826  0.5212  0.2023
  338PHE     CH 4383   1.352   5.068   1.572 -0.1220 -0.2628  0.6223
  338PHE     CH 4384   1.427   0.061   1.645 -0.6652  0.7095 -0.0262
  338PHE     CH 4385   1.546   0.106   1.586 -0.7813 -0.1122 -0.9152
  338PHE     CH 4386   1.584   0.070   1.456  0.8052 -0.2817 -0.4250
  338PHE     CH 4387   1.508   5.077   1.385 -0.2128 -0.0925  0.3786
  338PHE     OH 4388   1.315   4.933   1.382  0.3123 -0.2873  0.2532
  338PHE     HC 4389   1.256   5.030   1.606 -0.4289 -0.9506 -0.9551
  338PHE     HC 4390   1.392   0.110   1.734  0.2093  1.0250  0.1545
  338PHE     HC 4391   1.597   0.179   1.647 -3.0700  0.5619  0.3221
  338PHE     HC 4392   1.668   0.124   1.414  0.2840  0.8455 -0.0785
  338PHE     HC 4393   1.527   5.048   1.282 -0.9642 -2.1537  0.7625
  338PHE     HO 4394   1.359   4.895   1.308 -1.4215 -1.8702 -0.0266
  339PHE     CO 4395   4.909   4.496   0.203 -0.5852  0.1970  0.2976
  339PHE     CH 4396   4.983   4.393   0.264 -0.5948  0.0825  0.1161
  339PHE     CH 4397   5.027   4.399   0.396  0.0216  0.2986 -0.0972
  339PHE     CH 4398   5.017   4.524   0.457 -0.1561  0.2236  0.0266
  339PHE     CH 4399   4.932   4.624   0.407 -0.4580 -0.0612 -0.0295
  339PHE     CH 4400   4.885   4.613   0.276  0.3335  0.8277 -0.3940
  339PHE     OH 4401   4.861   4.471   0.078  0.2005 -0.1029  0.0495
  339PHE     HC 4402   4.994   4.300   0.210 -1.5043  0.2718 -0.4233
  339PHE     HC 4403   5.068   4.312   0.445  0.6022  0.8928  0.4928
  339PHE     HC 4404   5.057   4.530   0.557  2.0696 -1.7719 -0.6643
  339PHE     HC 4405   4.905   4.708   0.469 -3.2168 -0.3391 -0.6931
  339PHE     HC 4406   4.823   4.692   0.237  0.1502  1.4862  1.1868
  339PHE     HO 4407   4.775   4.509   0.074  0.0252 -0.2817  1.6505
  340PHE     CO 4408   4.752   4.649   2.529 -0.1779  0.0197  0.0170
  340PHE     CH 4409   4.709   4.754   2.612  0.5266  0.3596 -0.0414
  340PHE     CH 4410   4.648   4.728   2.735  0.2719  0.1972 -0.2026
  340PHE     CH 4411   4.634   4.594   2.774  0.0663  0.2406 -0.1258
  340PHE     CH 4412   4.667   4.490   2.687 -0.3777 -0.1787  0.1983
  340PHE     CH 4413   4.731   4.516   2.564  0.4932  0.0824  0.6938
  340PHE     OH 4414   4.822   4.665   2.413  0.5476  0.0682  0.4548
  340PHE     HC 4415   4.718   4.857   2.583  1.2259 -0.0494 -1.3474
  340PHE     HC 4416   4.598   4.807   2.790 -0.6039 -0.1707 -0.4561
  340PHE     HC 4417   4.589   4.576   2.870  0.5525 -0.2525  0.0108
  340PHE     HC 4418   4.650   4.384   2.699 -1.4316 -0.0939 -0.4325
  340PHE     HC 4419   4.769   4.447   2.490  1.3236  1.3532 -0.0842
  340PHE     HO 4420   4.852   4.755   2.407  0.9911  0.0463  1.9703
  341PHE     CO 4421   2.549   0.508   0.059 -0.1423 -0.1297 -0.2414
  341PHE     CH 4422   2.466   0.600   0.124  0.1100 -0.3401  0.3804
  341PHE     CH 4423   2.478   0.621   0.262  0.3112  0.6102  0.2262
  341PHE     CH 4424   2.583   0.565   0.335  0.0689 -0.0282  0.0871
  341PHE     CH 4425   2.676   0.484   0.268 -0.1089 -0.5250  0.4310
  341PHE     CH 4426   2.652   0.451   0.134 -0.4878  0.0320  0.3581
  341PHE     OH 4427   2.521   0.480   5.028 -0.0296  0.6553 -0.4413
  341PHE     HC 4428   2.386   0.648   0.070 -1.4657 -0.9675  2.0648
  341PHE     HC 4429   2.411   0.689   0.313  1.6900  0.4713  2.3409
  341PHE     HC 4430   2.592   0.597   0.438  0.4204  1.2781 -0.3349
  341PHE     HC 4431   2.765   0.445   0.315 -0.1732 -2.2111 -0.7502
  341PHE     HC 4432   2.715   0.379   0.084 -0.7143 -0.8051  1.2331
  341PHE     HO 4433   2.598   0.455   4.979  1.2088  0.1621  1.6125
  342PHE     CO 4434   1.416   4.642   4.783 -0.1311 -0.0746  0.3290
  342PHE     CH 4435   1.556   4.645   4.781 -0.1506  0.8798 -0.3593
  342PHE     CH 4436   1.620   4.727   4.874 -0.0878  0.4754 -0.0444
  342PHE     CH 4437   1.548   4.806   4.965  0.0392  0.2862  0.2237
  342PHE     CH 4438   1.409   4.813   4.950  0.0636  0.7184  0.2007
  342PHE     CH 4439   1.341   4.734   4.857  0.2776  0.0413  0.6076
  342PHE     OH 4440   1.347   4.542   4.722  0.1744 -0.1649  0.1302
  342PHE     HC 4441   1.609   4.565   4.730 -1.2086 -0.8657  1.1508
  342PHE     HC 4442   1.728   4.726   4.869 -0.1292  0.7261 -1.1350
  342PHE     HC 4443   1.606   4.868   5.031  1.3021 -1.0573  0.4308
  342PHE     HC 4444   1.357   4.871   5.026 -0.8338  0.6719 -0.3600
  342PHE     HC 4445   1.233   4.729   4.853  0.3130 -1.4915  0.9911
  342PHE     HO 4446   1.397   4.492   4.659  0.9818  2.3480 -1.3828
  343PHE     CO 4447   1.659   1.658   2.007 -0.0174 -0.1943  0.1323
  343PHE     CH 4448   1.537   1.590   2.004 -0.0300 -0.1408 -0.7932
  343PHE     CH 4449   1.426   1.661   1.957 -0.1272 -0.1999 -0.6539
  343PHE     CH 4450   1.434   1.796   1.921  0.0655 -0.1836 -0.5516
  343PHE     CH 4451   1.558   1.862   1.927  0.0096 -0.1486  0.3118
  343PHE     CH 4452   1.670   1.794   1.978  0.1749 -0.2829 -0.2224
  343PHE     OH 4453   1.768   1.588   2.051 -0.0639 -0.2257  0.1990
  343PHE     HC 4454   1.529   1.487   2.035 -3.9475 -0.3251 -1.8470
  343PHE     HC 4455   1.335   1.603   1.962  2.2452 -4.2538 -0.3882
  343PHE     HC 4456   1.345   1.846   1.887 -0.6147 -0.2511  1.0628
  343PHE     HC 4457   1.553   1.966   1.899  1.7246  0.0747  0.6850
  343PHE     HC 4458   1.766   1.842   1.991  0.2315 -0.5328  0.2968
  343PHE     HO 4459   1.740   1.503   2.079  0.3490  0.3831  2.7378
  344PHE     CO 4460   1.675   2.736   2.181 -0.2080  0.1779 -0.6083
  344PHE     CH 4461   1.541   2.768   2.203 -0.3777 -0.9700  0.1369
  344PHE     CH 4462   1.481   2.869   2.127  0.4662 -0.1845  0.4993
  344PHE     CH 4463   1.553   2.926   2.022 -0.6515  0.8033  0.2381
  344PHE     CH 4464   1.688   2.895   1.999 -0.7943  0.1906  0.1974
  344PHE     CH 4465   1.750   2.802   2.083  0.0860  0.3307 -0.2818
  344PHE     OH 4466   1.736   2.639   2.256  0.0438  0.9117  0.1396
  344PHE     HC 4467   1.476   2.730   2.281  0.0372 -1.8778  0.0452
  344PHE     HC 4468   1.380   2.907   2.135  0.4925  0.1263 -0.5293
  344PHE     HC 4469   1.504   2.983   1.944 -1.6003 -4.0546 -3.2657
  344PHE     HC 4470   1.744   2.941   1.919 -0.0625  0.7743  1.0219
  344PHE     HC 4471   1.851   2.774   2.059 -1.0773 -1.0865 -4.3920
  344PHE     HO 4472   1.674   2.584   2.302 -0.9692  0.4138 -1.7370
  345PHE     CO 4473   1.540   2.855   3.101  0.4051 -0.5971  0.2230
  345PHE     CH 4474   1.635   2.775   3.037  0.7356  0.0460 -0.0995
  345PHE     CH 4475   1.597   2.661   2.964 -0.4984  0.2987  0.1344
  345PHE     CH 4476   1.462   2.627   2.953 -0.5933  0.6686  0.1524
  345PHE     CH 4477   1.365   2.703   3.022 -0.4100 -0.3435  1.5748
  345PHE     CH 4478   1.406   2.818   3.090  0.1882  0.1076  0.4850
  345PHE     OH 4479   1.569   2.971   3.167 -0.8077  0.1787 -0.5948
  345PHE     HC 4480   1.738   2.809   3.034  0.0569  2.2137 -0.2763
  345PHE     HC 4481   1.665   2.598   2.909 -1.0367 -0.0928 -0.0804
  345PHE     HC 4482   1.431   2.534   2.910 -1.7801  1.6093 -1.1234
  345PHE     HC 4483   1.259   2.686   3.014 -0.7130  1.5418  0.9425
  345PHE     HC 4484   1.330   2.879   3.137 -0.9849 -1.6729  1.0085
  345PHE     HO 4485   1.653   3.011   3.149  0.0095  0.3074  2.9216
  346PHE     CO 4486   1.180   4.446   0.141  0.0035  0.2726 -0.2600
  346PHE     CH 4487   1.247   4.438   0.019  0.1161  0.0527 -0.1827
  346PHE     CH 4488   1.373   4.497   0.005  0.3151 -0.4240 -0.4338
  346PHE     CH 4489   1.434   4.564   0.112 -0.0425 -0.8510  0.0400
  346PHE     CH 4490   1.364   4.570   0.233 -0.3662  0.2773 -0.1890
  346PHE     CH 4491   1.239   4.510   0.251 -0.1857 -0.0417  0.0268
  346PHE     OH 4492   1.059   4.384   0.154  0.1319  0.1126  0.1737
  346PHE     HC 4493   1.203   4.370   5.047  0.1753  1.1370 -1.2549
  346PHE     HC 4494   1.421   4.465   5.013 -0.5470 -0.9191 -0.7227
  346PHE     HC 4495   1.533   4.607   0.108  0.5104 -2.0887 -0.2169
  346PHE     HC 4496   1.406   4.616   0.321 -1.3680 -1.0930  1.0556
  346PHE     HC 4497   1.192   4.515   0.348  0.2905 -1.0910  0.3236
  346PHE     HO 4498   1.031   4.377   0.244 -0.9352 -0.0511 -0.1536
  347PHE     CO 4499   2.215   4.587   4.157  0.5887 -0.0004 -0.1320
  347PHE     CH 4500   2.310   4.485   4.169  0.3474 -0.2202 -0.0743
  347PHE     CH 4501   2.347   4.419   4.051 -0.0746 -0.1924 -0.2214
  347PHE     CH 4502   2.303   4.462   3.925  0.2611 -0.6003 -0.4796
  347PHE     CH 4503   2.209   4.565   3.916  0.2604 -0.5588 -0.0255
  347PHE     CH 4504   2.167   4.629   4.033  0.4599 -0.1993 -0.1495
  347PHE     OH 4505   2.180   4.651   4.272 -0.4719  0.2142 -0.5686
  347PHE     HC 4506   2.357   4.461   4.263 -1.8929  0.7890  1.3730
  347PHE     HC 4507   2.420   4.339   4.054  0.6878  0.4114 -1.6949
  347PHE     HC 4508   2.348   4.423   3.834  1.7540  0.7607 -0.3665
  347PHE     HC 4509   2.169   4.607   3.825 -0.6546 -1.0557  0.1290
  347PHE     HC 4510   2.105   4.717   4.021  1.3142  0.1549 -2.4508
  347PHE     HO 4511   2.104   4.705   4.254 -3.3456 -3.4401 -0.7629
  348PHE     CO 4512   3.151   0.460   3.050  0.1006 -0.2914  0.1933
  348PHE     CH 4513   3.097   0.357   3.128 -0.1173 -0.0435  0.3714
  348PHE     CH 4514   3.124   0.357   3.266 -0.0017  1.0420  0.3551
  348PHE     CH 4515   3.196   0.460   3.327 -0.0979  0.7994  0.8802
  348PHE     CH 4516   3.248   0.562   3.246  0.2650  0.0000  0.0882
  348PHE     CH 4517   3.231   0.559   3.107  0.1272 -0.2651  0.1098
  348PHE     OH 4518   3.124   0.473   2.917  0.2625  0.1513  0.2024
  348PHE     HC 4519   3.026   0.286   3.088 -0.3464 -0.5837  1.6703
  348PHE     HC 4520   3.080   0.285   3.333  1.0425  1.9117  2.0128
  348PHE     HC 4521   3.195   0.467   3.435 -1.2060 -0.0075  0.9380
  348PHE     HC 4522   3.282   0.655   3.290 -0.8098  0.4178  0.0669
  348PHE     HC 4523   3.275   0.635   3.044  0.7224 -0.5256  0.2048
  348PHE     HO 4524   3.147   0.559   2.886  0.0360  0.3378  0.5529
  349PHE     CO 4525   2.799   4.659   0.331  0.6529 -0.2867  0.0836
  349PHE     CH 4526   2.683   4.585   0.303  0.3122  0.1793  0.2596
  349PHE     CH 4527   2.617   4.520   0.408  0.2936  0.0896  0.1928
  349PHE     CH 4528   2.668   4.529   0.538  0.1864  0.4219  0.2133
  349PHE     CH 4529   2.783   4.605   0.566  0.8202 -0.6118  0.4640
  349PHE     CH 4530   2.853   4.666   0.460 -0.0674  0.2416  0.3588
  349PHE     OH 4531   2.866   4.703   0.221 -0.2481  0.1608 -0.2922
  349PHE     HC 4532   2.658   4.571   0.199 -1.2097 -0.2453  0.6683
  349PHE     HC 4533   2.527   4.466   0.388 -0.8049  1.5947  0.8609
  349PHE     HC 4534   2.630   4.469   0.620 -1.7148 -1.0474 -1.6431
  349PHE     HC 4535   2.825   4.608   0.665  0.8865  0.6389  0.4140
  349PHE     HC 4536   2.949   4.712   0.472  0.4750 -0.9946  1.0350
  349PHE     HO 4537   2.956   4.723   0.243 -0.2030  2.6950 -2.2995
  350PHE     CO 4538   4.086   0.270   0.748 -0.3530  0.0265 -0.0668
  350PHE     CH 4539   4.190   0.363   0.759 -0.0842 -0.2675 -0.1139
  350PHE     CH 4540   4.183   0.455   0.865 -0.5044 -0.0060 -0.3703
  350PHE     CH 4541   4.074   0.451   0.953 -0.0978  0.0235  0.1325
  350PHE     CH 4542   3.964   0.368   0.933 -0.1389  0.1882 -0.3307
  350PHE     CH 4543   3.975   0.270   0.833 -0.0862 -0.4591  0.2944
  350PHE     OH 4544   4.084   0.176   0.649  0.2786  0.0310 -0.0880
  350PHE     HC 4545   4.273   0.355   0.691 -1.8514  1.0702 -2.5714
  350PHE     HC 4546   4.263   0.525   0.883 -0.7497  0.2758 -0.3741
  350PHE     HC 4547   4.082   0.532   1.025 -0.8539  0.6084 -0.4322
  350PHE     HC 4548   3.876   0.368   0.995 -1.6473 -1.0316 -2.3344
  350PHE     HC 4549   3.898   0.200   0.804 -0.1013  0.8447 -3.4275
  350PHE     HO 4550   4.140   0.204   0.578 -1.0839  1.3352 -0.7064
  351PHE     CO 4551   2.211   4.757   4.593 -0.2444 -0.0077 -0.0940
  351PHE     CH 4552   2.240   4.880   4.653 -0.1189 -0.1747  0.1872
  351PHE     CH 4553   2.154   4.936   4.749 -0.0109 -0.4881  0.4665
  351PHE     CH 4554   2.027   4.881   4.769 -0.1712 -0.1213  0.4627
  351PHE     CH 4555   1.988   4.767   4.696 -0.3321  0.2410 -0.0263
  351PHE     CH 4556   2.084   4.703   4.617 -0.1163 -0.0533  0.4715
  351PHE     OH 4557   2.300   4.690   4.514  0.2642  0.6265 -0.0671
  351PHE     HC 4558   2.330   4.936   4.632  0.0589 -0.3977  0.3532
  351PHE     HC 4559   2.195   5.021   4.801  0.9018  0.5945 -1.8553
  351PHE     HC 4560   1.968   4.923   4.848  0.7390  0.8413  0.6474
  351PHE     HC 4561   1.893   4.719   4.714 -0.1113  0.0677  0.7443
  351PHE     HC 4562   2.055   4.617   4.559 -2.9939 -0.7645  2.6818
  351PHE     HO 4563   2.252   4.655   4.441 -1.2373 -0.4185  1.3486
  352PHE     CO 4564   3.844   0.184   3.599 -0.2696 -0.5630 -0.0181
  352PHE     CH 4565   3.973   0.139   3.627 -0.2547 -0.1887  0.5284
  352PHE     CH 4566   4.023   0.137   3.757 -0.0649  0.6221  0.4710
  352PHE     CH 4567   3.937   0.178   3.860  0.0377  0.8653  0.4613
  352PHE     CH 4568   3.811   0.233   3.831 -0.1676  0.1614 -0.0053
  352PHE     CH 4569   3.764   0.240   3.699 -0.0984 -0.2548 -0.0533
  352PHE     OH 4570   3.803   0.190   3.469 -0.5843 -0.2471  0.0940
  352PHE     HC 4571   4.031   0.121   3.537 -0.3364  0.0373  0.4303
  352PHE     HC 4572   4.117   0.087   3.776  0.8476  1.8142 -0.7239
  352PHE     HC 4573   3.969   0.172   3.963 -3.6428  1.6479  1.8173
  352PHE     HC 4574   3.750   0.263   3.915  1.6120 -0.7408  1.7134
  352PHE     HC 4575   3.664   0.279   3.695  0.2465  0.9862  1.7948
  352PHE     HO 4576   3.718   0.231   3.462 -1.2863 -1.6944 -0.1543
  353PHE     CO 4577   1.038   1.429   5.021 -0.1561 -0.5724  0.2449
  353PHE     CH 4578   0.933   1.494   4.955  0.1233 -0.5954 -0.2247
  353PHE     CH 4579   0.966   1.600   4.870 -0.5274 -0.1949  0.0175
  353PHE     CH 4580   1.100   1.630   4.844 -0.5408 -0.2051 -0.0647
  353PHE     CH 4581   1.204   1.553   4.897 -0.1205  0.1935 -0.3020
  353PHE     CH 4582   1.171   1.446   4.982 -0.4088  0.3161 -0.2571
  353PHE     OH 4583   1.012   1.332   0.012 -0.5674 -0.0863  0.6558
  353PHE     HC 4584   0.829   1.468   4.965 -0.5929  1.7395 -0.9794
  353PHE     HC 4585   0.886   1.662   4.831  0.1963  0.7992  0.0835
  353PHE     HC 4586   1.129   1.714   4.783 -0.9850 -0.6042 -0.8439
  353PHE     HC 4587   1.305   1.578   4.869  0.2542 -1.5226 -0.6114
  353PHE     HC 4588   1.244   1.378   5.023 -2.5074 -0.6576  2.0706
  353PHE     HO 4589   0.921   1.305   0.011 -0.3789 -0.8522  1.6995
  354PHE     CO 4590   2.205   1.529   3.294  0.3416  0.0569 -0.3416
  354PHE     CH 4591   2.158   1.587   3.412  0.4389 -0.1822 -0.1839
  354PHE     CH 4592   2.037   1.657   3.404  0.2075 -0.5416  0.0987
  354PHE     CH 4593   1.979   1.685   3.279  0.5407 -0.1257  0.0332
  354PHE     CH 4594   2.026   1.637   3.157 -0.5362  0.0161 -0.4536
  354PHE     CH 4595   2.135   1.550   3.175 -0.1918  0.5418  0.0558
  354PHE     OH 4596   2.321   1.457   3.287  0.2754 -0.0645 -0.1978
  354PHE     HC 4597   2.201   1.577   3.510 -1.1641  1.7135  0.7862
  354PHE     HC 4598   1.994   1.696   3.495 -0.7070  0.1349 -0.6059
  354PHE     HC 4599   1.888   1.744   3.284 -0.5881 -1.8799  2.2459
  354PHE     HC 4600   1.983   1.655   3.060 -0.3666 -0.5216 -0.6326
  354PHE     HC 4601   2.173   1.502   3.086 -2.7591 -3.0188  0.6507
  354PHE     HO 4602   2.322   1.381   3.231  3.1090 -0.5925  0.4138
  355PHE     CO 4603   1.954   0.287   1.760  0.5123 -0.0831 -0.0058
  355PHE     CH 4604   1.972   0.157   1.711 -0.2677 -0.1486 -0.1327
  355PHE     CH 4605   2.049   0.067   1.785  0.7039  0.5945 -0.2139
  355PHE     CH 4606   2.098   0.102   1.911 -0.3981 -0.3702  0.4945
  355PHE     CH 4607   2.083   0.231   1.962  0.5433 -0.0382 -0.0479
  355PHE     CH 4608   2.019   0.324   1.878 -0.2230 -0.1278  0.4213
  355PHE     OH 4609   1.887   0.385   1.693 -0.1545 -0.0467  0.7020
  355PHE     HC 4610   1.922   0.127   1.620 -1.4737  0.8193  0.1733
  355PHE     HC 4611   2.062   5.064   1.753  0.0267 -0.3194  2.2487
  355PHE     HC 4612   2.148   0.030   1.974  2.1567  1.0312  0.1722
  355PHE     HC 4613   2.125   0.268   2.054 -0.3179  0.4410  0.1700
  355PHE     HC 4614   2.020   0.426   1.915  0.8869 -0.3192  0.9825
  355PHE     HO 4615   1.883   0.462   1.748  0.2745 -0.5709  1.4782
  356PHE     CO 4616   1.849   4.870   4.272  0.1968  0.0821 -0.2138
  356PHE     CH 4617   1.726   4.855   4.206 -0.3096  0.6957  0.5638
  356PHE     CH 4618   1.605   4.824   4.270 -0.5222  0.1058 -0.1078
  356PHE     CH 4619   1.612   4.810   4.409 -0.2349  0.1702 -0.1150
  356PHE     CH 4620   1.731   4.816   4.483 -0.5175 -0.0327  0.3575
  356PHE     CH 4621   1.845   4.854   4.411 -0.7245 -0.6690 -0.3186
  356PHE     OH 4622   1.964   4.898   4.205  0.2114  0.2215 -0.1310
  356PHE     HC 4623   1.724   4.860   4.099  2.4723 -0.4434  0.3647
  356PHE     HC 4624   1.510   4.816   4.220 -2.0158  3.1187  1.9574
  356PHE     HC 4625   1.519   4.799   4.463  1.3565 -2.1272  2.4186
  356PHE     HC 4626   1.726   4.827   4.591 -1.4544  2.1956  0.1422
  356PHE     HC 4627   1.940   4.870   4.459  0.2587 -1.4137 -1.9571
  356PHE     HO 4628   1.930   4.955   4.138  0.7606 -0.8030 -1.3251
  357PHE     CO 4629   1.324   0.830   2.109  0.7237  0.2553 -0.2470
  357PHE     CH 4630   1.411   0.928   2.060  0.5536  0.2245 -0.6191
  357PHE     CH 4631   1.390   1.062   2.094  0.0588  0.0819 -0.3530
  357PHE     CH 4632   1.289   1.085   2.189  0.2397 -0.0245 -0.1327
  357PHE     CH 4633   1.199   0.989   2.234  0.8883 -0.3155  0.5690
  357PHE     CH 4634   1.220   0.855   2.198  0.5536 -0.1341 -0.3334
  357PHE     OH 4635   1.342   0.701   2.068 -0.1395 -0.0452  0.2920
  357PHE     HC 4636   1.492   0.888   2.001 -0.2245  0.4382 -1.8468
  357PHE     HC 4637   1.441   1.155   2.073 -1.0809  1.3625  2.0808
  357PHE     HC 4638   1.284   1.189   2.219 -3.8560  0.4466 -1.7557
  357PHE     HC 4639   1.119   1.016   2.302  0.8541 -0.1100  0.4478
  357PHE     HC 4640   1.166   0.772   2.241  1.4032  0.3676  1.8450
  357PHE     HO 4641   1.264   0.652   2.088 -0.0708  0.2824  1.3980
  358PHE     CO 4642   1.627   1.459   1.668  0.3724 -0.0135  0.0410
  358PHE     CH 4643   1.754   1.400   1.662  0.2505 -0.2735 -0.0139
  358PHE     CH 4644   1.770   1.265   1.697  0.2835 -0.3411 -0.2841
  358PHE     CH 4645   1.659   1.193   1.743  0.3154 -0.1951  0.0258
  358PHE     CH 4646   1.532   1.253   1.745  0.1943 -0.4604  0.5393
  358PHE     CH 4647   1.514   1.386   1.707  0.6062 -0.6879 -0.5062
  358PHE     OH 4648   1.615   1.591   1.635  0.5158 -0.0703 -0.2416
  358PHE     HC 4649   1.840   1.455   1.626  1.4413 -3.2292 -2.0998
  358PHE     HC 4650   1.864   1.217   1.674  0.6117  0.7616 -1.3809
  358PHE     HC 4651   1.661   1.091   1.777 -1.5597 -0.5236 -0.7188
  358PHE     HC 4652   1.443   1.208   1.788 -1.0445 -0.7968 -2.1384
  358PHE     HC 4653   1.420   1.439   1.719  2.1235  1.6723  2.2627
  358PHE     HO 4654   1.693   1.632   1.600  0.2314  1.6991  1.1133
  359PHE     CO 4655   2.122   1.613   2.055 -0.9480 -0.5999  0.5579
  359PHE     CH 4656   2.248   1.552   2.051 -0.6596 -0.0247  0.6513
  359PHE     CH 4657   2.314   1.534   2.173  0.0937 -0.4524  0.1867
  359PHE     CH 4658   2.259   1.576   2.295 -0.1906 -0.4777  0.0696
  359PHE     CH 4659   2.135   1.641   2.294  0.0470 -0.0199 -0.0857
  359PHE     CH 4660   2.064   1.657   2.175 -0.9648 -0.3603  0.4628
  359PHE     OH 4661   2.042   1.625   1.945  0.1806 -0.3890 -0.2576
  359PHE     HC 4662   2.298   1.526   1.959 -1.7717 -3.1625  0.8275
  359PHE     HC 4663   2.413   1.493   2.163 -0.1563 -0.9581 -0.3340
  359PHE     HC 4664   2.313   1.564   2.388 -2.9614  1.2287  2.0480
  359PHE     HC 4665   2.105   1.686   2.387  2.8162  2.3886 -0.2048
  359PHE     HC 4666   1.969   1.709   2.181 -0.7564 -0.0038  0.7256
  359PHE     HO 4667   1.956   1.591   1.964 -0.0290  0.0162 -0.4600
  360PHE     CO 4668   2.628   1.536   3.555  0.0541 -0.4945  0.0057
  360PHE     CH 4669   2.748   1.495   3.614  0.4982  0.7357 -0.0283
  360PHE     CH 4670   2.772   1.533   3.747  0.2773  0.7144  0.0182
  360PHE     CH 4671   2.686   1.616   3.818 -0.1334  0.5726 -0.3107
  360PHE     CH 4672   2.568   1.663   3.757 -0.4461  0.0464 -0.1207
  360PHE     CH 4673   2.539   1.615   3.629  0.3353  0.1434 -0.3403
  360PHE     OH 4674   2.591   1.498   3.430  0.0823  0.1519 -0.2003
  360PHE     HC 4675   2.813   1.424   3.566  0.2380 -1.2453  2.3360
  360PHE     HC 4676   2.869   1.513   3.790 -0.3644 -0.7406  0.8513
  360PHE     HC 4677   2.705   1.655   3.917 -0.6216  1.6387 -0.6175
  360PHE     HC 4678   2.495   1.723   3.809 -1.3592 -0.3163 -0.9638
  360PHE     HC 4679   2.455   1.656   3.574  0.0844  0.7383  0.4698
  360PHE     HO 4680   2.497   1.505   3.423  0.1194  0.5149 -0.3919
  361PHE     CO 4681   1.966   4.329   4.533  0.3887 -0.0290  0.5105
  361PHE     CH 4682   2.038   4.316   4.414 -1.1036 -0.5947 -0.3687
  361PHE     CH 4683   1.993   4.380   4.298 -0.1304  0.7308 -0.0432
  361PHE     CH 4684   1.868   4.443   4.297  0.0409  1.0741 -0.0520
  361PHE     CH 4685   1.797   4.458   4.418  0.3561  0.1856  0.2457
  361PHE     CH 4686   1.843   4.396   4.535  0.2078 -0.3382  0.0325
  361PHE     OH 4687   2.013   4.269   4.646 -0.3529  0.5599  1.1494
  361PHE     HC 4688   2.134   4.267   4.410 -0.1793  0.8717  1.8937
  361PHE     HC 4689   2.045   4.388   4.204 -1.1219  0.7323 -0.6065
  361PHE     HC 4690   1.810   4.484   4.215  0.1874 -1.4066 -1.4593
  361PHE     HC 4691   1.701   4.506   4.419 -0.0580 -0.6305  0.4102
  361PHE     HC 4692   1.780   4.394   4.622  0.5481 -0.7393  0.2740
  361PHE     HO 4693   2.103   4.239   4.647  0.0875  1.3196 -2.2459
  362PHE     CO 4694   3.179   5.003   1.870  0.0070 -0.3857 -0.6415
  362PHE     CH 4695   3.055   5.066   1.849  0.0532 -0.1472 -0.2114
  362PHE     CH 4696   2.967   5.017   1.752 -0.2430  0.2548 -0.1465
  362PHE     CH 4697   2.996   4.897   1.686 -0.2379  0.1308  0.0826
  362PHE     CH 4698   3.114   4.828   1.714 -0.4011 -0.1699  0.0318
  362PHE     CH 4699   3.210   4.889   1.795  0.0597 -0.7585 -0.0585
  362PHE     OH 4700   3.272   5.047   1.960 -0.1363 -0.0719 -0.6454
  362PHE     HC 4701   3.039   0.057   1.905 -0.3159 -0.3812  0.0677
  362PHE     HC 4702   2.878   5.076   1.740  0.6677  1.2657 -2.5192
  362PHE     HC 4703   2.928   4.845   1.621 -2.6515  2.3991  0.6090
  362PHE     HC 4704   3.140   4.734   1.666 -0.2898 -0.1483  0.0504
  362PHE     HC 4705   3.309   4.849   1.812 -0.2878 -0.3215  4.0181
  362PHE     HO 4706   3.249   0.031   1.996 -1.5347  1.0888 -3.8268
  363PHE     CO 4707   0.593   3.642   2.095  0.7416  0.3060 -0.0025
  363PHE     CH 4708   0.699   3.570   2.040  0.4416 -0.0096 -0.1695
  363PHE     CH 4709   0.823   3.584   2.103  0.2339 -0.3992  0.3297
  363PHE     CH 4710   0.835   3.639   2.231  0.2378 -0.0301  0.1721
  363PHE     CH 4711   0.724   3.702   2.288  0.1295 -0.0969  0.0373
  363PHE     CH 4712   0.603   3.708   2.218  0.0575  0.0901  0.1763
  363PHE     OH 4713   0.479   3.679   2.029  0.6522 -0.2000 -0.1330
  363PHE     HC 4714   0.688   3.521   1.944 -1.6016 -0.1077  0.0607
  363PHE     HC 4715   0.915   3.541   2.067 -0.0001  0.2969 -1.1673
  363PHE     HC 4716   0.929   3.643   2.285  1.3671  2.9950 -1.7680
  363PHE     HC 4717   0.739   3.753   2.382  5.0993 -0.3988 -0.3056
  363PHE     HC 4718   0.519   3.758   2.264 -0.8512 -0.5766 -0.7226
  363PHE     HO 4719   0.441   3.623   1.963  0.9092 -0.3120 -0.1901
  364PHE     CO 4720   1.706   1.230   1.063 -0.5856 -0.5830  0.2201
  364PHE     CH 4721   1.569   1.249   1.041 -0.6497 -0.7223  0.4936
  364PHE     CH 4722   1.495   1.326   1.131 -0.0200 -0.1810  0.5541
  364PHE     CH 4723   1.549   1.372   1.252 -0.0997  0.6438  0.2806
  364PHE     CH 4724   1.687   1.357   1.269 -0.0167  0.3060 -0.6335
  364PHE     CH 4725   1.766   1.292   1.173  0.0117  0.1907 -0.5318
  364PHE     OH 4726   1.773   1.151   0.974 -0.2711  0.1890 -0.2355
  364PHE     HC 4727   1.522   1.196   0.959  1.1415  0.2423 -1.2396
  364PHE     HC 4728   1.391   1.352   1.122  0.3829  2.3249  2.1414
  364PHE     HC 4729   1.484   1.420   1.324 -0.3051  1.1830 -0.2542
  364PHE     HC 4730   1.728   1.399   1.359 -0.1891  0.8494 -0.8047
  364PHE     HC 4731   1.870   1.270   1.189  0.2670  1.3987 -0.3821
  364PHE     HO 4732   1.716   1.130   0.902 -3.0861  1.1896  1.5317
  365PHE     CO 4733   4.585   0.657   4.992  0.1703  0.0057 -0.2223
  365PHE     CH 4734   4.468   0.661   4.915 -0.0549  0.6384  0.1409
  365PHE     CH 4735   4.443   0.770   4.832 -0.2861  0.7858  0.4050
  365PHE     CH 4736   4.535   0.875   4.822  0.0209  0.4031 -0.8694
  365PHE     CH 4737   4.650   0.870   4.902 -0.8686  0.6860  0.4440
  365PHE     CH 4738   4.681   0.758   4.979 -0.1695  0.3162 -0.3653
  365PHE     OH 4739   4.602   0.551   5.076  0.1125  0.1478 -0.0285
  365PHE     HC 4740   4.393   0.583   4.922  1.6123 -1.2818 -1.8511
  365PHE     HC 4741   4.350   0.771   4.778  0.1598  0.6912 -0.3771
  365PHE     HC 4742   4.505   0.955   4.756  0.3978  0.3567 -1.1014
  365PHE     HC 4743   4.720   0.951   4.908 -1.5350  1.3435 -0.3652
  365PHE     HC 4744   4.775   0.754   5.033 -0.9376  1.8248  1.1728
  365PHE     HO 4745   4.536   0.485   5.058 -1.4048  1.1079  1.6711
  366PHE     CO 4746   2.110   1.515   1.447  0.0191 -0.5815 -0.3523
  366PHE     CH 4747   2.100   1.405   1.360  0.0401 -0.4999 -0.4574
  366PHE     CH 4748   2.128   1.279   1.414  0.1192 -0.3195 -0.0770
  366PHE     CH 4749   2.148   1.265   1.552  0.5166  0.0127 -0.0972
  366PHE     CH 4750   2.150   1.377   1.636 -0.4232 -0.1994  0.2165
  366PHE     CH 4751   2.136   1.507   1.584  0.0060 -0.3683 -0.3375
  366PHE     OH 4752   2.090   1.640   1.397  0.0238 -0.3179  0.2986
  366PHE     HC 4753   2.088   1.409   1.253 -0.0778 -2.1088 -0.5252
  366PHE     HC 4754   2.133   1.191   1.352  2.1624 -0.0826 -0.3377
  366PHE     HC 4755   2.155   1.166   1.596 -0.9405 -0.3811 -0.7043
  366PHE     HC 4756   2.160   1.375   1.743  0.5713  0.3851  0.1482
  366PHE     HC 4757   2.146   1.595   1.646  1.6062 -0.6228 -0.2134
  366PHE     HO 4758   2.026   1.635   1.328  0.2669  2.6408 -0.2946
  367PHE     CO 4759   4.990   4.585   3.990 -0.5642 -0.0739  0.0253
  367PHE     CH 4760   4.930   4.465   4.028  0.2997 -0.4026  0.3863
  367PHE     CH 4761   4.977   4.385   4.133 -0.1222  0.0046  0.8880
  367PHE     CH 4762   5.077   4.438   4.215 -0.0030  0.4748  0.4510
  367PHE     CH 4763   0.034   4.562   4.187 -0.2230  0.4184 -0.2458
  367PHE     CH 4764   5.089   4.636   4.076 -0.3102  0.1490 -0.3911
  367PHE     OH 4765   4.938   4.663   3.891 -0.0983 -0.6209 -0.6615
  367PHE     HC 4766   4.847   4.437   3.964 -0.2464  1.2967  0.3146
  367PHE     HC 4767   4.931   4.288   4.146 -1.8951  0.5484 -0.7245
  367PHE     HC 4768   0.009   4.371   4.295  1.2870  0.0389 -0.3978
  367PHE     HC 4769   0.113   4.599   4.251 -1.7720  1.2262  1.2558
  367PHE     HC 4770   0.034   4.728   4.045  0.9954 -0.1693  0.4560
  367PHE     HO 4771   4.958   4.755   3.892 -1.7459 -0.1512  2.5797
  368PHE     CO 4772   1.099   0.426   1.250 -0.0074  0.1451 -0.0176
  368PHE     CH 4773   1.201   0.401   1.343 -0.2129 -0.0434  0.1578
  368PHE     CH 4774   1.249   0.273   1.370  0.7832  0.1747 -0.5079
  368PHE     CH 4775   1.173   0.163   1.327  0.3228  0.1531  0.3232
  368PHE     CH 4776   1.069   0.185   1.236  0.3849 -0.3792  0.1189
  368PHE     CH 4777   1.036   0.315   1.193  0.1605 -0.2732  0.6020
  368PHE     OH 4778   1.075   0.553   1.206  0.1817 -0.1593 -1.0343
  368PHE     HC 4779   1.248   0.487   1.390  0.7532 -0.0270 -0.7988
  368PHE     HC 4780   1.331   0.253   1.437  2.6023  0.7826 -2.4748
  368PHE     HC 4781   1.190   0.058   1.345  2.1188  0.6065  1.5069
  368PHE     HC 4782   1.005   0.110   1.192 -1.4276  0.2743  1.4903
  368PHE     HC 4783   0.966   0.314   1.111 -0.2965  0.5380  0.9751
  368PHE     HO 4784   1.150   0.611   1.211  2.4311 -2.7219 -1.9226
  369PHE     CO 4785   2.045   0.681   4.159 -0.0925 -0.0571 -0.0317
  369PHE     CH 4786   2.152   0.752   4.103  0.2352 -0.4131  0.1360
  369PHE     CH 4787   2.137   0.886   4.066  0.3509 -0.3900  0.1724
  369PHE     CH 4788   2.013   0.951   4.072  0.4462 -0.2068  0.1581
  369PHE     CH 4789   1.907   0.879   4.129 -0.2674  0.5941 -0.1391
  369PHE     CH 4790   1.923   0.748   4.173  0.1249  0.4768 -0.6129
  369PHE     OH 4791   2.061   0.558   4.215 -0.1384  0.0548  0.2331
  369PHE     HC 4792   2.249   0.709   4.083  0.0924  0.6401 -3.5077
  369PHE     HC 4793   2.221   0.943   4.028 -0.5641  0.2534 -0.9530
  369PHE     HC 4794   2.002   1.055   4.043 -0.5214 -0.6521 -1.1259
  369PHE     HC 4795   1.816   0.933   4.149 -0.6083 -0.7956  2.4025
  369PHE     HC 4796   1.842   0.699   4.226 -2.2106  4.4939 -0.0733
  369PHE     HO 4797   2.146   0.539   4.252 -0.4582 -2.6532 -0.1623
  370PHE     CO 4798   1.667   0.543   4.848  0.2715 -0.0910 -0.5233
  370PHE     CH 4799   1.687   0.620   4.963 -0.4806  0.3946 -0.7118
  370PHE     CH 4800   1.760   0.739   4.951 -0.3647  0.4037  0.0390
  370PHE     CH 4801   1.830   0.767   4.833  0.3958  0.1797  0.4291
  370PHE     CH 4802   1.831   0.674   4.729  0.2633  0.2689  0.3463
  370PHE     CH 4803   1.736   0.571   4.729  0.0662  0.4448 -0.5171
  370PHE     OH 4804   1.571   0.446   4.858 -0.1095  0.3476  0.1197
  370PHE     HC 4805   1.639   0.592   5.056  1.4243 -0.9034 -0.0688
  370PHE     HC 4806   1.770   0.807   5.034  2.8890  0.1355 -0.0131
  370PHE     HC 4807   1.890   0.857   4.826  1.1730 -0.4607 -2.3211
  370PHE     HC 4808   1.881   0.697   4.636 -0.6879  0.0714 -0.2240
  370PHE     HC 4809   1.711   0.515   4.640 -2.5506  2.4777 -1.1975
  370PHE     HO 4810   1.562   0.413   4.770  1.8760 -0.9322  0.3399
  371PHE     CO 4811   1.253   1.512   0.985  0.1278  0.2224  0.2207
  371PHE     CH 4812   1.259   1.408   0.892  0.0307  0.4834 -0.0822
  371PHE     CH 4813   1.167   1.303   0.903  0.2061  0.2791 -0.5335
  371PHE     CH 4814   1.057   1.319   0.989  0.1141  0.1410 -0.6248
  371PHE     CH 4815   1.050   1.427   1.077 -0.8784 -0.1538 -0.3332
  371PHE     CH 4816   1.148   1.527   1.077 -0.4602 -0.5601 -0.3107
  371PHE     OH 4817   1.350   1.608   0.976 -0.2428  0.5776 -0.0170
  371PHE     HC 4818   1.341   1.403   0.822  1.0842  2.3638  0.9265
  371PHE     HC 4819   1.167   1.216   0.839 -0.2550 -0.6267  0.6570
  371PHE     HC 4820   0.976   1.248   0.980  1.0299 -1.7531  3.8544
  371PHE     HC 4821   0.962   1.430   1.140 -1.1835 -1.0246 -0.7119
  371PHE     HC 4822   1.137   1.621   1.129 -0.5972  1.5467 -3.7914
  371PHE     HO 4823   1.355   1.666   1.050 -1.4811  2.0900 -1.0524
  372PHE     CO 4824   2.396   1.041   3.202  0.0453 -0.2973 -0.0754
  372PHE     CH 4825   2.315   1.101   3.106 -0.1081 -1.0562 -0.4291
  372PHE     CH 4826   2.176   1.084   3.118 -0.1277 -0.5372  0.1749
  372PHE     CH 4827   2.118   1.019   3.228 -0.5099  0.1450  0.3788
  372PHE     CH 4828   2.196   0.962   3.329 -0.4608 -0.6101 -0.0769
  372PHE     CH 4829   2.333   0.967   3.303 -0.5108 -0.0535 -0.2419
  372PHE     OH 4830   2.533   1.043   3.195  0.0320  0.4821 -0.2008
  372PHE     HC 4831   2.358   1.156   3.024 -2.7330  0.7322 -0.7339
  372PHE     HC 4832   2.117   1.127   3.038  0.4713  0.4327  0.2353
  372PHE     HC 4833   2.013   0.996   3.230 -0.0870 -2.2920 -1.3859
  372PHE     HC 4834   2.139   0.905   3.401 -1.1627 -0.8084 -0.7751
  372PHE     HC 4835   2.404   0.912   3.362 -1.6794 -1.0852  0.2451
  372PHE     HO 4836   2.567   1.026   3.281 -2.3364 -0.4522  0.6429
  373PHE     CO 4837   1.836   3.917   4.609  0.3551  0.0512 -0.1328
  373PHE     CH 4838   1.819   3.783   4.572  0.2853  0.1573 -0.4851
  373PHE     CH 4839   1.750   3.693   4.654  0.5439  0.3379 -0.0676
  373PHE     CH 4840   1.701   3.738   4.777  0.0166 -0.0570 -0.1329
  373PHE     CH 4841   1.724   3.868   4.822  0.1695 -0.0589 -0.2066
  373PHE     CH 4842   1.795   3.954   4.737 -0.1342  0.0940 -0.3030
  373PHE     OH 4843   1.913   4.004   4.537  0.6024 -0.4056 -0.4227
  373PHE     HC 4844   1.863   3.754   4.478  1.6900  2.2843 -0.5562
  373PHE     HC 4845   1.732   3.591   4.624 -1.2188  0.4128  0.6370
  373PHE     HC 4846   1.635   3.670   4.830 -2.6238  2.1187 -0.3945
  373PHE     HC 4847   1.678   3.909   4.911 -0.4487  1.1520 -1.0698
  373PHE     HC 4848   1.806   4.055   4.775 -1.1161 -0.4786  1.6328
  373PHE     HO 4849   1.898   4.090   4.572 -0.5730 -1.5389  2.1159
  374PHE     CO 4850   3.102   1.380   0.049  0.2147  0.3685  0.8519
  374PHE     CH 4851   3.051   1.282   0.134  0.4560  0.0303  0.6117
  374PHE     CH 4852   2.914   1.282   0.165  0.2493 -0.0368 -0.2778
  374PHE     CH 4853   2.834   1.389   0.125 -0.2602 -0.3365 -0.0699
  374PHE     CH 4854   2.886   1.487   0.039 -0.0440 -0.1690  0.2526
  374PHE     CH 4855   3.017   1.475   5.091 -0.1011 -0.3390  0.1423
  374PHE     OH 4856   3.235   1.368   0.022 -0.0585 -0.1175 -0.3631
  374PHE     HC 4857   3.107   1.199   0.175 -0.4765 -1.3451 -0.7571
  374PHE     HC 4858   2.877   1.197   0.220  1.5674 -0.7853 -0.4907
  374PHE     HC 4859   2.731   1.401   0.156 -0.5781  0.6879 -1.4188
  374PHE     HC 4860   2.833   1.576   0.008  0.8920 -0.0386 -1.0108
  374PHE     HC 4861   3.054   1.550   5.023 -0.7844  1.9414  2.1673
  374PHE     HO 4862   3.262   1.443   5.070  0.4498  0.3741  0.5794
  375PHE     CO 4863   5.009   0.293   3.226  0.2567  0.0100 -0.0438
  375PHE     CH 4864   5.014   0.395   3.131 -0.2032 -0.1672 -0.2628
  375PHE     CH 4865   4.920   0.498   3.138  0.3751  0.3443  0.1738
  375PHE     CH 4866   4.825   0.505   3.241  0.1369  0.8748 -0.0800
  375PHE     CH 4867   4.822   0.403   3.336  0.5315 -0.1368 -1.1312
  375PHE     CH 4868   4.917   0.300   3.331  0.1003 -0.5933 -0.1355
  375PHE     OH 4869   5.083   0.178   3.216  0.0912 -0.0998 -0.0178
  375PHE     HC 4870   5.080   0.393   3.046 -0.1574 -0.3207 -0.2241
  375PHE     HC 4871   4.923   0.565   3.053 -0.5810  0.8794  0.5432
  375PHE     HC 4872   4.747   0.579   3.228  1.0774  1.8834 -0.1469
  375PHE     HC 4873   4.741   0.404   3.408  0.2143  1.3307 -1.4767
  375PHE     HC 4874   4.906   0.213   3.395 -3.8835  0.4174  0.8852
  375PHE     HO 4875   5.087   0.173   3.121  0.9477  4.1637 -0.4208
  376PHE     CO 4876   0.443   1.330   1.779  0.1987 -0.3130  0.7850
  376PHE     CH 4877   0.342   1.261   1.847 -0.5081  0.2751  0.3440
  376PHE     CH 4878   0.341   1.121   1.844 -0.3097  0.2848 -0.5407
  376PHE     CH 4879   0.447   1.048   1.790 -0.6184 -0.0432 -0.7039
  376PHE     CH 4880   0.551   1.117   1.727 -0.1163 -0.3733 -0.2486
  376PHE     CH 4881   0.545   1.257   1.716 -0.2495 -0.3516  0.0884
  376PHE     OH 4882   0.440   1.466   1.767  0.0533 -0.3824  0.0012
  376PHE     HC 4883   0.264   1.321   1.892 -1.6444 -1.0183  0.1415
  376PHE     HC 4884   0.262   1.068   1.895 -1.0773 -0.5335 -2.5101
  376PHE     HC 4885   0.460   0.941   1.796  1.8655  0.2637  1.1779
  376PHE     HC 4886   0.640   1.067   1.693  0.1382 -0.5461  0.6288
  376PHE     HC 4887   0.624   1.304   1.660  1.8351 -2.3442  1.1581
  376PHE     HO 4888   0.410   1.499   1.850  0.5252 -0.0762  0.0509
  377PHE     CO 4889   3.147   0.130   2.241 -0.0643 -0.4009 -0.4237
  377PHE     CH 4890   3.186   0.197   2.358  0.4358 -0.4458 -0.5611
  377PHE     CH 4891   3.166   0.140   2.484  0.5838 -0.3148 -0.4779
  377PHE     CH 4892   3.106   0.014   2.496  0.2058 -0.0400  0.6501
  377PHE     CH 4893   3.074   5.044   2.379  0.4016 -0.1975  0.6911
  377PHE     CH 4894   3.095   0.001   2.253 -0.7719 -0.0399  0.5595
  377PHE     OH 4895   3.173   0.178   2.116 -0.2143 -0.2988 -0.4160
  377PHE     HC 4896   3.230   0.296   2.357  2.3673 -1.2185  0.8134
  377PHE     HC 4897   3.191   0.183   2.580  0.0031 -1.0984  0.0389
  377PHE     HC 4898   3.103   5.074   2.596 -0.3650 -0.1711  0.5839
  377PHE     HC 4899   3.041   4.941   2.380 -0.7376  0.1018 -1.1486
  377PHE     HC 4900   3.071   5.040   2.167 -0.5299 -0.1381  0.5596
  377PHE     HO 4901   3.240   0.244   2.122  1.2161 -1.7234 -0.0386
  378PHE     CO 4902   2.170   4.434   1.189 -0.1690 -0.3117  0.2530
  378PHE     CH 4903   2.090   4.501   1.282  0.1883  0.5329 -0.0443
  378PHE     CH 4904   1.994   4.596   1.242 -0.1163  0.2061 -0.0917
  378PHE     CH 4905   1.979   4.621   1.105  0.0702 -0.3596 -0.2195
  378PHE     CH 4906   2.055   4.552   1.009 -0.0185 -0.4976 -0.1906
  378PHE     CH 4907   2.145   4.454   1.053 -0.3912 -0.6514  0.2412
  378PHE     OH 4908   2.268   4.349   1.233 -0.3128 -0.7489 -0.2618
  378PHE     HC 4909   2.109   4.487   1.387  2.4551  2.7000 -0.0619
  378PHE     HC 4910   1.931   4.640   1.317 -0.0222 -1.8363  1.2765
  378PHE     HC 4911   1.910   4.700   1.079 -0.8356 -0.5639  1.4461
  378PHE     HC 4912   2.033   4.578   0.907 -0.2018  1.5038  0.3063
  378PHE     HC 4913   2.188   4.400   0.970 -0.8991  2.7809 -2.4935
  378PHE     HO 4914   2.311   4.295   1.169 -1.0004 -0.9615 -0.5619
  379PHE     CO 4915   1.301   5.012   3.807 -0.7467  0.3767 -0.0139
  379PHE     CH 4916   1.346   5.071   3.926 -0.1046  0.0454 -0.0872
  379PHE     CH 4917   1.309   5.013   4.048 -0.2409 -0.1910 -0.2389
  379PHE     CH 4918   1.237   4.894   4.054  0.0656 -0.4027 -0.6940
  379PHE     CH 4919   1.205   4.827   3.935 -0.4531 -0.3939 -0.5631
  379PHE     CH 4920   1.235   4.889   3.813  0.6335 -0.3989 -0.3055
  379PHE     OH 4921   1.336   5.070   3.688  0.9551 -0.3882  0.0798
  379PHE     HC 4922   1.415   0.054   3.919 -1.0555  1.0247  1.4482
  379PHE     HC 4923   1.343   5.049   4.144  0.2809 -3.3557  0.8734
  379PHE     HC 4924   1.215   4.855   4.152  1.0321  3.9019  1.4351
  379PHE     HC 4925   1.148   4.735   3.935  0.1404 -0.8171  1.7905
  379PHE     HC 4926   1.205   4.835   3.725  0.4899 -3.3397  1.3963
  379PHE     HO 4927   1.278   5.045   3.617 -0.2703  1.9855  0.1477
  380PHE     CO 4928   0.507   1.653   1.539  0.1502 -0.2317 -0.4125
  380PHE     CH 4929   0.440   1.741   1.624  0.3611 -0.3645 -0.1059
  380PHE     CH 4930   0.340   1.827   1.577  0.2154 -0.3022  0.3088
  380PHE     CH 4931   0.299   1.817   1.443 -0.1677 -0.1839  0.4157
  380PHE     CH 4932   0.378   1.743   1.355 -0.8010 -0.8269  0.3818
  380PHE     CH 4933   0.482   1.662   1.402 -0.0783 -0.3487 -0.3786
  380PHE     OH 4934   0.603   1.568   1.585  0.4980  0.7243  0.6908
  380PHE     HC 4935   0.473   1.737   1.727 -0.5324  0.7022  0.2509
  380PHE     HC 4936   0.295   1.898   1.645  1.9092  0.1171  1.0391
  380PHE     HC 4937   0.224   1.887   1.410 -0.9707 -0.5853  1.3234
  380PHE     HC 4938   0.365   1.749   1.248 -0.1340 -1.3654  0.2597
  380PHE     HC 4939   0.540   1.604   1.330  3.0832  0.9360  0.9386
  380PHE     HO 4940   0.561   1.530   1.660 -0.7051  1.4422  0.4019
  381PHE     CO 4941   1.536   4.213   4.929  0.0919  0.2598 -0.1692
  381PHE     CH 4942   1.582   4.147   5.044  0.2315 -0.0838 -0.4198
  381PHE     CH 4943   1.496   4.082   0.034  0.1386 -0.0638 -0.4951
  381PHE     CH 4944   1.362   4.069   5.096  0.1352 -0.1866 -0.4402
  381PHE     CH 4945   1.315   4.132   4.980 -0.0333  0.3221 -0.0984
  381PHE     CH 4946   1.400   4.208   4.899  0.1805 -0.3272 -0.4925
  381PHE     OH 4947   1.623   4.277   4.846  0.2629  0.0262 -0.1723
  381PHE     HC 4948   1.687   4.145   5.069  0.2562  0.9154 -0.4023
  381PHE     HC 4949   1.522   4.029   0.124  0.8097 -0.3390 -0.8429
  381PHE     HC 4950   1.298   4.016   0.065 -1.2333  2.5107  0.4936
  381PHE     HC 4951   1.215   4.119   4.942  0.2990 -0.2943 -0.7734
  381PHE     HC 4952   1.358   4.258   4.813 -0.3222  1.1695  0.5798
  381PHE     HO 4953   1.687   4.319   4.902 -0.2882  1.1843 -0.3845
  382PHE     CO 4954   0.793   0.660   0.067 -0.2684 -0.3170  0.0518
  382PHE     CH 4955   0.760   0.659   5.031 -0.4548 -0.8646  0.1000
  382PHE     CH 4956   0.630   0.656   4.978 -0.4892 -0.4814  0.1611
  382PHE     CH 4957   0.526   0.661   5.072 -0.4607 -0.5938  0.1994
  382PHE     CH 4958   0.555   0.658   0.109  0.3978  0.8622  0.0781
  382PHE     CH 4959   0.687   0.657   0.157  0.2109 -0.6605  0.6099
  382PHE     OH 4960   0.919   0.637   0.113 -0.2712  0.4033  0.4294
  382PHE     HC 4961   0.843   0.640   4.964 -1.4340 -0.8235 -1.1733
  382PHE     HC 4962   0.607   0.654   4.873 -4.0402 -0.7177  0.7966
  382PHE     HC 4963   0.424   0.655   5.037 -1.0836 -2.0361  2.1092
  382PHE     HC 4964   0.486   0.630   0.188  2.3021 -2.0603  0.8956
  382PHE     HC 4965   0.705   0.630   0.260  0.2049 -0.6546  0.6127
  382PHE     HO 4966   0.988   0.634   0.048 -0.4244  1.3724  0.2034
  383PHE     CO 4967   1.924   4.445   4.940  0.1148 -0.0154  0.0022
  383PHE     CH 4968   1.823   4.487   5.026 -0.3385  0.2556 -0.6528
  383PHE     CH 4969   1.844   4.602   0.003  0.3321 -0.6595  0.5828
  383PHE     CH 4970   1.968   4.668   5.097 -0.2644  0.4230 -0.3942
  383PHE     CH 4971   2.073   4.620   5.018 -0.2349 -0.5740  0.2304
  383PHE     CH 4972   2.050   4.507   4.938  0.1758 -0.1465 -0.5082
  383PHE     OH 4973   1.905   4.332   4.865 -0.5237 -0.0217  0.1737
  383PHE     HC 4974   1.729   4.435   5.038 -0.1184  0.2741  1.5091
  383PHE     HC 4975   1.763   4.640   0.063 -0.0216 -1.0633  0.3625
  383PHE     HC 4976   1.981   4.754   0.060 -1.5468 -1.0272  2.0094
  383PHE     HC 4977   2.166   4.675   5.019 -0.3959 -0.2603 -0.7718
  383PHE     HC 4978   2.127   4.451   4.888 -0.5560 -0.5247 -1.2441
  383PHE     HO 4979   1.962   4.332   4.790  0.1627 -0.2241  0.6847
  384PHE     CO 4980   0.364   1.545   2.091  0.3049 -0.6244  0.0507
  384PHE     CH 4981   0.340   1.423   2.155 -0.9273  0.1163  1.0533
  384PHE     CH 4982   0.435   1.371   2.243 -0.0263 -0.2227 -0.0820
  384PHE     CH 4983   0.551   1.446   2.264 -0.4587  0.4551 -0.0669
  384PHE     CH 4984   0.583   1.559   2.188  0.5657  0.1808 -0.0658
  384PHE     CH 4985   0.487   1.613   2.101 -0.0874  0.0225  0.5537
  384PHE     OH 4986   0.282   1.597   1.995 -0.1340 -0.8773  0.2846
  384PHE     HC 4987   0.249   1.371   2.127 -0.1160 -0.8247  0.0569
  384PHE     HC 4988   0.424   1.285   2.308  1.5399  1.2509  2.2970
  384PHE     HC 4989   0.624   1.413   2.337 -2.3699  2.2233  2.8436
  384PHE     HC 4990   0.675   1.613   2.201  0.6942 -0.2010  0.6904
  384PHE     HC 4991   0.511   1.708   2.058 -0.7402  0.8244  1.8904
  384PHE     HO 4992   0.270   1.690   1.984 -2.8821 -1.3318 -1.5934
  385PHE     CO 4993   1.565   4.084   1.741  0.1512  0.0548 -0.3966
  385PHE     CH 4994   1.465   3.989   1.762 -0.4966  0.8996  0.3882
  385PHE     CH 4995   1.469   3.909   1.877 -0.4912  0.1876 -0.0982
  385PHE     CH 4996   1.566   3.933   1.975 -0.0429 -0.2816 -0.4260
  385PHE     CH 4997   1.655   4.040   1.964  0.6987 -0.8822 -0.3511
  385PHE     CH 4998   1.655   4.112   1.844 -0.1267 -0.3465 -0.0412
  385PHE     OH 4999   1.570   4.149   1.621 -0.1404  0.1445 -0.3601
  385PHE     HC 5000   1.398   3.974   1.678  1.3758 -0.9059 -0.8926
  385PHE     HC 5001   1.403   3.824   1.885  1.6029 -1.4252  1.1425
  385PHE     HC 5002   1.560   3.876   2.066 -0.4306  3.1696  1.8913
  385PHE     HC 5003   1.707   4.069   2.055 -0.2723  0.5045 -0.2026
  385PHE     HC 5004   1.728   4.190   1.829 -1.6021  0.9835 -0.5104
  385PHE     HO 5005   1.483   4.138   1.587 -0.5707 -2.2782  1.2560
  386PHE     CO 5006   0.767   0.990   4.756 -0.1954  0.2930 -0.4620
  386PHE     CH 5007   0.838   1.082   4.678 -0.2780  0.4912 -0.3033
  386PHE     CH 5008   0.785   1.111   4.552  0.0949  0.1272 -0.5456
  386PHE     CH 5009   0.667   1.054   4.502 -0.1708  0.2977 -0.1201
  386PHE     CH 5010   0.599   0.967   4.588  0.5730 -0.1936 -0.0170
  386PHE     CH 5011   0.644   0.937   4.717 -0.1128 -0.3838  0.1783
  386PHE     OH 5012   0.815   0.961   4.881  0.1626  1.3806 -0.3358
  386PHE     HC 5013   0.931   1.122   4.716 -1.2599  2.4015  0.2581
  386PHE     HC 5014   0.826   1.194   4.497 -1.0239  0.2119 -1.2848
  386PHE     HC 5015   0.625   1.080   4.406  3.0816 -0.9571 -2.0443
  386PHE     HC 5016   0.503   0.932   4.555  0.1738 -0.5690  1.4512
  386PHE     HC 5017   0.579   0.878   4.781 -1.1158  0.7206  0.2130
  386PHE     HO 5018   0.909   0.972   4.887  0.3624 -0.3269  0.3207
  387PHE     CO 5019   0.809   1.805   1.818 -0.2115  0.6358  0.9336
  387PHE     CH 5020   0.947   1.798   1.838 -0.0763 -0.1224 -0.1950
  387PHE     CH 5021   1.015   1.678   1.860 -0.0380 -0.0985 -0.1769
  387PHE     CH 5022   0.942   1.559   1.873 -0.3803  0.0944 -0.3010
  387PHE     CH 5023   0.804   1.568   1.889 -0.3458 -0.4655  0.3680
  387PHE     CH 5024   0.741   1.689   1.856  0.4705 -0.2759 -0.5488
  387PHE     OH 5025   0.740   1.917   1.783 -0.2699  0.2003 -0.3802
  387PHE     HC 5026   1.013   1.882   1.816 -1.4479  0.6036 -1.7546
  387PHE     HC 5027   1.123   1.673   1.862  0.1242  1.5377 -2.0283
  387PHE     HC 5028   0.988   1.461   1.882  0.6098  0.5013 -0.7226
  387PHE     HC 5029   0.744   1.483   1.917  0.5172 -0.9027  0.9151
  387PHE     HC 5030   0.633   1.681   1.860  0.3809  1.0280 -0.0078
  387PHE     HO 5031   0.793   1.992   1.756  2.0959 -2.7705 -5.5475
  388PHE     CO 5032   1.739   4.480   1.828  0.0232  0.0868 -0.3005
  388PHE     CH 5033   1.646   4.581   1.802 -0.0266  0.1809  0.2390
  388PHE     CH 5034   1.651   4.649   1.679  0.3354 -0.4322 -0.0867
  388PHE     CH 5035   1.755   4.623   1.589  0.4422  0.0949 -0.1180
  388PHE     CH 5036   1.853   4.528   1.619 -0.0171 -0.3954 -0.1583
  388PHE     CH 5037   1.845   4.455   1.739 -0.2969 -0.8264 -0.4363
  388PHE     OH 5038   1.728   4.417   1.948  0.0304  0.6802  0.0167
  388PHE     HC 5039   1.564   4.605   1.868 -0.5828  2.1050 -1.0415
  388PHE     HC 5040   1.577   4.722   1.652  0.9320 -0.3245 -1.5219
  388PHE     HC 5041   1.761   4.677   1.496  2.1453  0.3486  0.0951
  388PHE     HC 5042   1.925   4.504   1.542  1.0716  0.8922  0.4201
  388PHE     HC 5043   1.925   4.390   1.770 -1.8807 -1.8875  1.6568
  388PHE     HO 5044   1.787   4.343   1.951 -2.1444 -1.1588  1.8479
  389PHE     CO 5045   4.956   5.024   4.550  0.5496 -0.2961 -0.1348
  389PHE     CH 5046   4.973   4.905   4.477 -0.2679 -0.3583 -0.2359
  389PHE     CH 5047   4.893   4.877   4.366 -0.4918  0.1675 -0.2104
  389PHE     CH 5048   4.789   4.963   4.330 -0.5450 -0.1996 -0.9494
  389PHE     CH 5049   4.761   5.076   4.408  0.4794 -0.3874 -0.3020
  389PHE     CH 5050   4.842   5.100   4.520  0.4521 -0.4908 -0.2603
  389PHE     OH 5051   5.033   5.052   4.659  0.0988  0.2592  0.0461
  389PHE     HC 5052   5.054   4.838   4.502  0.2416  0.1931 -0.3776
  389PHE     HC 5053   4.919   4.791   4.307  1.0317 -1.3537  2.4905
  389PHE     HC 5054   4.731   4.930   4.245 -1.7993 -0.0645 -0.1776
  389PHE     HC 5055   4.679   0.040   4.382  0.4923 -0.0353  0.4964
  389PHE     HC 5056   4.827   0.083   4.587 -0.0265 -2.0390  1.6588
  389PHE     HO 5057   5.084   4.975   4.680 -0.6639  0.0150  1.1094
  390PHE     CO 5058   0.920   3.905   3.111 -0.0842 -0.6187 -0.6471
  390PHE     CH 5059   0.861   3.779   3.129  0.1636 -0.6914 -0.3317
  390PHE     CH 5060   0.929   3.685   3.206  0.4086 -0.7767 -0.6504
  390PHE     CH 5061   1.043   3.724   3.277 -0.0311 -0.0263 -0.3520
  390PHE     CH 5062   1.098   3.852   3.257 -0.8603  0.3891 -0.0057
  390PHE     CH 5063   1.045   3.941   3.162 -0.4508  0.2660 -0.3520
  390PHE     OH 5064   0.858   3.992   3.026 -0.3711 -0.2748 -0.0903
  390PHE     HC 5065   0.770   3.748   3.081  0.9137 -2.2921 -0.7643
  390PHE     HC 5066   0.886   3.587   3.224  0.0829 -0.1639  2.4259
  390PHE     HC 5067   1.076   3.665   3.361  2.6665  1.1973 -0.4379
  390PHE     HC 5068   1.178   3.884   3.321  1.4984 -0.5719 -2.3051
  390PHE     HC 5069   1.103   4.032   3.156  0.0279 -0.0537 -0.6705
  390PHE     HO 5070   0.841   4.079   3.058 -2.3121 -0.4617 -0.4739
  391PHE     CO 5071   3.733   0.441   4.137  0.1759 -0.4621 -0.2584
  391PHE     CH 5072   3.748   0.567   4.078 -0.2325 -0.2073  0.1880
  391PHE     CH 5073   3.658   0.608   3.979  0.0124 -0.1453 -0.0093
  391PHE     CH 5074   3.546   0.530   3.948 -0.2852  0.1039  0.4376
  391PHE     CH 5075   3.521   0.411   4.018  0.4213 -0.1943  0.1926
  391PHE     CH 5076   3.620   0.365   4.106  0.2598 -0.7330  0.0950
  391PHE     OH 5077   3.808   0.411   4.247  0.0162 -0.6026 -0.1870
  391PHE     HC 5078   3.824   0.635   4.113 -0.5351 -0.2307  0.9154
  391PHE     HC 5079   3.671   0.704   3.931  2.1861 -1.2456 -1.8361
  391PHE     HC 5080   3.479   0.578   3.878 -1.9026 -2.5363  0.0205
  391PHE     HC 5081   3.427   0.362   3.998  1.0711 -0.4255 -2.6920
  391PHE     HC 5082   3.593   0.277   4.162 -3.8428 -0.3114 -0.8556
  391PHE     HO 5083   3.869   0.481   4.267 -0.3290 -0.3350 -0.0547
  392PHE     CO 5084   0.235   4.964   4.721  0.3365 -0.2464 -0.1340
  392PHE     CH 5085   0.259   5.029   4.599 -0.3752 -0.1805 -0.2443
  392PHE     CH 5086   0.372   0.011   4.588 -0.2057 -0.3685  0.0742
  392PHE     CH 5087   0.452   0.028   4.701 -0.2368  0.0075  0.0430
  392PHE     CH 5088   0.425   5.070   4.826 -0.4571  0.1132  0.0457
  392PHE     CH 5089   0.314   4.986   4.835 -0.2356 -0.1635  0.2484
  392PHE     OH 5090   0.124   4.887   4.741  0.3933 -0.2248  0.2611
  392PHE     HC 5091   0.189   5.017   4.518 -0.1789  1.0138 -0.6135
  392PHE     HC 5092   0.392   0.064   4.496  2.2384 -1.7605 -0.2833
  392PHE     HC 5093   0.540   0.091   4.692 -1.2052  1.1127 -2.3783
  392PHE     HC 5094   0.482   5.078   4.918 -1.6148  1.4543  0.6755
  392PHE     HC 5095   0.288   4.939   4.928  0.2593 -1.2738 -0.1626
  392PHE     HO 5096   0.095   4.892   4.831 -0.6657  0.0520 -0.0893
  393PHE     CO 5097   1.199   0.920   2.970 -0.5963 -0.3053 -0.0881
  393PHE     CH 5098   1.249   0.816   3.049  0.7248  0.4044  0.0418
  393PHE     CH 5099   1.259   0.829   3.188  0.2033 -0.1323  0.1335
  393PHE     CH 5100   1.211   0.946   3.248  0.1221 -0.1850  0.1719
  393PHE     CH 5101   1.158   1.053   3.174  0.8026 -0.0795 -0.1770
  393PHE     CH 5102   1.155   1.036   3.036 -0.4962 -0.2362 -0.1418
  393PHE     OH 5103   1.195   0.918   2.834 -0.8778  0.0756 -0.0866
  393PHE     HC 5104   1.278   0.719   3.010 -0.7159  0.0182 -0.1054
  393PHE     HC 5105   1.300   0.745   3.243  2.4671 -1.5742 -3.4051
  393PHE     HC 5106   1.218   0.946   3.355 -0.8438  0.0114  0.2383
  393PHE     HC 5107   1.119   1.144   3.217 -0.3927  1.3145 -3.8480
  393PHE     HC 5108   1.117   1.123   2.985  2.4637  2.0302  1.2193
  393PHE     HO 5109   1.232   0.842   2.791 -0.2678  0.2623  0.0989
  394PHE     CO 5110   2.438   4.884   2.732  0.1707 -0.3121  0.0835
  394PHE     CH 5111   2.301   4.863   2.713  0.2384 -0.9096  0.2339
  394PHE     CH 5112   2.245   4.901   2.590 -0.6653 -0.0953  0.8805
  394PHE     CH 5113   2.318   4.967   2.491 -0.4575 -0.1542  0.9942
  394PHE     CH 5114   2.450   5.006   2.521 -0.0391 -0.7508 -0.0220
  394PHE     CH 5115   2.509   4.963   2.640  0.0621 -0.1362  0.1498
  394PHE     OH 5116   2.486   4.849   2.855  0.0175 -0.1269  0.1975
  394PHE     HC 5117   2.251   4.810   2.792 -2.4533 -0.6104 -1.1708
  394PHE     HC 5118   2.140   4.879   2.577 -0.4671 -2.9317  2.9548
  394PHE     HC 5119   2.268   4.994   2.399  0.2194 -0.6477  0.4683
  394PHE     HC 5120   2.504   5.060   2.445 -1.1632 -1.4949 -1.4265
  394PHE     HC 5121   2.611   4.989   2.664 -0.2694  0.6004  0.7881
  394PHE     HO 5122   2.580   4.851   2.864  0.2598 -1.2940 -1.5127
  395PHE     CO 5123   1.311   4.473   1.903  0.1030 -0.0823 -0.2556
  395PHE     CH 5124   1.284   4.576   1.994 -0.4771 -0.3306 -0.1443
  395PHE     CH 5125   1.253   4.702   1.942  1.0765  0.1212 -0.0072
  395PHE     CH 5126   1.239   4.722   1.804  0.5245  0.1527  0.0537
  395PHE     CH 5127   1.266   4.618   1.714 -0.4836  0.1769 -0.2896
  395PHE     CH 5128   1.307   4.494   1.765 -0.1978  0.3107 -0.1917
  395PHE     OH 5129   1.356   4.353   1.947  0.3397  0.2059  0.3014
  395PHE     HC 5130   1.291   4.563   2.101 -1.9519  2.0950  0.3226
  395PHE     HC 5131   1.228   4.781   2.011 -2.3718 -0.6496 -0.2224
  395PHE     HC 5132   1.204   4.812   1.757  1.0901  0.4826  0.2616
  395PHE     HC 5133   1.248   4.632   1.609  0.7033  2.6664 -0.2341
  395PHE     HC 5134   1.342   4.417   1.697  1.3814  0.7662  0.0665
  395PHE     HO 5135   1.436   4.330   1.903 -0.2873 -0.7070 -0.3971
  396PHE     CO 5136   0.419   2.598   1.957  0.3871 -0.0137 -0.2732
  396PHE     CH 5137   0.499   2.483   1.959  0.2504 -0.1065 -0.1271
  396PHE     CH 5138   0.455   2.363   2.016 -0.0864  0.2767  0.4337
  396PHE     CH 5139   0.327   2.356   2.073  0.0825 -0.1198  0.7693
  396PHE     CH 5140   0.240   2.464   2.056 -0.0479 -0.3376 -0.0043
  396PHE     CH 5141   0.287   2.585   2.003  0.5988 -0.4974  0.2018
  396PHE     OH 5142   0.458   2.717   1.904 -0.4918  0.3158 -0.1887
  396PHE     HC 5143   0.598   2.506   1.922  0.2261  2.8614  1.2992
  396PHE     HC 5144   0.516   2.274   2.021 -0.8901 -0.5465 -2.5254
  396PHE     HC 5145   0.283   2.265   2.112  0.3082  0.3029  2.0564
  396PHE     HC 5146   0.135   2.453   2.079  0.4227 -0.8160  2.1166
  396PHE     HC 5147   0.225   2.671   1.985  0.2184 -0.8825 -0.3479
  396PHE     HO 5148   0.552   2.720   1.908 -0.5414  1.7634  3.3818
  397PHE     CO 5149   1.135   5.015   2.140 -0.0879 -0.2412  0.4426
  397PHE     CH 5150   1.047   4.907   2.154  0.5760 -0.8120  0.2336
  397PHE     CH 5151   1.037   4.846   2.280  0.1077 -0.2049  0.4969
  397PHE     CH 5152   1.108   4.898   2.389 -0.4826  0.4810  0.5567
  397PHE     CH 5153   1.183   5.016   2.371 -0.0204  0.0777 -0.2105
  397PHE     CH 5154   1.201   5.078   2.247 -0.2286  0.6309  0.0314
  397PHE     OH 5155   1.156   5.064   2.015  0.1506 -0.0214  0.5657
  397PHE     HC 5156   1.002   4.850   2.075 -2.9115  1.8888  0.0346
  397PHE     HC 5157   0.980   4.755   2.283  0.4176 -0.3936  0.7302
  397PHE     HC 5158   1.098   4.845   2.482  0.2039 -0.5135  0.0827
  397PHE     HC 5159   1.242   5.058   2.451  0.9498  1.6718 -1.7280
  397PHE     HC 5160   1.261   0.065   2.229  0.2244  0.8281  2.2633
  397PHE     HO 5161   1.088   5.048   1.951  0.6104  1.7686 -0.4258
  398PHE     CO 5162   3.318   0.385   0.174 -0.0121  0.5146 -0.4458
  398PHE     CH 5163   3.418   0.409   0.269  0.0287 -0.0991 -0.3298
  398PHE     CH 5164   3.550   0.427   0.225  0.0862  0.4559  0.0656
  398PHE     CH 5165   3.571   0.432   0.087 -0.0618  0.7500  0.0535
  398PHE     CH 5166   3.472   0.407   5.092  0.1248  0.1153  0.0213
  398PHE     CH 5167   3.341   0.387   0.036 -0.0191 -0.0102 -0.4564
  398PHE     OH 5168   3.189   0.374   0.215  0.0995 -0.1187 -0.2397
  398PHE     HC 5169   3.403   0.402   0.376 -2.3746  1.2991 -0.5211
  398PHE     HC 5170   3.625   0.442   0.302 -0.3015 -1.4787  0.8691
  398PHE     HC 5171   3.670   0.455   0.049  0.1487 -1.3206 -0.7556
  398PHE     HC 5172   3.491   0.408   4.985  0.7237  0.6565  0.1249
  398PHE     HC 5173   3.262   0.359   5.067  0.2738  0.9808 -1.2221
  398PHE     HO 5174   3.179   0.358   0.307 -0.3302  0.0546 -0.2518
  399PHE     CO 5175   3.043   5.023   1.194 -0.0045 -0.1897 -0.5821
  399PHE     CH 5176   2.932   4.942   1.219  0.3343 -0.6119 -0.4356
  399PHE     CH 5177   2.951   4.810   1.261  0.1143 -0.8418 -1.0569
  399PHE     CH 5178   3.079   4.754   1.271  0.4057  0.0122  0.1986
  399PHE     CH 5179   3.188   4.839   1.250  0.5309 -0.2437 -0.1955
  399PHE     CH 5180   3.172   4.974   1.218 -0.1053 -0.3611 -0.3867
  399PHE     OH 5181   3.024   0.055   1.162 -0.4308 -0.1444 -0.1561
  399PHE     HC 5182   2.833   4.984   1.217  0.5959  0.0357 -2.8440
  399PHE     HC 5183   2.876   4.742   1.300 -0.8519 -0.1000 -1.5757
  399PHE     HC 5184   3.090   4.652   1.305 -0.1011 -1.2136 -2.9533
  399PHE     HC 5185   3.283   4.787   1.258 -0.2725 -1.6085  1.0092
  399PHE     HC 5186   3.256   5.040   1.199 -1.5084  1.5049 -0.3547
  399PHE     HO 5187   2.940   0.086   1.191  0.4124  1.3614  0.8044
  400PHE     CO 5188   3.575   4.606   4.300  0.1507  0.0850 -0.3751
  400PHE     CH 5189   3.581   4.466   4.293 -0.3757  0.0073  0.6006
  400PHE     CH 5190   3.670   4.387   4.367 -0.1172 -0.2134  0.0575
  400PHE     CH 5191   3.765   4.451   4.448 -0.3721  0.1003  0.1065
  400PHE     CH 5192   3.762   4.591   4.463  0.3797  0.0969  0.2972
  400PHE     CH 5193   3.668   4.662   4.388  0.2906 -0.4911 -0.1537
  400PHE     OH 5194   3.482   4.674   4.226 -0.3628  0.0447  0.2295
  400PHE     HC 5195   3.507   4.426   4.226 -1.7292  2.2739  0.6558
  400PHE     HC 5196   3.673   4.279   4.367  1.2443 -0.2172  1.5765
  400PHE     HC 5197   3.836   4.397   4.508 -1.3330 -1.0286  0.2523
  400PHE     HC 5198   3.828   4.653   4.521  0.4545 -0.0048  0.3219
  400PHE     HC 5199   3.669   4.770   4.382 -1.8674 -0.5042 -1.7147
  400PHE     HO 5200   3.511   4.760   4.200  3.7768 -0.7034  1.5562
  401PHE     CO 5201   1.176   1.076   4.947  0.6245  0.0828  0.2129
  401PHE     CH 5202   1.207   1.045   4.814 -0.3598 -0.9825  0.2160
  401PHE     CH 5203   1.336   1.007   4.777  0.0231  0.0193  0.4925
  401PHE     CH 5204   1.433   0.985   4.876  1.0569  0.4947 -0.3955
  401PHE     CH 5205   1.409   1.031   5.006  0.3159  0.0935 -0.3894
  401PHE     CH 5206   1.279   1.070   5.041  0.4560 -0.1307  0.3847
  401PHE     OH 5207   1.049   1.111   4.985  0.3518 -0.4710 -0.1830
  401PHE     HC 5208   1.126   1.056   4.744 -0.4518  0.0095  0.4635
  401PHE     HC 5209   1.376   0.993   4.677  2.6695  0.9048  1.3322
  401PHE     HC 5210   1.531   0.948   4.847  0.0425 -0.0181 -3.5905
  401PHE     HC 5211   1.488   1.021   5.078 -1.6272 -0.4602  1.7838
  401PHE     HC 5212   1.259   1.103   0.042 -0.5630 -1.0500  0.5053
  401PHE     HO 5213   1.055   1.189   5.037  0.8219 -1.0917  0.7426
  402PHE     CO 5214   1.166   2.827   1.281  0.1222 -0.0267 -0.2839
  402PHE     CH 5215   1.046   2.793   1.344  0.0422 -0.6674 -0.7765
  402PHE     CH 5216   0.933   2.770   1.265 -0.2413 -0.9065 -0.3063
  402PHE     CH 5217   0.934   2.798   1.128 -0.0052 -0.0851 -0.1383
  402PHE     CH 5218   1.055   2.835   1.067 -0.0295  0.2192 -0.0060
  402PHE     CH 5219   1.172   2.844   1.142  0.1235  0.2644 -0.2496
  402PHE     OH 5220   1.280   2.855   1.351 -0.2327  0.7742 -0.0145
  402PHE     HC 5221   1.040   2.774   1.450 -1.1285 -0.9520 -0.8810
  402PHE     HC 5222   0.849   2.738   1.325 -0.1929 -1.5068 -0.5552
  402PHE     HC 5223   0.837   2.796   1.080 -1.2560  0.0911  2.2406
  402PHE     HC 5224   1.042   2.857   0.962 -1.5683  2.6124  0.6058
  402PHE     HC 5225   1.268   2.874   1.101  0.3345  0.0006  0.0455
  402PHE     HO 5226   1.359   2.841   1.301 -1.2902 -0.0118 -1.5447
  403PHE     CO 5227   1.978   3.617   1.762  0.1636  0.1919 -0.1219
  403PHE     CH 5228   2.049   3.529   1.845  0.2830  0.4015 -0.0032
  403PHE     CH 5229   2.113   3.576   1.961  0.0054  0.0495  0.2952
  403PHE     CH 5230   2.114   3.714   1.988  0.2779  0.0640  0.2132
  403PHE     CH 5231   2.048   3.800   1.899  0.1678  0.0737  0.3042
  403PHE     CH 5232   1.982   3.755   1.785  0.4398  0.1463  0.1158
  403PHE     OH 5233   1.920   3.562   1.651 -0.0697 -0.4854  0.3255
  403PHE     HC 5234   2.049   3.425   1.819  1.7481  0.6994 -1.4109
  403PHE     HC 5235   2.151   3.507   2.034  1.0375 -0.2743 -0.5263
  403PHE     HC 5236   2.163   3.745   2.079  0.0344  3.5466 -0.7154
  403PHE     HC 5237   2.051   3.905   1.925  2.3156 -0.1356  1.1346
  403PHE     HC 5238   1.938   3.827   1.718  1.6710  1.1864  0.4089
  403PHE     HO 5239   1.848   3.621   1.636  0.7483  0.3458 -0.5161
  404PHE     CO 5240   1.221   1.757   0.699  0.2389  0.1928  0.6612
  404PHE     CH 5241   1.349   1.812   0.707  0.1671  0.4820 -0.1102
  404PHE     CH 5242   1.357   1.952   0.699  0.3527  0.4642 -0.2454
  404PHE     CH 5243   1.245   2.036   0.683 -0.1129  0.0259  0.6195
  404PHE     CH 5244   1.119   1.975   0.678  0.2747 -0.7308 -0.5924
  404PHE     CH 5245   1.106   1.836   0.683 -0.2752 -0.6607  0.1026
  404PHE     OH 5246   1.190   1.625   0.689 -0.2471  0.3205  0.4162
  404PHE     HC 5247   1.431   1.742   0.712  0.3919  0.7847  0.7324
  404PHE     HC 5248   1.456   1.991   0.684 -0.1133  2.3369  1.1789
  404PHE     HC 5249   1.257   2.142   0.671  0.4104 -0.0664  0.2490
  404PHE     HC 5250   1.033   2.038   0.661  0.1208 -0.4879  0.9117
  404PHE     HC 5251   1.018   1.777   0.663 -0.1262 -0.5801 -0.8496
  404PHE     HO 5252   1.250   1.578   0.745  1.9468  1.1487 -1.0727
  405PHE     CO 5253   3.648   4.982   4.209  0.1481  0.6052 -0.5711
  405PHE     CH 5254   3.701   4.908   4.103 -0.0322  0.7605 -0.7698
  405PHE     CH 5255   3.831   4.933   4.057  0.3128 -0.0586 -0.2544
  405PHE     CH 5256   3.907   5.035   4.114  0.1540  0.1174 -0.3561
  405PHE     CH 5257   3.848   0.015   4.213  0.6707 -0.0763  0.1189
  405PHE     CH 5258   3.724   5.084   4.270  0.4086  0.2381 -0.2749
  405PHE     OH 5259   3.520   4.952   4.243  0.1424  0.5547 -0.6387
  405PHE     HC 5260   3.641   4.827   4.063 -1.0886  0.2793  1.6372
  405PHE     HC 5261   3.873   4.870   3.980  2.2727 -2.9179  2.8436
  405PHE     HC 5262   4.008   5.055   4.080  0.7310 -0.8598  0.6830
  405PHE     HC 5263   3.893   0.106   4.249 -0.5256  0.3999  0.4780
  405PHE     HC 5264   3.683   0.050   4.344  3.9517 -0.1901  2.2951
  405PHE     HO 5265   3.495   4.992   4.324  3.0035 -0.1050  0.6967
  406PHE     CO 5266   3.010   0.507   2.486  0.5373 -0.8298  0.0054
  406PHE     CH 5267   2.978   0.491   2.351  0.1633  0.1316 -0.0284
  406PHE     CH 5268   2.878   0.402   2.312  0.3794  0.0328 -0.3612
  406PHE     CH 5269   2.811   0.325   2.408  0.1770  0.2501 -0.3258
  406PHE     CH 5270   2.840   0.351   2.543 -0.1299  0.0339 -0.2170
  406PHE     CH 5271   2.941   0.438   2.586 -0.4280  0.2273  0.0946
  406PHE     OH 5272   3.112   0.590   2.524 -0.6435  0.6073  0.1564
  406PHE     HC 5273   3.031   0.546   2.275  0.3919  0.2707  0.2292
  406PHE     HC 5274   2.850   0.396   2.208  0.6080 -1.2315 -0.3641
  406PHE     HC 5275   2.736   0.251   2.385  0.9364 -0.3786 -0.8413
  406PHE     HC 5276   2.785   0.290   2.613  1.2381 -0.9552  0.0493
  406PHE     HC 5277   2.961   0.441   2.692 -0.1906 -0.5319  0.0788
  406PHE     HO 5278   3.123   0.611   2.615  1.4631  3.2808 -0.6024
  407PHE     CO 5279   4.513   1.239   0.618  0.2277 -0.5100 -0.7903
  407PHE     CH 5280   4.377   1.215   0.592 -0.1379 -0.2114  0.7196
  407PHE     CH 5281   4.296   1.326   0.568 -0.1380 -0.2159  0.6954
  407PHE     CH 5282   4.343   1.457   0.584  0.3817 -0.3481  0.2775
  407PHE     CH 5283   4.479   1.480   0.609  0.2946 -0.0220  0.4549
  407PHE     CH 5284   4.564   1.370   0.621 -0.1472 -0.3791  0.3263
  407PHE     OH 5285   4.589   1.127   0.630  0.2028 -0.4608 -0.1492
  407PHE     HC 5286   4.341   1.113   0.589 -1.0209  0.1002  0.6801
  407PHE     HC 5287   4.192   1.307   0.545 -0.0524  1.1536 -1.1548
  407PHE     HC 5288   4.283   1.547   0.583 -1.4862 -1.5197  1.5374
  407PHE     HC 5289   4.519   1.579   0.622  1.7471 -0.8137  2.4748
  407PHE     HC 5290   4.670   1.385   0.632  0.1633 -1.8744 -0.3365
  407PHE     HO 5291   4.672   1.155   0.667  0.6628 -0.8849 -0.8430
  408PHE     CO 5292   4.639   4.478   3.150 -0.6856 -0.1815 -0.6869
  408PHE     CH 5293   4.731   4.407   3.071 -0.0218 -0.2466  0.1333
  408PHE     CH 5294   4.706   4.280   3.018  0.1879 -0.3215  0.2112
  408PHE     CH 5295   4.593   4.212   3.066  0.1016 -0.2361  0.1304
  408PHE     CH 5296   4.510   4.273   3.161 -0.1553 -0.1798 -0.1300
  408PHE     CH 5297   4.534   4.404   3.205 -0.0515 -0.3490  0.3202
  408PHE     OH 5298   4.657   4.611   3.170  0.4682 -0.3203 -0.7067
  408PHE     HC 5299   4.816   4.469   3.048 -0.3732  1.5624  3.1424
  408PHE     HC 5300   4.767   4.225   2.948 -1.2858 -1.0074 -0.5750
  408PHE     HC 5301   4.574   4.112   3.029 -0.0163 -0.4449  0.7324
  408PHE     HC 5302   4.421   4.223   3.196  0.8296 -1.1576  1.0735
  408PHE     HC 5303   4.463   4.449   3.272 -2.1200  0.6532 -2.3686
  408PHE     HO 5304   4.649   4.622   3.264  2.6080 -0.0485 -0.5062
  409PHE     CO 5305   4.487   1.375   1.624 -0.3113  0.2181  0.1638
  409PHE     CH 5306   4.590   1.355   1.531  0.0789  0.3707  0.5641
  409PHE     CH 5307   4.614   1.445   1.426  0.0600 -0.3645 -0.0745
  409PHE     CH 5308   4.525   1.553   1.418  0.2818 -0.1484  0.3556
  409PHE     CH 5309   4.423   1.575   1.512 -0.1592 -0.2712 -0.0897
  409PHE     CH 5310   4.404   1.488   1.620 -0.3307  0.2067  0.2678
  409PHE     OH 5311   4.465   1.274   1.713  0.9452 -0.2116  0.0118
  409PHE     HC 5312   4.666   1.278   1.539  1.7675  1.7881 -0.8740
  409PHE     HC 5313   4.689   1.436   1.349 -0.8528  0.0262 -1.0281
  409PHE     HC 5314   4.542   1.613   1.331 -0.0601 -0.6326 -0.0495
  409PHE     HC 5315   4.367   1.667   1.513  2.6498  1.5719 -1.2263
  409PHE     HC 5316   4.338   1.502   1.705  1.3632 -0.5643  1.7918
  409PHE     HO 5317   4.420   1.301   1.792 -0.4904 -0.4548 -0.6974
  410PHE     CO 5318   3.069   0.530   1.833  0.1927  0.0771  0.1018
  410PHE     CH 5319   2.986   0.547   1.722 -0.0340 -0.6073  0.1625
  410PHE     CH 5320   2.869   0.622   1.731  0.3875  0.0955 -0.1552
  410PHE     CH 5321   2.824   0.664   1.857  0.0646  0.2231 -0.3110
  410PHE     CH 5322   2.900   0.640   1.972  0.4732  0.3258 -0.5572
  410PHE     CH 5323   3.023   0.576   1.957  0.3472 -0.1038  0.2262
  410PHE     OH 5324   3.191   0.469   1.831  0.0915 -0.1344  0.2800
  410PHE     HC 5325   3.029   0.511   1.629  1.0086  0.9810 -0.0137
  410PHE     HC 5326   2.812   0.643   1.641  0.0831  0.9701  0.2294
  410PHE     HC 5327   2.725   0.707   1.853 -0.0685 -0.1289 -1.3212
  410PHE     HC 5328   2.873   0.677   2.070  1.9545 -1.6315  0.6627
  410PHE     HC 5329   3.083   0.565   2.047  0.1530 -1.9291  0.1842
  410PHE     HO 5330   3.227   0.434   1.750 -0.6455 -0.2125 -0.0217
  411PHE     CO 5331   4.674   4.839   3.432 -0.1697  0.4622 -0.1605
  411PHE     CH 5332   4.650   4.890   3.560  0.3797  0.1730  0.0618
  411PHE     CH 5333   4.643   5.027   3.585  0.8337  0.0839  0.6936
  411PHE     CH 5334   4.660   0.015   3.477 -0.2034 -0.2591  0.2420
  411PHE     CH 5335   4.694   5.067   3.350 -0.6232 -0.5991  0.2553
  411PHE     CH 5336   4.703   4.929   3.328  0.1764 -0.3920 -0.8147
  411PHE     OH 5337   4.689   4.705   3.412  0.6445  0.5427 -0.1230
  411PHE     HC 5338   4.625   4.822   3.641 -1.0125  0.7103  0.1145
  411PHE     HC 5339   4.621   5.076   3.679  2.3742  0.4311  0.9018
  411PHE     HC 5340   4.646   0.120   3.495  0.2824  0.2761 -2.1768
  411PHE     HC 5341   4.712   0.039   3.271  1.3737 -1.3356 -0.0234
  411PHE     HC 5342   4.739   4.897   3.231  1.5435  0.0951 -0.4894
  411PHE     HO 5343   4.692   4.666   3.498  1.6833  0.1892 -0.2988
  412PHE     CO 5344   2.870   0.457   1.355  0.0812 -0.0598 -0.5157
  412PHE     CH 5345   2.975   0.377   1.401  0.1095  0.2809  0.0233
  412PHE     CH 5346   2.952   0.275   1.494  0.3832  0.0470 -0.1602
  412PHE     CH 5347   2.825   0.251   1.548  0.5565  0.4314  0.4346
  412PHE     CH 5348   2.723   0.333   1.498  0.5032  0.1681  0.1067
  412PHE     CH 5349   2.740   0.430   1.399  0.2229  0.1433  0.0321
  412PHE     OH 5350   2.890   0.554   1.261  0.1881  0.0704 -0.3579
  412PHE     HC 5351   3.072   0.396   1.357  0.9510 -1.1782  1.1515
  412PHE     HC 5352   3.039   0.221   1.529  0.6640  0.9940  0.6722
  412PHE     HC 5353   2.801   0.190   1.633  1.4659  1.0417  1.1475
  412PHE     HC 5354   2.623   0.311   1.533 -0.1469  1.3037 -0.9350
  412PHE     HC 5355   2.656   0.492   1.371  0.4357  0.0914 -0.7473
  412PHE     HO 5356   2.982   0.567   1.244  0.6681 -1.5138  0.8455
  413PHE     CO 5357   0.972   1.608   0.394 -0.3759  0.4791 -0.2153
  413PHE     CH 5358   0.873   1.594   0.492  0.0635 -0.8065  0.0622
  413PHE     CH 5359   0.739   1.610   0.453  0.2467  0.8585  0.0358
  413PHE     CH 5360   0.714   1.624   0.316 -0.4679 -0.7767 -0.0237
  413PHE     CH 5361   0.812   1.643   0.218 -0.3173 -0.6699  0.1466
  413PHE     CH 5362   0.946   1.636   0.259 -0.1152 -0.3044 -0.4363
  413PHE     OH 5363   1.104   1.597   0.427 -0.3387  0.2038 -0.4510
  413PHE     HC 5364   0.895   1.574   0.596 -0.1832  0.9811  0.4942
  413PHE     HC 5365   0.664   1.599   0.529  0.5387  0.8090  0.3206
  413PHE     HC 5366   0.610   1.636   0.291  0.0443  1.5951 -1.3507
  413PHE     HC 5367   0.797   1.681   0.118  3.1034 -0.3545 -0.3678
  413PHE     HC 5368   1.027   1.661   0.193  1.0058 -1.5892  0.4136
  413PHE     HO 5369   1.116   1.647   0.507 -0.7132  1.9717 -1.4347
  414PHE     CO 5370   3.922   0.495   1.672 -0.0839 -0.3446 -0.2448
  414PHE     CH 5371   3.993   0.390   1.732  0.2314  0.0791  0.1324
  414PHE     CH 5372   4.010   0.277   1.651 -0.2850  0.2656 -0.2413
  414PHE     CH 5373   3.951   0.263   1.525 -0.0432  0.0726 -0.3346
  414PHE     CH 5374   3.869   0.365   1.475 -0.2259 -0.0063 -0.1956
  414PHE     CH 5375   3.865   0.486   1.545  0.5079  0.2294 -0.5563
  414PHE     OH 5376   3.911   0.613   1.740  0.2308 -0.1546 -0.5232
  414PHE     HC 5377   4.041   0.413   1.826  1.0508 -0.8968 -0.0315
  414PHE     HC 5378   4.072   0.198   1.690 -0.0988  2.2397  4.0080
  414PHE     HC 5379   3.967   0.174   1.465  1.7853  0.4242 -0.4081
  414PHE     HC 5380   3.815   0.353   1.382 -0.4437  0.4899 -0.1363
  414PHE     HC 5381   3.805   0.564   1.499  1.0567  0.5147 -0.7932
  414PHE     HO 5382   3.839   0.652   1.692  0.4844  2.1192  0.7941
  415PHE     CO 5383   2.385   1.124   0.893 -0.1823 -0.0748  0.4161
  415PHE     CH 5384   2.501   1.087   0.824 -0.1487  0.4725  0.1693
  415PHE     CH 5385   2.610   1.174   0.821  0.1815  0.0425 -0.7057
  415PHE     CH 5386   2.607   1.294   0.894  0.5819 -0.3530 -0.0219
  415PHE     CH 5387   2.492   1.318   0.971  0.4914 -0.8684  0.0050
  415PHE     CH 5388   2.373   1.245   0.962 -0.0638 -0.0157  0.3340
  415PHE     OH 5389   2.272   1.047   0.888  0.1091 -0.4697 -0.2392
  415PHE     HC 5390   2.514   0.993   0.772 -1.7840 -1.9617  3.6941
  415PHE     HC 5391   2.700   1.138   0.774 -0.5863 -1.9730 -0.7107
  415PHE     HC 5392   2.697   1.353   0.897  1.2099 -1.1270 -2.1053
  415PHE     HC 5393   2.507   1.404   1.034  2.1408 -0.0848 -1.4027
  415PHE     HC 5394   2.281   1.276   1.010 -0.9390  0.6043 -1.6791
  415PHE     HO 5395   2.195   1.074   0.935  0.1650 -1.8458  0.6902
  416PHE     CO 5396   3.218   4.837   3.455 -0.1294  0.1912  0.3455
  416PHE     CH 5397   3.344   4.813   3.510 -0.1318  0.1010  0.3120
  416PHE     CH 5398   3.436   4.918   3.529 -0.0692  0.1446 -0.2127
  416PHE     CH 5399   3.398   5.048   3.495  0.5805  0.3484 -0.1632
  416PHE     CH 5400   3.269   5.071   3.446  0.4310 -0.0626  0.0331
  416PHE     CH 5401   3.177   4.968   3.427 -0.2359  0.3203  1.0907
  416PHE     OH 5402   3.124   4.739   3.445  0.2994 -0.1504 -0.3741
  416PHE     HC 5403   3.386   4.715   3.527  1.3332  0.4945 -0.8330
  416PHE     HC 5404   3.533   4.888   3.567 -0.3087  0.1821  0.4449
  416PHE     HC 5405   3.471   0.025   3.517  1.1060  0.5932 -2.5052
  416PHE     HC 5406   3.235   0.072   3.430 -2.1002 -0.6894  0.9586
  416PHE     HC 5407   3.073   4.980   3.399 -0.3056  1.1632  1.6820
  416PHE     HO 5408   3.035   4.766   3.431  0.0789 -1.6600 -2.4209
  417PHE     CO 5409   1.448   5.086   3.074  0.0960  0.1130  0.4023
  417PHE     CH 5410   1.477   0.065   2.961 -0.2414  0.4096  0.5187
  417PHE     CH 5411   1.468   0.204   2.964 -0.2218  0.4376 -0.4658
  417PHE     CH 5412   1.443   0.268   3.086  0.5193 -0.3219  0.0957
  417PHE     CH 5413   1.423   0.188   3.199 -0.2167  0.0259  0.2165
  417PHE     CH 5414   1.419   0.048   3.196 -0.1895  0.0205  0.3820
  417PHE     OH 5415   1.469   4.952   3.062 -0.2544  0.0569  0.4149
  417PHE     HC 5416   1.514   0.017   2.872  1.3561  2.6952 -0.1456
  417PHE     HC 5417   1.491   0.262   2.876 -0.4416 -0.1074 -0.8868
  417PHE     HC 5418   1.441   0.376   3.088 -1.2459 -0.3034 -0.9245
  417PHE     HC 5419   1.415   0.252   3.286  1.0250  1.1944 -0.4700
  417PHE     HC 5420   1.403   5.088   3.284 -1.7087  0.7520  0.6491
  417PHE     HO 5421   1.522   4.930   2.987  2.1167  1.8008  1.4599
  418PHE     CO 5422   4.406   1.197   2.504  0.4554 -0.0567 -0.6669
  418PHE     CH 5423   4.294   1.174   2.424 -0.1003  0.3813 -0.0310
  418PHE     CH 5424   4.230   1.284   2.364  0.2031  0.2149 -0.6729
  418PHE     CH 5425   4.273   1.414   2.393 -0.0505  0.1954 -0.1873
  418PHE     CH 5426   4.383   1.434   2.477 -0.5110 -0.1701  0.5073
  418PHE     CH 5427   4.456   1.326   2.529 -0.1063 -0.0081  0.2801
  418PHE     OH 5428   4.459   1.091   2.572  0.0084  0.0690 -0.1080
  418PHE     HC 5429   4.268   1.072   2.403 -0.1957  0.5245 -0.6482
  418PHE     HC 5430   4.140   1.263   2.307 -2.7971  3.3439  2.3818
  418PHE     HC 5431   4.230   1.500   2.345 -1.3117  0.2891  1.0579
  418PHE     HC 5432   4.405   1.535   2.508 -1.1549  0.1740 -0.1433
  418PHE     HC 5433   4.537   1.338   2.598  0.6308  0.9748 -0.7258
  418PHE     HO 5434   4.521   1.125   2.634 -1.1087  3.0414 -0.4305
  419PHE     CO 5435   0.026   4.157   1.032  0.4386 -0.0150 -0.9200
  419PHE     CH 5436   0.017   4.023   1.073  0.2039  0.3775  0.3709
  419PHE     CH 5437   0.129   3.940   1.058 -0.1658  0.0162 -0.4209
  419PHE     CH 5438   0.246   3.993   1.001  0.1717 -0.4105 -0.1236
  419PHE     CH 5439   0.259   4.131   0.985 -0.6426 -0.2694  0.3254
  419PHE     CH 5440   0.149   4.216   0.999  0.1082  0.8984 -0.5692
  419PHE     OH 5441   5.017   4.239   1.045  0.1265 -0.4647 -0.6726
  419PHE     HC 5442   5.021   3.982   1.102 -0.1496 -0.4999 -1.8421
  419PHE     HC 5443   0.111   3.838   1.087 -1.7419  0.5185  0.4909
  419PHE     HC 5444   0.330   3.927   0.983  3.2825  3.3025 -0.4509
  419PHE     HC 5445   0.356   4.174   0.964 -1.6694  1.9625 -0.1248
  419PHE     HC 5446   0.156   4.323   0.986  1.6839  0.9661  0.6117
  419PHE     HO 5447   5.016   4.307   0.979 -2.7389  1.0148  0.7262
  420PHE     CO 5448   0.016   0.279   4.911 -0.4607 -0.2005  0.1691
  420PHE     CH 5449   0.150   0.237   4.914 -0.1324  0.7973 -0.1186
  420PHE     CH 5450   0.243   0.288   5.005  0.4386 -0.1260 -0.1721
  420PHE     CH 5451   0.193   0.381   5.097  0.2508 -0.1081 -0.2903
  420PHE     CH 5452   0.061   0.426   5.098  0.0098 -0.8174 -0.1214
  420PHE     CH 5453   5.071   0.372   5.005 -0.5358  0.0433 -0.1047
  420PHE     OH 5454   5.023   0.223   4.828 -0.0491 -0.7659  0.0830
  420PHE     HC 5455   0.189   0.164   4.845  0.1770  1.3959 -0.5828
  420PHE     HC 5456   0.347   0.262   4.997  0.5048 -0.6973  1.9554
  420PHE     HC 5457   0.263   0.423   0.068 -0.7221  1.6027 -0.2795
  420PHE     HC 5458   0.034   0.508   0.062  1.5505  0.0438 -0.5330
  420PHE     HC 5459   4.965   0.392   4.998 -0.5773 -0.4455 -1.0571
  420PHE     HO 5460   5.054   0.145   4.785  2.1904  1.4497 -2.7515
  421PHE     CO 5461   4.113   0.310   4.965  0.3880  0.1771  0.0116
  421PHE     CH 5462   4.107   0.442   4.918  0.1415  0.1906  0.0796
  421PHE     CH 5463   4.030   0.538   4.983 -0.3028 -0.2173  0.1637
  421PHE     CH 5464   3.956   0.501   5.096 -0.1063  0.4255  0.5104
  421PHE     CH 5465   3.954   0.368   0.040  0.3752  0.1298 -0.3360
  421PHE     CH 5466   4.036   0.275   5.076  0.9156  0.1207  0.3635
  421PHE     OH 5467   4.168   0.209   4.892 -0.4112 -0.3670  0.1541
  421PHE     HC 5468   4.162   0.474   4.830  2.7981  0.6052  1.7671
  421PHE     HC 5469   4.027   0.634   4.934 -0.0746  0.0401  0.6443
  421PHE     HC 5470   3.898   0.581   0.040  0.1979 -0.0534  1.8443
  421PHE     HC 5471   3.893   0.349   0.127  2.3823  0.9319  1.3144
  421PHE     HC 5472   4.032   0.173   0.011 -0.3009  0.5814  1.6417
  421PHE     HO 5473   4.121   0.128   4.908 -0.8793  0.0279  0.7841
  422PHE     CO 5474   2.317   1.075   3.729  0.1061 -0.3075 -0.1378
  422PHE     CH 5475   2.180   1.105   3.732  0.2355  0.2415  0.7111
  422PHE     CH 5476   2.124   1.202   3.647  0.2903  0.2059  0.6349
  422PHE     CH 5477   2.205   1.269   3.555  0.0243 -0.1484  0.1400
  422PHE     CH 5478   2.342   1.244   3.557  0.0701  0.0826 -0.0089
  422PHE     CH 5479   2.399   1.153   3.647 -0.0312  0.4121  0.3922
  422PHE     OH 5480   2.365   0.972   3.804  0.0073 -0.0537  0.2855
  422PHE     HC 5481   2.103   1.056   3.790 -1.5391  1.5693 -0.4057
  422PHE     HC 5482   2.018   1.219   3.644  0.2363 -0.2349 -0.0692
  422PHE     HC 5483   2.166   1.341   3.484  1.2829 -3.1281 -3.9798
  422PHE     HC 5484   2.414   1.302   3.502 -0.3411  0.4866 -0.1227
  422PHE     HC 5485   2.506   1.143   3.656  0.2152  2.2199 -0.1806
  422PHE     HO 5486   2.447   0.991   3.847 -1.6284  0.6832  3.3148
  423PHE     CO 5487   0.309   4.384   1.381 -0.2978  0.0923  0.6589
  423PHE     CH 5488   0.191   4.399   1.307  0.1080 -0.1512 -0.0458
  423PHE     CH 5489   0.148   4.525   1.264 -0.0870  0.0001  0.5801
  423PHE     CH 5490   0.224   4.636   1.303  0.3146  0.0090 -0.2146
  423PHE     CH 5491   0.334   4.623   1.388 -0.1136 -0.1043  0.3213
  423PHE     CH 5492   0.381   4.496   1.423 -0.2764 -0.0103  0.8958
  423PHE     OH 5493   0.369   4.263   1.403 -0.1974  0.0569  0.1902
  423PHE     HC 5494   0.133   4.318   1.266 -0.0119  1.2079 -2.7452
  423PHE     HC 5495   0.067   4.543   1.196  0.2480  1.5566  0.5514
  423PHE     HC 5496   0.199   4.737   1.274 -0.0276  0.5211  1.7721
  423PHE     HC 5497   0.397   4.703   1.424  0.2769 -1.4219  2.7785
  423PHE     HC 5498   0.472   4.494   1.482 -0.1165 -0.2276  0.6433
  423PHE     HO 5499   0.350   4.202   1.333  1.8336 -1.5500  0.9578
  424PHE     CO 5500   5.055   1.030   2.489  0.1876 -0.5307 -0.1173
  424PHE     CH 5501   0.063   1.062   2.405 -0.2614 -0.3560 -0.6347
  424PHE     CH 5502   0.048   1.093   2.270 -0.1118  0.2031 -0.5272
  424PHE     CH 5503   5.018   1.097   2.218 -0.3359 -0.0952  0.0009
  424PHE     CH 5504   4.910   1.060   2.299 -0.2098 -0.6468 -0.0794
  424PHE     CH 5505   4.927   1.027   2.434  0.0744  0.1610  0.0882
  424PHE     OH 5506   5.076   1.026   2.624  0.5335  0.4968 -0.1242
  424PHE     HC 5507   0.158   1.069   2.456  1.0155 -1.4643 -2.7219
  424PHE     HC 5508   0.136   1.128   2.218 -0.3475  1.7112  0.0561
  424PHE     HC 5509   5.002   1.134   2.117 -1.6288  1.9505  0.8904
  424PHE     HC 5510   4.813   1.078   2.254  1.8474  2.7157 -3.7823
  424PHE     HC 5511   4.839   1.013   2.495 -0.9573  0.5505 -1.2603
  424PHE     HO 5512   0.056   1.067   2.650  0.4861 -0.6586  2.0917
  425PHE     CO 5513   0.533   4.810   3.366 -0.7782  0.1608  0.3420
  425PHE     CH 5514   0.538   4.875   3.490  0.5217  0.4853  0.1292
  425PHE     CH 5515   0.535   4.805   3.611  0.0168 -0.0326 -0.1786
  425PHE     CH 5516   0.539   4.665   3.605  0.2609 -0.0429  0.1815
  425PHE     CH 5517   0.533   4.596   3.483 -0.8588 -0.3140  0.3738
  425PHE     CH 5518   0.534   4.670   3.365  0.0598  0.1603  0.6664
  425PHE     OH 5519   0.540   4.883   3.250  0.7611 -0.3020  0.1261
  425PHE     HC 5520   0.534   4.983   3.500 -1.2408  0.4646 -0.1051
  425PHE     HC 5521   0.545   4.854   3.706  2.2694 -2.1881  0.8276
  425PHE     HC 5522   0.541   4.611   3.699  0.1567  0.7806  0.6726
  425PHE     HC 5523   0.537   4.489   3.474 -0.4061 -0.7619  4.1450
  425PHE     HC 5524   0.535   4.614   3.273 -3.7661 -0.7705  1.0466
  425PHE     HO 5525   0.471   4.946   3.239 -0.0845 -1.3777 -1.0019
  426PHE     CO 5526   4.241   1.043   1.891  0.2902  0.4199 -0.3145
  426PHE     CH 5527   4.179   1.168   1.876 -0.0862  0.2750  0.0131
  426PHE     CH 5528   4.210   1.278   1.957 -0.3422  0.3624 -0.0062
  426PHE     CH 5529   4.308   1.257   2.055 -1.0187 -0.4617  0.5026
  426PHE     CH 5530   4.380   1.137   2.063 -0.2474 -0.0315  0.0185
  426PHE     CH 5531   4.344   1.027   1.984  0.0684 -0.0233 -0.1391
  426PHE     OH 5532   4.219   0.942   1.802 -0.2597  0.3052 -0.0534
  426PHE     HC 5533   4.096   1.181   1.808  0.3426  3.3576 -0.0729
  426PHE     HC 5534   4.161   1.374   1.954  0.2577  0.7446  1.4231
  426PHE     HC 5535   4.338   1.344   2.111  1.0799  0.7690 -2.3129
  426PHE     HC 5536   4.459   1.124   2.136 -1.5849  0.3630  1.5941
  426PHE     HC 5537   4.401   0.937   1.995  0.9642  0.7707  2.2633
  426PHE     HO 5538   4.251   0.856   1.825 -3.2643 -0.5373  1.4820
  427PHE     CO 5539   0.043   0.137   1.569 -0.1642  0.2167  0.9016
  427PHE     CH 5540   5.065   0.205   1.474  0.2353  0.3004  0.6312
  427PHE     CH 5541   4.929   0.182   1.453  0.4280  0.0780 -0.4160
  427PHE     CH 5542   4.866   0.089   1.536  0.7599  0.6267  0.4602
  427PHE     CH 5543   4.937   0.020   1.634 -0.0636 -0.2075  0.4935
  427PHE     CH 5544   5.073   0.049   1.652  0.1513 -0.9033 -0.0048
  427PHE     OH 5545   0.175   0.168   1.588 -0.0472  0.1525  0.2166
  427PHE     HC 5546   0.007   0.279   1.408 -3.3678 -1.4861 -4.2659
  427PHE     HC 5547   4.883   0.235   1.370  3.0445  0.8392 -1.4789
  427PHE     HC 5548   4.763   0.075   1.505  0.9454 -0.1398  0.1626
  427PHE     HC 5549   4.904   5.038   1.696 -0.6480  1.3359  2.3335
  427PHE     HC 5550   0.030   5.099   1.729 -0.5277 -0.5153  0.7648
  427PHE     HO 5551   0.214   0.099   1.639  0.8476 -0.4044 -1.1725
  428PHE     CO 5552   1.902   4.537   0.484  0.2863 -0.8998 -0.2408
  428PHE     CH 5553   1.886   4.514   0.347  0.4518  0.1940 -0.4555
  428PHE     CH 5554   1.768   4.451   0.303 -0.0121  0.5342  0.2909
  428PHE     CH 5555   1.661   4.429   0.391 -0.0396 -0.0420  0.1119
  428PHE     CH 5556   1.677   4.462   0.526  0.4684  0.0462  0.0328
  428PHE     CH 5557   1.799   4.509   0.576  0.3867  0.0956  0.1885
  428PHE     OH 5558   2.016   4.596   0.530 -0.5194  0.1497  0.4456
  428PHE     HC 5559   1.963   4.534   0.275 -0.5012  0.0197 -1.5515
  428PHE     HC 5560   1.761   4.435   0.197  1.0521  0.4614  0.2186
  428PHE     HC 5561   1.567   4.388   0.358 -0.5768 -0.3024  1.8913
  428PHE     HC 5562   1.592   4.453   0.591  0.6855  0.9075  0.4575
  428PHE     HC 5563   1.803   4.534   0.681 -0.7306  0.9076  0.0574
  428PHE     HO 5564   2.069   4.641   0.466 -1.8167 -0.8727 -1.4342
  429PHE     CO 5565   4.312   0.886   1.097  0.1037 -0.4407 -0.1761
  429PHE     CH 5566   4.393   0.992   1.055  0.3408 -0.5377  0.0331
  429PHE     CH 5567   4.413   1.010   0.917 -0.3389 -0.3248 -0.0390
  429PHE     CH 5568   4.354   0.925   0.823  0.0142 -0.2651 -0.3169
  429PHE     CH 5569   4.274   0.819   0.868  0.0300  0.0348  0.4447
  429PHE     CH 5570   4.261   0.794   1.005  0.0175 -0.8626  0.2862
  429PHE     OH 5571   4.286   0.861   1.229  0.3224  0.2145 -0.0024
  429PHE     HC 5572   4.439   1.060   1.125 -0.4194 -0.2895  0.2947
  429PHE     HC 5573   4.474   1.095   0.890  1.4481 -1.9915 -1.4979
  429PHE     HC 5574   4.377   0.942   0.719  0.1034 -0.7038 -0.3711
  429PHE     HC 5575   4.223   0.759   0.794 -0.4190  1.4161 -0.4224
  429PHE     HC 5576   4.208   0.706   1.039  1.7374 -1.6207  1.0890
  429PHE     HO 5577   4.302   0.943   1.273 -1.7806  0.5218  0.2874
  430PHE     CO 5578   1.573   4.301   2.878 -0.0377 -0.1030  0.0285
  430PHE     CH 5579   1.572   4.179   2.946 -0.9259 -0.1207  0.0017
  430PHE     CH 5580   1.677   4.141   3.031 -0.7407  1.2886  0.4194
  430PHE     CH 5581   1.790   4.223   3.044 -0.0628  0.4012  0.1809
  430PHE     CH 5582   1.792   4.346   2.978 -0.0845  0.3384  0.0633
  430PHE     CH 5583   1.687   4.381   2.893 -0.0687 -0.0316 -0.1125
  430PHE     OH 5584   1.470   4.337   2.797  0.5132  0.7370 -0.3123
  430PHE     HC 5585   1.490   4.111   2.929 -3.1466  2.8931 -2.4020
  430PHE     HC 5586   1.686   4.047   3.084  2.7369  1.1435 -0.1627
  430PHE     HC 5587   1.876   4.195   3.103 -0.8143 -1.3100  0.5399
  430PHE     HC 5588   1.869   4.421   2.990 -0.6991  1.1725 -1.0541
  430PHE     HC 5589   1.697   4.481   2.853 -3.7658  0.5604  0.0744
  430PHE     HO 5590   1.484   4.415   2.746 -1.7709  0.0455 -2.2078
  431PHE     CO 5591   3.749   4.303   1.314 -0.2759  0.3596  0.5312
  431PHE     CH 5592   3.625   4.368   1.322 -0.4164  0.1900 -0.1877
  431PHE     CH 5593   3.510   4.293   1.351 -0.4935  0.2191 -0.4239
  431PHE     CH 5594   3.525   4.155   1.370 -0.0843  0.3514  0.2483
  431PHE     CH 5595   3.648   4.089   1.360 -0.3918 -0.2056  0.0829
  431PHE     CH 5596   3.763   4.165   1.335 -0.7022  0.2315 -0.0167
  431PHE     OH 5597   3.856   4.383   1.285 -0.3505  0.4215  0.4259
  431PHE     HC 5598   3.613   4.469   1.287 -2.0520 -0.6622 -2.3140
  431PHE     HC 5599   3.414   4.342   1.352  0.4087  2.3586 -3.3863
  431PHE     HC 5600   3.437   4.095   1.389 -0.7712  1.5732  1.0175
  431PHE     HC 5601   3.657   3.982   1.372  1.1692  0.0615  1.9586
  431PHE     HC 5602   3.855   4.109   1.325 -1.1450 -0.6945  0.9505
  431PHE     HO 5603   3.936   4.333   1.292 -0.6521  0.0088  1.0178
  432PHE     CO 5604   2.232   4.866   0.423  0.4063  0.0502 -0.1857
  432PHE     CH 5605   2.199   4.987   0.485  0.5942  0.0704 -0.1242
  432PHE     CH 5606   2.287   5.060   0.566  0.6994 -0.5426  0.3169
  432PHE     CH 5607   2.416   5.009   0.585  1.1593  0.4598 -0.0417
  432PHE     CH 5608   2.449   4.885   0.528 -0.3793  0.3429 -0.7299
  432PHE     CH 5609   2.358   4.812   0.451 -0.0970 -0.9699  0.1518
  432PHE     OH 5610   2.149   4.794   0.342 -0.1225  0.1442  0.2704
  432PHE     HC 5611   2.097   5.024   0.484 -0.3196 -2.2934  0.2121
  432PHE     HC 5612   2.243   0.051   0.605 -1.0320 -1.8839  1.6565
  432PHE     HC 5613   2.489   5.064   0.643  0.3624  1.2615  0.2165
  432PHE     HC 5614   2.545   4.840   0.548 -0.3379  1.0123  0.7048
  432PHE     HC 5615   2.371   4.717   0.402 -1.7082 -2.1502  1.8738
  432PHE     HO 5616   2.060   4.826   0.339  0.3367  1.7311  1.7185
  433PHE     CO 5617   2.228   3.995   3.152 -0.3554 -0.0752  0.2778
  433PHE     CH 5618   2.317   4.097   3.192 -0.2844  0.1464 -0.4304
  433PHE     CH 5619   2.319   4.209   3.108 -0.1777  0.1673 -0.3983
  433PHE     CH 5620   2.240   4.221   2.993 -0.0146  0.3171 -0.4954
  433PHE     CH 5621   2.147   4.123   2.957  0.5773 -0.3247 -0.3009
  433PHE     CH 5622   2.143   4.012   3.042  0.2240 -0.2378 -0.2029
  433PHE     OH 5623   2.219   3.881   3.225  0.3718 -0.2955  0.0386
  433PHE     HC 5624   2.383   4.095   3.276 -1.0842  1.0753  0.2390
  433PHE     HC 5625   2.385   4.291   3.133 -1.3794  1.1995 -0.5055
  433PHE     HC 5626   2.256   4.310   2.934  0.4790  0.3282 -0.3536
  433PHE     HC 5627   2.086   4.120   2.868  1.1890 -1.8313 -0.7046
  433PHE     HC 5628   2.079   3.927   3.024 -0.0105  0.1800 -1.4476
  433PHE     HO 5629   2.142   3.831   3.203 -0.3984  0.8475  0.0484
  434PHE     CO 5630   0.981   3.236   2.865  0.3571 -0.0628 -0.0048
  434PHE     CH 5631   0.953   3.099   2.858 -0.1730  0.0311  0.1694
  434PHE     CH 5632   0.863   3.030   2.940  0.5236 -0.5971  0.4192
  434PHE     CH 5633   0.791   3.108   3.031  0.0960 -0.0063 -0.4168
  434PHE     CH 5634   0.818   3.245   3.044 -0.0521  0.0061 -0.2405
  434PHE     CH 5635   0.906   3.310   2.957  0.3117 -0.1372  0.0185
  434PHE     OH 5636   1.069   3.294   2.779  0.1476  0.1450 -0.0792
  434PHE     HC 5637   1.008   3.046   2.780  2.1818  1.2788  0.8798
  434PHE     HC 5638   0.849   2.924   2.928  1.7197 -0.5642 -1.8171
  434PHE     HC 5639   0.717   3.049   3.083  0.8503 -0.5072  0.1086
  434PHE     HC 5640   0.752   3.304   3.107  0.8310  1.3428 -0.5465
  434PHE     HC 5641   0.911   3.418   2.965 -2.3798  0.1465 -0.9836
  434PHE     HO 5642   1.073   3.386   2.803  1.2228 -0.2985  1.6031
  435PHE     CO 5643   2.336   1.892   1.202  0.6798 -0.3256 -0.2024
  435PHE     CH 5644   2.434   1.806   1.252  0.1327 -0.7806  0.0932
  435PHE     CH 5645   2.564   1.855   1.268 -0.3652  0.6472 -0.0936
  435PHE     CH 5646   2.602   1.980   1.217 -0.0447  0.2834 -0.7661
  435PHE     CH 5647   2.505   2.061   1.157  0.1679  0.9822 -0.1703
  435PHE     CH 5648   2.372   2.019   1.154  0.5449 -0.2429 -0.0865
  435PHE     OH 5649   2.206   1.851   1.209  0.4384  0.4883  0.2624
  435PHE     HC 5650   2.416   1.704   1.284  2.4206 -1.1691  0.2819
  435PHE     HC 5651   2.644   1.792   1.305  0.8007  2.2613  0.2550
  435PHE     HC 5652   2.708   2.002   1.225  0.0380  0.5871 -2.3219
  435PHE     HC 5653   2.543   2.155   1.119  3.0218  0.3056  0.7199
  435PHE     HC 5654   2.298   2.081   1.106 -0.4055 -2.7026 -2.0128
  435PHE     HO 5655   2.190   1.795   1.284  0.8925 -1.6868 -1.1865
  436PHE     CO 5656   3.674   4.784   1.473 -0.0201 -0.0147  0.5034
  436PHE     CH 5657   3.733   4.660   1.502 -0.2214 -0.1680  0.2633
  436PHE     CH 5658   3.717   4.605   1.630 -0.4669 -0.2889  0.1809
  436PHE     CH 5659   3.646   4.678   1.726 -0.1277 -0.6985  0.7490
  436PHE     CH 5660   3.581   4.799   1.698  0.7403 -0.2832  0.4838
  436PHE     CH 5661   3.602   4.853   1.570  0.5533  0.3094  0.7032
  436PHE     OH 5662   3.698   4.840   1.351 -0.6197  0.3013  0.5254
  436PHE     HC 5663   3.790   4.618   1.421 -1.4550  0.6358 -1.0657
  436PHE     HC 5664   3.772   4.515   1.651  0.6028 -0.3702 -2.5273
  436PHE     HC 5665   3.641   4.646   1.829  0.3711 -0.3624  0.8832
  436PHE     HC 5666   3.523   4.851   1.773 -2.2283  0.3776 -2.0432
  436PHE     HC 5667   3.565   4.953   1.549  2.2190  0.6395 -0.8576
  436PHE     HO 5668   3.657   4.925   1.357  2.0799  1.7014  1.2305
  437PHE     CO 5669   2.433   1.089   0.184  0.0552  0.2160  0.3263
  437PHE     CH 5670   2.481   0.968   0.237  0.1814  0.3634  0.5504
  437PHE     CH 5671   2.491   0.954   0.376 -0.3791  0.0396  0.5624
  437PHE     CH 5672   2.462   1.065   0.457 -0.5006  0.0974  0.4396
  437PHE     CH 5673   2.443   1.191   0.399 -0.1128 -0.0582 -0.0353
  437PHE     CH 5674   2.416   1.204   0.262 -0.6843  0.2579  0.1053
  437PHE     OH 5675   2.416   1.095   0.049  0.3687 -0.4653  0.2515
  437PHE     HC 5676   2.488   0.885   0.168 -1.6394  0.8219 -0.2679
  437PHE     HC 5677   2.514   0.858   0.420 -1.6193 -0.6027 -0.1351
  437PHE     HC 5678   2.472   1.043   0.562  0.0324  0.4722  0.4708
  437PHE     HC 5679   2.439   1.266   0.476  1.0343  0.4669 -0.4798
  437PHE     HC 5680   2.389   1.300   0.222 -1.7054  0.3235  0.9025
  437PHE     HO 5681   2.461   1.026   0.003  1.2033 -0.7188  1.4103
  438PHE     CO 5682   0.475   0.478   2.812  0.5439  0.1661  0.7020
  438PHE     CH 5683   0.486   0.603   2.874  0.5578  0.4106  0.2042
  438PHE     CH 5684   0.378   0.639   2.955 -0.0345 -0.3954 -0.2187
  438PHE     CH 5685   0.259   0.566   2.967 -0.0733 -0.2225  0.5092
  438PHE     CH 5686   0.254   0.440   2.905 -0.1500 -0.0280  0.1230
  438PHE     CH 5687   0.358   0.402   2.819  0.2158  0.6277  0.2661
  438PHE     OH 5688   0.589   0.437   2.750  0.3123  0.7455 -0.1273
  438PHE     HC 5689   0.577   0.660   2.862  1.7957 -1.8781 -2.3698
  438PHE     HC 5690   0.387   0.724   3.021  0.5256 -0.1541 -0.6026
  438PHE     HC 5691   0.175   0.600   3.025 -0.9532 -0.4632 -0.5809
  438PHE     HC 5692   0.176   0.366   2.913 -0.6000  0.4349  0.1262
  438PHE     HC 5693   0.348   0.306   2.771 -0.4057  0.8548 -0.0800
  438PHE     HO 5694   0.660   0.444   2.812  0.3833 -1.5563  0.1402
  439PHE     CO 5695   2.468   4.604   5.030  0.5171 -0.0955  0.1096
  439PHE     CH 5696   2.469   4.698   4.927 -0.7970 -0.3209 -0.1245
  439PHE     CH 5697   2.462   4.836   4.954 -0.0871 -0.2816 -0.1310
  439PHE     CH 5698   2.437   4.872   5.086 -0.1529 -0.3283 -0.1306
  439PHE     CH 5699   2.419   4.781   0.091  0.3593  0.0431  0.2842
  439PHE     CH 5700   2.422   4.645   0.056 -0.1720  0.1578 -0.2206
  439PHE     OH 5701   2.482   4.472   4.998  0.0589 -0.1424  0.1002
  439PHE     HC 5702   2.486   4.674   4.823  1.1368 -0.6953  0.2529
  439PHE     HC 5703   2.476   4.913   4.879  2.4148  0.4948  1.0508
  439PHE     HC 5704   2.428   4.978   0.004 -3.8836 -0.1296 -2.1538
  439PHE     HC 5705   2.390   4.805   0.192  1.3339 -0.1693  0.6284
  439PHE     HC 5706   2.398   4.579   0.138  0.0624 -0.1648 -0.4116
  439PHE     HO 5707   2.507   4.451   4.910  0.3554  0.8847 -0.0700
  440PHE     CO 5708   2.731   0.206   1.075  0.1058  0.6801  0.0827
  440PHE     CH 5709   2.787   0.152   0.959 -0.2342  0.3543  0.0697
  440PHE     CH 5710   2.751   0.200   0.833 -0.9343 -0.9339 -0.2459
  440PHE     CH 5711   2.654   0.300   0.823  0.2582  0.2559 -0.3249
  440PHE     CH 5712   2.589   0.349   0.937 -0.1693 -0.2162 -0.3554
  440PHE     CH 5713   2.633   0.306   1.062 -0.4764  0.0876 -0.1418
  440PHE     OH 5714   2.766   0.161   1.199 -0.0083  0.7569  0.1440
  440PHE     HC 5715   2.861   0.074   0.959 -1.9268 -1.3484 -0.8485
  440PHE     HC 5716   2.800   0.169   0.742 -0.3325 -0.7774  0.0159
  440PHE     HC 5717   2.634   0.338   0.723  2.6164 -0.5177 -1.1565
  440PHE     HC 5718   2.512   0.424   0.932  2.9572  3.2630 -1.2563
  440PHE     HC 5719   2.582   0.343   1.150 -0.6668 -0.2193 -0.1219
  440PHE     HO 5720   2.766   0.230   1.264 -0.7334 -0.2232  1.2234
  441PHE     CO 5721   1.013   1.177   1.978 -0.2521  0.1266 -0.2634
  441PHE     CH 5722   0.898   1.099   1.957 -0.0591 -0.1463 -0.3091
  441PHE     CH 5723   0.777   1.126   2.022  0.2268  0.4130  0.0060
  441PHE     CH 5724   0.767   1.232   2.112  0.1291  0.1718  0.2794
  441PHE     CH 5725   0.883   1.305   2.143  0.4249 -0.5356  0.8885
  441PHE     CH 5726   1.001   1.280   2.072 -0.0520  0.0302 -0.1318
  441PHE     OH 5727   1.124   1.149   1.905  0.2174  0.4109  0.3296
  441PHE     HC 5728   0.902   1.024   1.879  0.7480 -0.2431 -0.1917
  441PHE     HC 5729   0.688   1.075   1.989 -1.2099  2.0989  1.0973
  441PHE     HC 5730   0.675   1.255   2.164 -0.6921 -2.1357 -0.0496
  441PHE     HC 5731   0.882   1.391   2.209 -0.2711 -1.1489  1.7033
  441PHE     HC 5732   1.087   1.341   2.097 -2.1881  2.5895  1.5188
  441PHE     HO 5733   1.132   1.087   1.834  2.0001  0.2838  0.5792
  442PHE     CO 5734   1.486   0.793   1.502 -0.2816  0.4583  0.7358
  442PHE     CH 5735   1.473   0.915   1.436  0.6649  0.0559 -0.2146
  442PHE     CH 5736   1.584   0.998   1.411  0.2651  0.6868  0.0870
  442PHE     CH 5737   1.708   0.969   1.469 -0.1507 -0.3118  0.5122
  442PHE     CH 5738   1.717   0.855   1.549  0.0522  0.0374  0.9863
  442PHE     CH 5739   1.606   0.772   1.571 -0.0860  0.0323  0.2707
  442PHE     OH 5740   1.394   0.694   1.481 -0.0594  0.3378  0.3187
  442PHE     HC 5741   1.375   0.934   1.396  0.5096  1.1440  0.6428
  442PHE     HC 5742   1.564   1.089   1.357  1.5013  0.0757 -1.4533
  442PHE     HC 5743   1.792   1.036   1.454  0.1794 -0.4951  1.4937
  442PHE     HC 5744   1.810   0.833   1.600  1.7370  1.7469 -1.1529
  442PHE     HC 5745   1.611   0.683   1.631  1.5539 -0.5537 -0.6505
  442PHE     HO 5746   1.406   0.623   1.541 -0.7053  0.1395  0.2176
  443PHE     CO 5747   0.375   2.552   1.560  0.3314  0.1413 -0.1899
  443PHE     CH 5748   0.307   2.495   1.451  0.2241 -0.0755 -0.0070
  443PHE     CH 5749   0.210   2.567   1.381 -0.0962  0.3211  0.8250
  443PHE     CH 5750   0.189   2.701   1.416 -0.2725  0.6457 -0.4848
  443PHE     CH 5751   0.264   2.761   1.518  0.2452 -0.0552 -0.4500
  443PHE     CH 5752   0.352   2.685   1.597 -0.1456 -0.0045  0.0385
  443PHE     OH 5753   0.477   2.482   1.616  0.0780 -0.2943 -0.2764
  443PHE     HC 5754   0.304   2.389   1.429 -0.9694  0.0547 -0.5531
  443PHE     HC 5755   0.155   2.531   1.296  0.2704  0.6867  0.4250
  443PHE     HC 5756   0.114   2.750   1.355 -1.1210  0.5826  0.4980
  443PHE     HC 5757   0.251   2.865   1.542 -1.0757  0.4807 -3.1315
  443PHE     HC 5758   0.404   2.733   1.678 -1.3572  0.0290  0.8164
  443PHE     HO 5759   0.510   2.524   1.694  0.8542  1.8266 -1.6719
  444PHE     CO 5760   4.521   0.232   5.034 -0.0372  0.0117 -0.2354
  444PHE     CH 5761   4.510   0.164   4.912  0.2262 -0.2476 -0.1165
  444PHE     CH 5762   4.613   0.081   4.867 -0.2638 -1.1096  0.3071
  444PHE     CH 5763   4.738   0.072   4.931  0.2765 -0.2141 -0.5775
  444PHE     CH 5764   4.749   0.139   5.053 -0.2945 -0.2091 -0.5219
  444PHE     CH 5765   4.642   0.215   0.002 -0.3996 -0.8237  0.2181
  444PHE     OH 5766   4.420   0.305   5.089 -0.3990 -0.2336 -0.5734
  444PHE     HC 5767   4.415   0.161   4.861  0.9621 -1.0271 -1.5032
  444PHE     HC 5768   4.608   0.021   4.777  4.0459 -1.0271 -0.2431
  444PHE     HC 5769   4.821   0.013   4.895  0.0715 -0.1713 -1.1401
  444PHE     HC 5770   4.830   0.125   0.023 -0.0203 -0.3844 -0.8693
  444PHE     HC 5771   4.654   0.270   0.094  0.0720 -1.5395  0.6029
  444PHE     HO 5772   4.335   0.263   5.091 -0.9155  0.8054  0.0183
  445PHE     CO 5773   1.005   3.196   1.395 -0.1294 -0.3960 -0.6314
  445PHE     CH 5774   0.930   3.180   1.512  0.1286  0.5081 -0.3398
  445PHE     CH 5775   0.791   3.196   1.512  0.1682  0.9138  0.5018
  445PHE     CH 5776   0.728   3.231   1.392 -0.0053 -0.0372  0.3105
  445PHE     CH 5777   0.801   3.258   1.276 -0.5354 -0.0129 -0.0214
  445PHE     CH 5778   0.940   3.237   1.278 -0.5592 -0.1948 -0.3235
  445PHE     OH 5779   1.137   3.165   1.403  0.0102  0.3154 -0.0911
  445PHE     HC 5780   0.971   3.138   1.603 -1.5826 -2.1587 -0.6955
  445PHE     HC 5781   0.726   3.167   1.593  0.1618 -3.4628 -0.8235
  445PHE     HC 5782   0.620   3.233   1.389  0.0302  0.4850 -0.8685
  445PHE     HC 5783   0.763   3.298   1.183 -1.0478  1.2777  0.7049
  445PHE     HC 5784   0.995   3.254   1.187  0.8474 -1.1210  0.3214
  445PHE     HO 5785   1.163   3.135   1.489 -2.1059  2.0577  1.2387
  446PHE     CO 5786   0.561   4.450   4.537  0.2002  0.4197 -0.0773
  446PHE     CH 5787   0.534   4.490   4.668 -0.1957  0.7478 -0.2538
  446PHE     CH 5788   0.419   4.566   4.693  0.3564  1.5637 -0.1444
  446PHE     CH 5789   0.333   4.602   4.589 -0.2653  0.1143 -0.1610
  446PHE     CH 5790   0.364   4.562   4.458  0.0913  0.2912 -0.1324
  446PHE     CH 5791   0.478   4.487   4.430 -0.3298 -0.4183  0.0240
  446PHE     OH 5792   0.684   4.399   4.509 -0.0713 -0.1440 -0.2825
  446PHE     HC 5793   0.601   4.473   4.751  1.8768 -1.6988 -2.2503
  446PHE     HC 5794   0.389   4.609   4.787 -2.9742  1.7941 -1.1859
  446PHE     HC 5795   0.247   4.663   4.610  0.4690  0.3833  2.3967
  446PHE     HC 5796   0.302   4.598   4.377 -2.4716  0.3252  1.7063
  446PHE     HC 5797   0.502   4.457   4.329 -0.2563  1.6348 -0.6173
  446PHE     HO 5798   0.739   4.396   4.586 -0.1360  1.0027 -0.1667
  447PHE     CO 5799   4.672   1.199   2.826 -0.1000 -0.1934  0.3068
  447PHE     CH 5800   4.594   1.266   2.920 -0.9740  0.6544 -0.9844
  447PHE     CH 5801   4.624   1.401   2.941  0.4102  0.2418 -0.1240
  447PHE     CH 5802   4.726   1.467   2.870  0.5678  0.3552  0.2061
  447PHE     CH 5803   4.798   1.400   2.770 -0.2335  0.3641 -0.3904
  447PHE     CH 5804   4.769   1.265   2.748 -0.2184  0.2082  0.4992
  447PHE     OH 5805   4.649   1.068   2.794  0.4090 -0.2327  0.0773
  447PHE     HC 5806   4.515   1.218   2.976 -0.8989  0.3950 -1.1023
  447PHE     HC 5807   4.568   1.457   3.014  4.3459  1.5290  2.2147
  447PHE     HC 5808   4.742   1.571   2.892  1.2519 -0.2132  2.8326
  447PHE     HC 5809   4.867   1.461   2.714 -1.9049  1.0976 -1.7379
  447PHE     HC 5810   4.828   1.216   2.672 -1.3391  0.6678 -0.7178
  447PHE     HO 5811   4.730   1.019   2.797  0.3423 -0.3439  0.0705
  448PHE     CO 5812   3.119   0.281   4.760 -0.3556  0.6059 -0.3064
  448PHE     CH 5813   3.045   0.314   4.874  0.4626  0.0156  0.4062
  448PHE     CH 5814   2.984   0.212   4.949  0.0366 -0.1625 -0.1736
  448PHE     CH 5815   2.985   0.082   4.899  0.3549 -0.2230 -0.0135
  448PHE     CH 5816   3.068   0.048   4.791  0.1634  0.2500 -0.3137
  448PHE     CH 5817   3.135   0.148   4.719  0.3057  0.5282  0.2012
  448PHE     OH 5818   3.207   0.360   4.691 -0.4680  1.0802  0.0925
  448PHE     HC 5819   3.057   0.412   4.917 -1.2193 -0.2249  1.5419
  448PHE     HC 5820   2.948   0.244   5.045  4.4730  3.6525  0.5980
  448PHE     HC 5821   2.933   0.005   4.954 -0.2576  0.1803 -0.0217
  448PHE     HC 5822   3.078   5.044   4.763 -0.0297  0.1999 -0.2014
  448PHE     HC 5823   3.202   0.122   4.638  0.1799  1.1899 -0.1218
  448PHE     HO 5824   3.224   0.432   4.750 -1.1808  0.0657  1.6043
  449PHE     CO 5825   0.884   4.086   0.031  0.3311  0.2208  0.1132
  449PHE     CH 5826   0.860   3.951   0.003  0.2724  0.2884 -0.1597
  449PHE     CH 5827   0.735   3.919   5.048 -0.2585  0.2443  1.0445
  449PHE     CH 5828   0.637   4.015   5.022  0.2616  0.3569 -0.5942
  449PHE     CH 5829   0.663   4.145   5.065  0.2762  0.2168 -0.1811
  449PHE     CH 5830   0.787   4.186   0.015  0.1242  0.0586  0.3386
  449PHE     OH 5831   1.009   4.114   0.077  0.3925  0.1720 -0.0240
  449PHE     HC 5832   0.946   3.886   0.004  0.9108  1.0650 -1.7181
  449PHE     HC 5833   0.711   3.816   5.026  0.9290 -0.1060  1.2997
  449PHE     HC 5834   0.541   3.991   4.978 -1.6174 -1.9042  4.1290
  449PHE     HC 5835   0.589   4.221   5.042  0.1212 -0.4475 -2.0149
  449PHE     HC 5836   0.806   4.290   0.037 -2.0093  0.0364  2.6898
  449PHE     HO 5837   1.006   4.204   0.105 -2.4691  0.2907 -0.4808
  450PHE     CO 5838   2.912   4.609   2.599  0.8651  0.5879 -0.1455
  450PHE     CH 5839   3.028   4.535   2.627  0.6755  0.4748  0.3503
  450PHE     CH 5840   3.124   4.523   2.525  0.1399  0.4771 -0.1576
  450PHE     CH 5841   3.102   4.583   2.401 -0.2362  0.7022  0.0145
  450PHE     CH 5842   2.980   4.647   2.377 -0.4216  0.3422 -0.0107
  450PHE     CH 5843   2.879   4.662   2.474 -0.4614  0.1021 -0.0159
  450PHE     OH 5844   2.817   4.622   2.696 -0.0065 -0.0032 -0.9037
  450PHE     HC 5845   3.035   4.487   2.724 -1.4024  0.0813  0.3543
  450PHE     HC 5846   3.219   4.475   2.542  0.1542  1.0252  1.5138
  450PHE     HC 5847   3.167   4.586   2.315 -2.2904  1.1949 -1.6055
  450PHE     HC 5848   2.977   4.686   2.276  1.1705 -1.4296 -0.8016
  450PHE     HC 5849   2.792   4.720   2.450 -0.8478 -0.1349  0.7835
  450PHE     HO 5850   2.854   4.565   2.762 -1.4308 -0.5011 -0.5159
  451PHE     CO 5851   3.239   4.797   0.224 -0.2721 -0.5131 -0.0479
  451PHE     CH 5852   3.259   4.792   0.086 -0.0254 -0.1931 -0.0242
  451PHE     CH 5853   3.362   4.713   0.034  0.3432  0.2377  0.0475
  451PHE     CH 5854   3.456   4.647   0.114  0.2637  0.2897  0.1853
  451PHE     CH 5855   3.439   4.659   0.252  0.5385  0.1042  0.2375
  451PHE     CH 5856   3.330   4.729   0.306 -0.2938 -0.7935 -0.2559
  451PHE     OH 5857   3.132   4.860   0.281 -0.0402 -0.1191 -0.0522
  451PHE     HC 5858   3.193   4.847   0.020  1.0019  0.7730 -0.2673
  451PHE     HC 5859   3.365   4.710   5.026  1.0831  2.1894 -0.0268
  451PHE     HC 5860   3.540   4.589   0.078 -0.2794 -0.2854 -0.1711
  451PHE     HC 5861   3.513   4.615   0.316 -0.8527 -0.1464  1.7537
  451PHE     HC 5862   3.316   4.734   0.413 -1.6549  0.8846 -0.4653
  451PHE     HO 5863   3.088   4.910   0.214 -0.6566 -0.9386 -0.2756
  452PHE     CO 5864   4.465   4.055   1.150  0.2579 -0.0663 -0.7533
  452PHE     CH 5865   4.499   3.945   1.230 -0.2574  0.2125 -0.1331
  452PHE     CH 5866   4.402   3.852   1.270 -0.0318  0.1153  0.1880
  452PHE     CH 5867   4.269   3.873   1.232 -0.0899  0.5563  0.6229
  452PHE     CH 5868   4.235   3.988   1.159  0.0063  0.5496  0.5678
  452PHE     CH 5869   4.332   4.077   1.111  0.0105  0.4016  0.2999
  452PHE     OH 5870   4.560   4.148   1.123  0.1302  0.0860 -0.6798
  452PHE     HC 5871   4.601   3.936   1.264 -0.9914  1.0085  2.5039
  452PHE     HC 5872   4.446   3.775   1.332  0.4636  1.7714  2.0206
  452PHE     HC 5873   4.189   3.809   1.267 -0.2005  0.2394 -0.1970
  452PHE     HC 5874   4.132   4.011   1.136  1.3777  4.1616 -3.0899
  452PHE     HC 5875   4.304   4.165   1.055 -3.3273 -0.3598  0.5488
  452PHE     HO 5876   4.649   4.131   1.151 -0.7742 -0.9147  1.8761
  453PHE     CO 5877   1.424   4.493   3.229  0.8601 -0.3710 -0.1622
  453PHE     CH 5878   1.453   4.612   3.297 -0.4638 -0.0025 -0.2115
  453PHE     CH 5879   1.514   4.606   3.423  0.0997 -0.5541 -0.5029
  453PHE     CH 5880   1.543   4.480   3.476 -0.0446 -0.3262  0.1251
  453PHE     CH 5881   1.525   4.360   3.405 -0.1083 -0.4958  0.4269
  453PHE     CH 5882   1.466   4.368   3.279  0.5208 -0.3663  0.1385
  453PHE     OH 5883   1.368   4.504   3.105 -0.7624  0.4618  0.6163
  453PHE     HC 5884   1.424   4.702   3.245 -1.1166 -0.4314 -0.6163
  453PHE     HC 5885   1.534   4.690   3.487  0.2113 -0.5186 -0.5842
  453PHE     HC 5886   1.587   4.483   3.574  1.6599  0.6093 -0.6277
  453PHE     HC 5887   1.556   4.263   3.442  4.1002 -0.0116 -1.3062
  453PHE     HC 5888   1.443   4.278   3.224 -1.5796 -0.0041  0.3119
  453PHE     HO 5889   1.325   4.426   3.073  1.6548 -0.6209 -0.2502
  454PHE     CO 5890   0.841   0.744   0.982 -0.4489  0.1321 -0.1224
  454PHE     CH 5891   0.822   0.810   0.860 -0.2959  0.2735 -0.0706
  454PHE     CH 5892   0.731   0.916   0.851 -0.3733  0.1882 -0.2977
  454PHE     CH 5893   0.650   0.948   0.961 -0.1608  0.4055 -0.2038
  454PHE     CH 5894   0.659   0.869   1.076  0.1803 -0.1815 -0.6190
  454PHE     CH 5895   0.758   0.772   1.092 -0.1811 -0.4254  0.2231
  454PHE     OH 5896   0.938   0.649   0.988 -0.8457 -0.2426  0.4714
  454PHE     HC 5897   0.881   0.779   0.775 -0.1975  3.4159 -1.2761
  454PHE     HC 5898   0.711   0.956   0.752 -0.8086  0.6736 -0.0204
  454PHE     HC 5899   0.577   1.026   0.953 -0.4133  0.1908  0.0188
  454PHE     HC 5900   0.595   0.895   1.160  0.0136 -3.3805  0.3535
  454PHE     HC 5901   0.766   0.722   1.187  1.2572  0.6724  0.7037
  454PHE     HO 5902   0.964   0.605   1.068 -1.6688 -0.7060  0.4954
  455PHE     CO 5903   2.324   4.180   0.637  0.1181  0.2554  0.3772
  455PHE     CH 5904   2.210   4.262   0.632  0.0788  0.1663 -0.1850
  455PHE     CH 5905   2.089   4.206   0.675  0.2643  0.0367  0.1723
  455PHE     CH 5906   2.081   4.073   0.716  0.2659  0.0024  0.0607
  455PHE     CH 5907   2.200   3.999   0.727  0.3063 -0.0042 -0.3869
  455PHE     CH 5908   2.322   4.047   0.680  0.2418 -0.0715 -0.6215
  455PHE     OH 5909   2.436   4.237   0.585 -0.3296  0.3868 -0.4688
  455PHE     HC 5910   2.211   4.361   0.589  2.5474  0.9112  1.3914
  455PHE     HC 5911   1.995   4.260   0.676  0.7888  1.0068 -0.9070
  455PHE     HC 5912   1.984   4.027   0.730  0.4503 -0.2854  0.4294
  455PHE     HC 5913   2.188   3.898   0.762 -2.2436  0.7607  1.2933
  455PHE     HC 5914   2.410   3.986   0.662  2.5535  3.0507 -0.7227
  455PHE     HO 5915   2.468   4.179   0.518  0.4318  0.0542  0.1559
  456PHE     CO 5916   1.908   4.252   2.341  0.0661  0.2998  0.8745
  456PHE     CH 5917   2.002   4.149   2.337  0.1606  0.4052  0.3450
  456PHE     CH 5918   2.021   4.067   2.449  0.3872 -0.1988 -0.1288
  456PHE     CH 5919   1.950   4.099   2.565  0.1519 -0.3517 -0.2295
  456PHE     CH 5920   1.856   4.203   2.568  0.0402 -0.4645  0.2437
  456PHE     CH 5921   1.828   4.278   2.453 -0.0514  0.3374  0.7827
  456PHE     OH 5922   1.892   4.331   2.231  0.1079 -0.3974  0.3630
  456PHE     HC 5923   2.062   4.138   2.248  0.2306 -1.2188  0.5575
  456PHE     HC 5924   2.100   3.995   2.435  0.0749 -0.3802 -1.0292
  456PHE     HC 5925   1.966   4.056   2.663  0.8787 -1.2205 -0.7106
  456PHE     HC 5926   1.803   4.223   2.660  1.2167 -1.2306  1.1281
  456PHE     HC 5927   1.755   4.357   2.456  2.4265  2.7432  1.4892
  456PHE     HO 5928   1.815   4.385   2.242 -1.6715 -2.0760 -2.6085
  457PHE     CO 5929   3.006   4.414   3.565  0.2501 -0.0166 -0.4089
  457PHE     CH 5930   3.002   4.288   3.504  0.3854 -0.1850 -0.0760
  457PHE     CH 5931   3.111   4.221   3.448  0.4248 -0.0640 -0.1439
  457PHE     CH 5932   3.237   4.279   3.469  0.2703 -0.0459  0.7454
  457PHE     CH 5933   3.248   4.395   3.547  0.4420 -0.2661  1.0476
  457PHE     CH 5934   3.135   4.460   3.596  0.1449 -0.0459  0.0786
  457PHE     OH 5935   2.892   4.484   3.590  0.1249 -0.2818 -0.2292
  457PHE     HC 5936   2.906   4.240   3.488  0.1028 -0.3545  1.9473
  457PHE     HC 5937   3.110   4.125   3.398  1.2676 -0.6307  0.8853
  457PHE     HC 5938   3.322   4.231   3.424 -0.6887  0.0936 -1.3127
  457PHE     HC 5939   3.346   4.440   3.552  0.1825  1.5778 -4.3347
  457PHE     HC 5940   3.144   4.552   3.653 -2.5004  0.3740 -0.0200
  457PHE     HO 5941   2.915   4.563   3.637  1.3637 -0.2915 -0.7898
  458PHE     CO 5942   0.649   3.973   2.681  0.5854  0.0039 -0.2676
  458PHE     CH 5943   0.548   3.927   2.596  0.2274  0.4659 -0.0927
  458PHE     CH 5944   0.541   3.973   2.464 -0.4523 -0.6811 -0.4674
  458PHE     CH 5945   0.644   4.056   2.418 -0.5108 -0.3352  0.0224
  458PHE     CH 5946   0.747   4.097   2.503 -0.7438  0.4184 -0.0556
  458PHE     CH 5947   0.753   4.057   2.637  0.7109 -0.1527 -0.2697
  458PHE     OH 5948   0.659   3.920   2.806 -0.5803  0.0831 -0.1349
  458PHE     HC 5949   0.475   3.858   2.635  0.3426  0.9106  0.9429
  458PHE     HC 5950   0.458   3.944   2.401  0.0616  0.1304 -1.5537
  458PHE     HC 5951   0.635   4.103   2.322 -2.4530  1.4022  0.9738
  458PHE     HC 5952   0.829   4.156   2.465  0.0973  0.2821  1.4502
  458PHE     HC 5953   0.837   4.073   2.702  1.9587 -0.4503 -1.7612
  458PHE     HO 5954   0.734   3.940   2.860 -1.0416  2.0038 -0.1222
  459PHE     CO 5955   4.531   0.882   1.623 -0.0345 -0.0519 -0.2761
  459PHE     CH 5956   4.532   0.782   1.525  0.3555  0.3597 -0.6913
  459PHE     CH 5957   4.606   0.665   1.545 -0.0943  0.1334 -0.3480
  459PHE     CH 5958   4.663   0.634   1.669 -0.9375  0.1429  0.0457
  459PHE     CH 5959   4.640   0.728   1.771  0.0323  0.1435  0.2757
  459PHE     CH 5960   4.585   0.855   1.749 -0.0526  0.0198 -0.2533
  459PHE     OH 5961   4.484   1.006   1.591 -0.1628 -0.0022  0.1022
  459PHE     HC 5962   4.503   0.799   1.422  4.6824  3.0023 -1.7626
  459PHE     HC 5963   4.617   0.598   1.461  0.1759  1.6424 -1.5560
  459PHE     HC 5964   4.708   0.536   1.679 -0.9575  0.2347  1.1581
  459PHE     HC 5965   4.666   0.696   1.871  0.9650  1.5317  0.4991
  459PHE     HC 5966   4.570   0.924   1.831 -1.1090 -0.8428  0.3045
  459PHE     HO 5967   4.491   1.064   1.665 -0.7716  0.4045 -0.1579
  460PHE     CO 5968   1.665   1.023   0.459  0.3659 -0.2830  0.0806
  460PHE     CH 5969   1.598   1.097   0.360  0.3916 -0.3517  0.0116
  460PHE     CH 5970   1.620   1.075   0.224  0.5805  0.2164 -0.0517
  460PHE     CH 5971   1.712   0.974   0.191  0.3310 -0.0347  0.0227
  460PHE     CH 5972   1.776   0.895   0.288  0.3344 -0.4335 -0.3032
  460PHE     CH 5973   1.747   0.915   0.423  0.5174 -0.0367 -0.3232
  460PHE     OH 5974   1.647   1.059   0.589 -1.0193 -0.1848 -0.1232
  460PHE     HC 5975   1.528   1.177   0.378  0.9551 -0.1733  1.5537
  460PHE     HC 5976   1.568   1.141   0.157 -0.9004  0.1019  0.9457
  460PHE     HC 5977   1.735   0.965   0.086  0.7774  1.2573 -0.0056
  460PHE     HC 5978   1.841   0.814   0.260  0.1872 -0.6411 -0.0470
  460PHE     HC 5979   1.793   0.862   0.505  1.3637  1.9882  0.6084
  460PHE     HO 5980   1.616   1.146   0.609  1.7844  0.5402  1.6629
  461PHE     CO 5981   2.184   0.144   2.300  0.2415 -0.2074  0.0977
  461PHE     CH 5982   2.311   0.185   2.257  0.4795 -0.9783  0.0539
  461PHE     CH 5983   2.384   0.271   2.339 -0.4592 -0.5127  0.4094
  461PHE     CH 5984   2.336   0.314   2.464  0.7892  0.5816  0.5403
  461PHE     CH 5985   2.214   0.261   2.508  0.9223 -0.0890  0.1318
  461PHE     CH 5986   2.140   0.172   2.430  0.4385  0.3906  0.0385
  461PHE     OH 5987   2.119   0.046   2.232 -0.4270 -0.0857  0.5569
  461PHE     HC 5988   2.349   0.151   2.162  3.0221 -2.6180  1.5517
  461PHE     HC 5989   2.484   0.303   2.314 -0.1746 -0.1229  1.9644
  461PHE     HC 5990   2.387   0.386   2.525  1.8373 -0.2618  0.6958
  461PHE     HC 5991   2.167   0.297   2.599 -1.0874 -0.4254 -0.7248
  461PHE     HC 5992   2.043   0.133   2.460  0.4006  0.1075 -0.4506
  461PHE     HO 5993   2.177   5.086   2.188 -0.8465  1.4737 -2.3080
  462PHE     CO 5994   2.665   4.109   0.323  0.5053  0.7902  0.0054
  462PHE     CH 5995   2.718   4.025   0.422 -0.9689 -0.5980 -0.3318
  462PHE     CH 5996   2.854   3.997   0.413 -0.7150  0.5448 -0.1679
  462PHE     CH 5997   2.937   4.035   0.307 -0.4018 -0.4421 -0.2852
  462PHE     CH 5998   2.884   4.124   0.213  0.5987  0.4544 -0.0276
  462PHE     CH 5999   2.747   4.156   0.220  0.5151  0.1619 -0.2823
  462PHE     OH 6000   2.531   4.135   0.331  0.3163 -0.1323 -0.0247
  462PHE     HC 6001   2.658   3.979   0.499 -0.2379 -1.5177 -0.3114
  462PHE     HC 6002   2.895   3.934   0.490 -2.3384  1.2822  1.3727
  462PHE     HC 6003   3.042   4.011   0.295 -0.8035 -1.5911 -1.8233
  462PHE     HC 6004   2.934   4.165   0.126  1.5639  0.6522  0.6087
  462PHE     HC 6005   2.704   4.217   0.142  0.0209  0.1648 -0.0073
  462PHE     HO 6006   2.512   4.199   0.265 -0.0297  1.1946  1.2960
  463PHE     CO 6007   4.525   4.737   1.783  0.2799 -0.1414  0.0565
  463PHE     CH 6008   4.654   4.759   1.831  0.0734  0.0174  0.5392
  463PHE     CH 6009   4.765   4.738   1.749 -0.2660 -0.3745  0.1767
  463PHE     CH 6010   4.751   4.708   1.613  0.3248 -0.0273  0.0332
  463PHE     CH 6011   4.621   4.691   1.563  0.0913 -0.0497  0.6403
  463PHE     CH 6012   4.510   4.705   1.647 -0.3264 -0.0414  0.0952
  463PHE     OH 6013   4.410   4.762   1.853  0.4585 -0.2693  0.3973
  463PHE     HC 6014   4.664   4.783   1.936 -1.3427 -2.4489  1.3292
  463PHE     HC 6015   4.865   4.746   1.788  0.0518  0.3688 -0.7372
  463PHE     HC 6016   4.837   4.694   1.549 -0.3928 -1.5883 -0.6652
  463PHE     HC 6017   4.613   4.663   1.459  2.1557  1.1548  0.0903
  463PHE     HC 6018   4.413   4.680   1.607  0.1354 -1.9640  0.1017
  463PHE     HO 6019   4.331   4.722   1.819  0.4831 -0.5949  0.7212
  464PHE     CO 6020   4.549   0.285   2.411  0.0669 -0.3073  0.2252
  464PHE     CH 6021   4.555   0.323   2.545 -0.4699  0.6357 -0.0075
  464PHE     CH 6022   4.443   0.371   2.614 -0.4043 -0.6074  1.0116
  464PHE     CH 6023   4.325   0.391   2.541  0.2171  0.0500  0.1514
  464PHE     CH 6024   4.318   0.371   2.403 -0.5891  0.0568  0.1843
  464PHE     CH 6025   4.433   0.320   2.341 -0.1316  0.2773  0.8313
  464PHE     OH 6026   4.662   0.237   2.351  0.6759  0.8316  0.4394
  464PHE     HC 6027   4.655   0.317   2.586 -0.9739 -1.8397  1.0183
  464PHE     HC 6028   4.447   0.411   2.714  0.5581  0.8653  0.4234
  464PHE     HC 6029   4.235   0.433   2.584 -0.7871 -0.7609 -1.1094
  464PHE     HC 6030   4.236   0.413   2.347  0.2454  1.6374  0.0795
  464PHE     HC 6031   4.435   0.315   2.233 -2.4929  0.1484  0.7223
  464PHE     HO 6032   4.645   0.228   2.258 -0.4320 -1.1672  0.7909
  465PHE     CO 6033   4.812   1.366   0.901 -0.0198 -0.8588  0.4502
  465PHE     CH 6034   4.689   1.413   0.948  0.1652 -0.6162  0.6959
  465PHE     CH 6035   4.687   1.518   1.041  0.0276  0.0930 -0.0887
  465PHE     CH 6036   4.805   1.574   1.090  0.1027  0.5249 -0.7560
  465PHE     CH 6037   4.928   1.517   1.053  0.0370  0.0440 -0.2428
  465PHE     CH 6038   4.930   1.413   0.960 -0.0337 -0.0589 -0.1293
  465PHE     OH 6039   4.811   1.255   0.821  0.2965 -0.7003  0.2229
  465PHE     HC 6040   4.598   1.371   0.906 -0.5812 -0.0586  1.7013
  465PHE     HC 6041   4.588   1.552   1.069  0.8455  0.8465  2.1235
  465PHE     HC 6042   4.799   1.656   1.160  1.1467  0.9259 -1.1066
  465PHE     HC 6043   5.019   1.555   1.097  0.4899  3.0416 -3.3327
  465PHE     HC 6044   5.028   1.369   0.946 -0.9254 -1.5003 -2.4418
  465PHE     HO 6045   4.875   1.193   0.851  0.7729 -0.2833  0.0841
  466PHE     CO 6046   0.500   0.973   2.643 -0.2614 -0.0441  0.0751
  466PHE     CH 6047   0.612   0.891   2.661 -0.1240  0.1438  0.0826
  466PHE     CH 6048   0.615   0.762   2.606 -0.2991  0.2759 -0.2432
  466PHE     CH 6049   0.504   0.715   2.535  0.1098  0.1718 -0.8245
  466PHE     CH 6050   0.387   0.793   2.524  0.0845  0.1699 -0.5818
  466PHE     CH 6051   0.386   0.921   2.580 -0.3841 -0.3008  0.5069
  466PHE     OH 6052   0.502   1.100   2.693 -0.3015 -0.0840  0.1791
  466PHE     HC 6053   0.701   0.925   2.712  0.4382 -1.4134  0.1754
  466PHE     HC 6054   0.693   0.689   2.621 -0.3097  0.2486 -0.3196
  466PHE     HC 6055   0.502   0.617   2.492 -2.1687  0.0976 -0.6890
  466PHE     HC 6056   0.297   0.771   2.469 -0.1006 -0.6290  0.0129
  466PHE     HC 6057   0.296   0.980   2.573 -0.4745 -0.3225  1.3039
  466PHE     HO 6058   0.587   1.140   2.702 -1.5970  2.8063  0.9492
  467PHE     CO 6059   0.263   4.216   0.045  0.3860  0.4925  0.3741
  467PHE     CH 6060   0.271   4.285   5.024  0.3579 -0.3574 -0.1172
  467PHE     CH 6061   0.238   4.421   5.012 -0.2052 -0.4782  0.0740
  467PHE     CH 6062   0.193   4.491   0.025  0.4185  0.2013 -0.0921
  467PHE     CH 6063   0.195   4.425   0.148 -0.7796  0.0516 -0.1387
  467PHE     CH 6064   0.229   4.290   0.160 -0.3037  0.2098  0.3566
  467PHE     OH 6065   0.290   4.083   0.056  0.8218  0.5478  0.0182
  467PHE     HC 6066   0.310   4.227   4.941 -0.5288 -0.7446 -0.2681
  467PHE     HC 6067   0.239   4.473   4.918 -2.2605  1.1894  0.8933
  467PHE     HC 6068   0.149   4.589   0.011 -3.6297 -0.8184  3.4117
  467PHE     HC 6069   0.156   4.476   0.235  2.5726  3.4721 -0.3433
  467PHE     HC 6070   0.213   4.228   0.246  1.4414 -1.2241 -0.2693
  467PHE     HO 6071   0.272   4.057   0.145 -0.0271 -0.1878 -0.3397
  468PHE     CO 6072   4.074   4.995   4.785  0.2019  0.2808 -0.2974
  468PHE     CH 6073   4.211   4.969   4.773  0.1403 -0.3374  0.2501
  468PHE     CH 6074   4.247   4.898   4.657  0.0485  0.0545 -0.0182
  468PHE     CH 6075   4.155   4.874   4.554 -0.3660 -0.0449  0.3702
  468PHE     CH 6076   4.023   4.919   4.561 -0.4829 -0.3187 -0.0173
  468PHE     CH 6077   3.982   4.981   4.681  0.0446  0.3361 -0.1682
  468PHE     OH 6078   4.031   5.052   4.901 -0.7361 -0.5356 -0.2306
  468PHE     HC 6079   4.281   4.988   4.853  1.4538 -0.1208 -0.9135
  468PHE     HC 6080   4.352   4.873   4.656 -0.0399 -0.2977 -0.3930
  468PHE     HC 6081   4.184   4.807   4.474  1.0878 -0.7913  1.4702
  468PHE     HC 6082   3.949   4.898   4.485 -0.8588 -3.0223  0.9972
  468PHE     HC 6083   3.880   5.014   4.692  0.4032  0.7958  2.0714
  468PHE     HO 6084   3.963   5.009   4.951  0.0641  2.1265  3.5888
   5.10000   5.10000   5.10000
