Aniline
23156
    1ANI     CN    1   4.527   3.417   3.280 -0.0495  0.1123 -0.7856
    1ANI     CH    2   4.544   3.285   3.238 -0.2780  0.2375 -1.2678
    1ANI     CH    3   4.669   3.222   3.242 -0.4301  0.0361  1.0125
    1ANI     CH    4   4.782   3.293   3.285 -0.0404  0.2162 -0.2745
    1ANI     CH    5   4.768   3.428   3.316  0.4770 -0.0300  1.0764
    1ANI     CH    6   4.641   3.487   3.321  0.1838 -0.5369 -0.3189
    1ANI     NH    7   4.407   3.476   3.293 -0.1886 -0.3647  0.1797
    1ANI     HC    8   4.467   3.221   3.197  1.4179 -2.1178 -0.8583
    1ANI     HC    9   4.665   3.116   3.227  0.3282  0.1382 -0.0174
    1ANI     HC   10   4.875   3.239   3.299 -0.0004  0.0981 -0.9925
    1ANI     HC   11   4.855   3.488   3.341 -0.2202  0.6457  1.9118
    1ANI     HC   12   4.637   3.589   3.356  0.6705 -0.3727 -0.7316
    1ANI     HN   13   4.410   3.558   3.352  0.4182  0.0071 -0.3615
    1ANI     HN   14   4.336   3.418   3.335 -0.9973  2.0417  2.2758
    2ANI     CN   15   2.466   1.556   5.262  0.4101 -0.2160 -0.3029
    2ANI     CH   16   2.581   1.564   5.342  0.2342  0.0306 -0.0712
    2ANI     CH   17   2.644   1.686   5.370  0.2604 -0.0142  0.0636
    2ANI     CH   18   2.582   1.805   5.330  0.3942 -0.2037 -0.7092
    2ANI     CH   19   2.464   1.801   5.256  0.2202  0.1538 -0.4481
    2ANI     CH   20   2.415   1.677   5.213  0.3301 -0.0820  0.1117
    2ANI     NH   21   2.404   1.439   5.248 -0.2099  0.0344  0.3138
    2ANI     HC   22   2.622   1.474   5.385  0.6823 -0.7154 -1.9883
    2ANI     HC   23   2.731   1.676   5.434 -0.5396  1.7813  1.4813
    2ANI     HC   24   2.627   1.899   5.357  2.0675 -0.6898 -1.6871
    2ANI     HC   25   2.413   1.894   5.232 -0.8496 -0.3520 -0.1850
    2ANI     HC   26   2.325   1.682   5.154  1.4957  1.6301 -1.5936
    2ANI     HN   27   2.395   1.372   5.323  1.6018 -0.3213  0.2340
    2ANI     HN   28   2.307   1.447   5.221  0.6739  1.8295 -2.5474
    3ANI     CN   29   6.124   2.418   1.790  0.3402  0.0527 -0.1377
    3ANI     CH   30   6.217   2.399   1.893 -0.0560  0.2817  0.2613
    3ANI     CH   31   6.219   2.493   1.997  0.0311  0.6601 -0.0850
    3ANI     CH   32   6.136   2.606   1.996 -0.0464  0.6038 -0.1331
    3ANI     CH   33   6.036   2.613   1.899  0.2438  0.7436 -0.4195
    3ANI     CH   34   6.031   2.522   1.793  0.4047  0.1056  0.1182
    3ANI     NH   35   6.121   2.325   1.694  0.0357 -0.2024  0.1169
    3ANI     HC   36   6.276   2.309   1.879  1.4451  1.0330  1.5854
    3ANI     HC   37   6.293   2.483   2.074  0.7623  3.6366 -0.3390
    3ANI     HC   38   6.137   2.682   2.073  0.8267  1.3579 -0.8791
    3ANI     HC   39   5.960   2.691   1.903 -0.6114 -0.1690  1.9999
    3ANI     HC   40   5.952   2.549   1.724  0.0436  1.1504  0.9292
    3ANI     HN   41   6.119   2.233   1.734 -3.6871 -0.4136 -0.3309
    3ANI     HN   42   6.040   2.343   1.635 -1.4737 -1.6944  1.6906
    4ANI     CN   43   1.194   5.663   0.160 -0.4834 -0.5645 -0.4544
    4ANI     CH   44   1.184   5.771   0.072  0.5765 -0.0904 -0.0066
    4ANI     CH   45   1.297   5.831   0.016  0.1462  0.2078 -0.5587
    4ANI     CH   46   1.423   5.795   0.067 -0.2241 -0.2280  0.0573
    4ANI     CH   47   1.435   5.692   0.160 -0.0852 -0.0429  0.2447
    4ANI     CH   48   1.320   5.630   0.212 -0.3949  0.1359 -0.2209
    4ANI     NH   49   1.085   5.609   0.217 -0.1372 -0.6200  0.1713
    4ANI     HC   50   1.086   5.802   0.040  0.9165  0.8610 -0.1394
    4ANI     HC   51   1.284   5.911  -0.056 -2.0604  1.5736  1.2908
    4ANI     HC   52   1.510   5.851   0.035 -1.1213  0.9867 -0.3325
    4ANI     HC   53   1.525   5.672   0.216  1.3380  0.3505 -1.8492
    4ANI     HC   54   1.332   5.561   0.295 -1.4803 -0.6209 -0.6806
    4ANI     HN   55   1.040   5.550   0.149 -0.4787  0.7555 -0.8432
    4ANI     HN   56   1.089   5.559   0.304 -0.6153 -1.5001 -0.3105
    5ANI     CN   57   2.305   2.792   5.780  0.1404 -0.4121  0.3087
    5ANI     CH   58   2.268   2.805   5.915  0.2974 -0.1873  0.3316
    5ANI     CH   59   2.133   2.801   5.951  0.0571  0.1356 -0.5248
    5ANI     CH   60   2.030   2.793   5.857 -0.5813  0.0493  0.1796
    5ANI     CH   61   2.069   2.771   5.724  0.9692  0.4470  0.5623
    5ANI     CH   62   2.203   2.776   5.685  0.7668 -0.7362 -0.3062
    5ANI     NH   63   2.433   2.813   5.747  0.1348 -0.0700  0.5011
    5ANI     HC   64   2.339   2.821   5.995 -0.3239  1.5110  0.5529
    5ANI     HC   65   2.109   2.806   6.056  1.2231 -0.4979 -0.2110
    5ANI     HC   66   1.926   2.805   5.883 -1.1256 -0.5962 -1.6086
    5ANI     HC   67   1.989   2.761   5.652  0.5706  2.3204  0.7315
    5ANI     HC   68   2.225   2.774   5.579  1.3620  0.4677 -0.2041
    5ANI     HN   69   2.460   2.779   5.655 -1.1053 -3.0369  1.1705
    5ANI     HN   70   2.501   2.795   5.819  1.1228 -0.0311 -0.4048
    6ANI     CN   71   4.083   3.882   4.675  0.1844 -0.0635 -0.1700
    6ANI     CH   72   4.216   3.923   4.653  0.1281  0.0422 -0.3129
    6ANI     CH   73   4.315   3.825   4.664  0.2227  0.1371 -0.3391
    6ANI     CH   74   4.291   3.695   4.709 -0.3138  0.1911 -0.4632
    6ANI     CH   75   4.157   3.659   4.728 -0.0799 -0.5690 -0.1878
    6ANI     CH   76   4.053   3.753   4.721  0.2686 -0.2061 -0.5140
    6ANI     NH   77   3.990   3.977   4.690  0.1612 -0.0504 -0.3893
    6ANI     HC   78   4.238   4.023   4.621 -3.7206  0.3085 -2.4453
    6ANI     HC   79   4.413   3.866   4.642  0.1341  0.9904  0.8480
    6ANI     HC   80   4.370   3.627   4.738  0.2633  1.0960  0.1253
    6ANI     HC   81   4.139   3.558   4.760 -0.1463 -0.7890 -0.9127
    6ANI     HC   82   3.952   3.741   4.757  0.3098  1.7549  0.2942
    6ANI     HN   83   4.012   4.064   4.643  0.9125  0.1596  0.3502
    6ANI     HN   84   3.900   3.953   4.650  0.4215  1.7602 -2.1505
    7ANI     CN   85   4.842   0.031   5.871 -0.4401 -0.3011 -0.0695
    7ANI     CH   86   4.839   0.076   5.739  0.3547  0.0192  0.0236
    7ANI     CH   87   4.873   0.209   5.709  0.3987 -0.0454 -0.2090
    7ANI     CH   88   4.919   0.297   5.808 -0.1178  0.1187 -0.1171
    7ANI     CH   89   4.925   0.251   5.940  0.4551 -0.5259 -0.3652
    7ANI     CH   90   4.891   0.119   5.968  0.4910 -0.5274 -0.3288
    7ANI     NH   91   4.814  -0.096   5.904 -0.6341 -0.1772  0.2502
    7ANI     HC   92   4.801   0.012   5.661 -0.8860 -1.6153  1.9262
    7ANI     HC   93   4.862   0.242   5.606 -1.7686  2.4932  0.8013
    7ANI     HC   94   4.950   0.395   5.774  0.8264 -0.6491 -1.5121
    7ANI     HC   95   4.964   0.316   6.018  1.4198 -0.8117 -0.6018
    7ANI     HC   96   4.885   0.094   6.073 -0.1164 -0.6580 -0.3902
    7ANI     HN   97   4.777  -0.102   5.998 -0.6746 -0.3240  0.2252
    7ANI     HN   98   4.760  -0.151   5.838  0.7936  0.3626 -1.4019
    8ANI     CN   99   4.453   0.973   6.246  0.3424 -0.2692 -0.2210
    8ANI     CH  100   4.568   0.895   6.234  0.3648 -0.3493  0.5077
    8ANI     CH  101   4.668   0.896   6.332  0.9024 -0.1575 -0.0466
    8ANI     CH  102   4.653   0.969   6.450  0.0787 -0.2487 -0.0967
    8ANI     CH  103   4.548   1.062   6.450 -0.2824 -0.6541 -0.2432
    8ANI     CH  104   4.446   1.063   6.354 -0.2695 -0.2715 -0.2556
    8ANI     NH  105   4.359   0.981   6.151  0.2019  0.3962 -0.0310
    8ANI     HC  106   4.566   0.830   6.148  0.7290 -1.7823  1.5575
    8ANI     HC  107   4.752   0.827   6.329  1.5414  0.5101  1.8652
    8ANI     HC  108   4.728   0.974   6.527 -0.9277 -3.3780  1.1747
    8ANI     HC  109   4.543   1.125   6.537  1.7844 -1.5097  0.5155
    8ANI     HC  110   4.367   1.135   6.370 -1.4188 -1.3263 -1.0295
    8ANI     HN  111   4.370   0.939   6.060  0.1816  0.8246 -0.2353
    8ANI     HN  112   4.271   1.025   6.175  0.9018  1.5771  0.4372
    9ANI     CN  113   1.213   5.727   0.986  0.2284 -0.1506  0.1748
    9ANI     CH  114   1.223   5.697   1.122 -0.0560 -0.2134  0.1819
    9ANI     CH  115   1.170   5.578   1.174 -0.2037 -0.1049  0.2782
    9ANI     CH  116   1.115   5.484   1.085 -0.2067  0.2081 -0.0517
    9ANI     CH  117   1.113   5.508   0.947  0.1770 -0.1742 -0.1224
    9ANI     CH  118   1.161   5.630   0.899 -0.0464  0.0204  0.1509
    9ANI     NH  119   1.240   5.849   0.938 -0.0595 -0.4227 -0.6953
    9ANI     HC  120   1.251   5.772   1.195 -1.0392  1.2301 -0.9034
    9ANI     HC  121   1.178   5.567   1.281  0.1657 -1.3729  0.1265
    9ANI     HC  122   1.078   5.391   1.125  0.5828  0.4685  1.3143
    9ANI     HC  123   1.071   5.430   0.885  0.5892 -1.2900  0.9938
    9ANI     HC  124   1.146   5.656   0.795  0.3066 -0.8048 -0.1051
    9ANI     HN  125   1.264   5.919   1.007 -0.7487  0.9696 -1.8437
    9ANI     HN  126   1.179   5.883   0.865 -1.0942  1.0491  0.8008
   10ANI     CN  127   6.262   0.114   0.917 -0.1948 -0.1044  0.7079
   10ANI     CH  128   6.369   0.148   1.002  0.2949 -0.2280  0.1460
   10ANI     CH  129   6.456   0.048   1.047  1.0463  0.1418 -0.4778
   10ANI     CH  130   6.450  -0.080   0.991 -0.0859 -0.0993  0.1712
   10ANI     CH  131   6.348  -0.111   0.900 -0.1134  0.6248 -0.0530
   10ANI     CH  132   6.256  -0.014   0.860  0.0331  0.4996 -0.7060
   10ANI     NH  133   6.171   0.204   0.878  0.4657  0.0310 -0.5652
   10ANI     HC  134   6.381   0.253   1.023  0.4315  0.2923 -2.3248
   10ANI     HC  135   6.532   0.079   1.117 -1.1909  4.1782  0.3027
   10ANI     HC  136   6.520  -0.155   1.023  0.8600  0.7170  0.0380
   10ANI     HC  137   6.349  -0.215   0.871 -0.9383  0.5188  0.2814
   10ANI     HC  138   6.167  -0.038   0.804 -0.6775 -0.7949  0.9160
   10ANI     HN  139   6.081   0.165   0.856  0.5532 -1.1542  1.0696
   10ANI     HN  140   6.141   0.268   0.951 -0.9324  0.0349 -1.1393
   11ANI     CN  141   1.434   4.381   6.061  0.1975 -0.0566 -0.1204
   11ANI     CH  142   1.500   4.289   6.144  0.2795 -0.2008 -0.3441
   11ANI     CH  143   1.451   4.160   6.165  0.9423 -0.4782 -0.5052
   11ANI     CH  144   1.342   4.116   6.089  0.0219 -0.1016  0.5941
   11ANI     CH  145   1.275   4.202   6.002  0.2980 -0.2262  0.2570
   11ANI     CH  146   1.327   4.331   5.987  0.5267 -0.3916 -0.3739
   11ANI     NH  147   1.469   4.510   6.044 -0.2692  0.0163 -0.5422
   11ANI     HC  148   1.589   4.329   6.190 -0.2715  2.1515 -1.2192
   11ANI     HC  149   1.513   4.094   6.224  1.7540 -0.7569 -1.6395
   11ANI     HC  150   1.315   4.011   6.095  0.7532 -0.3666 -0.6563
   11ANI     HC  151   1.188   4.172   5.944  0.3684  0.8679 -0.4295
   11ANI     HC  152   1.283   4.409   5.926 -0.5033 -0.4682  0.2618
   11ANI     HN  153   1.388   4.556   6.007 -0.7221 -0.9475 -0.7818
   11ANI     HN  154   1.501   4.564   6.123 -1.6647  0.4732 -0.2702
   12ANI     CN  155   3.683   4.484   3.814 -0.1684 -0.3508 -0.1282
   12ANI     CH  156   3.803   4.432   3.865 -0.4017 -0.0993  0.6819
   12ANI     CH  157   3.867   4.323   3.806  0.0332  0.6241 -0.1927
   12ANI     CH  158   3.812   4.269   3.689 -0.4609  0.0879  0.2852
   12ANI     CH  159   3.692   4.320   3.638 -0.2929  0.1407 -0.0634
   12ANI     CH  160   3.625   4.426   3.701 -0.3256  0.3067 -0.3821
   12ANI     NH  161   3.622   4.578   3.887 -0.3329 -0.0590 -0.6411
   12ANI     HC  162   3.833   4.470   3.962  4.0474  3.2721 -1.8265
   12ANI     HC  163   3.955   4.277   3.849  0.5589 -1.0709 -2.9624
   12ANI     HC  164   3.857   4.183   3.641 -0.0534  0.2909  0.2978
   12ANI     HC  165   3.648   4.294   3.543  0.4874 -1.8832  0.1127
   12ANI     HC  166   3.532   4.458   3.656 -1.0480 -1.2972 -0.0492
   12ANI     HN  167   3.574   4.647   3.831  1.8950  0.8342 -1.4834
   12ANI     HN  168   3.685   4.626   3.949 -1.5880  0.4316  0.2906
   13ANI     CN  169   3.581   2.550   6.175 -0.3145  0.1302 -0.7545
   13ANI     CH  170   3.660   2.626   6.261  0.1059 -1.0672 -0.0686
   13ANI     CH  171   3.775   2.686   6.209 -0.2607 -0.1702  0.1458
   13ANI     CH  172   3.812   2.667   6.075 -0.3755 -0.5694  0.1719
   13ANI     CH  173   3.735   2.584   5.993 -0.1822  0.1009 -0.6968
   13ANI     CH  174   3.615   2.529   6.041 -0.0936 -0.0668 -0.6668
   13ANI     NH  175   3.461   2.510   6.221 -0.1166 -0.2017 -0.5254
   13ANI     HC  176   3.628   2.635   6.364 -1.9932  0.5257 -0.8270
   13ANI     HC  177   3.835   2.745   6.277 -3.9883  1.1704  2.3721
   13ANI     HC  178   3.891   2.726   6.031 -0.8551 -0.7098 -0.8818
   13ANI     HC  179   3.767   2.563   5.892  1.0949 -1.1342 -0.0577
   13ANI     HC  180   3.552   2.479   5.969 -0.4499 -0.7900  0.1488
   13ANI     HN  181   3.425   2.588   6.275 -0.8523  0.7024 -2.2885
   13ANI     HN  182   3.392   2.495   6.150 -0.9832 -1.9927  0.6630
   14ANI     CN  183   6.226   0.666   0.396 -0.0802  0.4000  0.2221
   14ANI     CH  184   6.223   0.800   0.437 -0.4941  0.4041  0.1770
   14ANI     CH  185   6.285   0.892   0.352 -0.0645  0.0690  0.1269
   14ANI     CH  186   6.356   0.857   0.237 -0.1975 -0.1883  0.1237
   14ANI     CH  187   6.372   0.721   0.206 -0.0170  0.0089 -0.6680
   14ANI     CH  188   6.304   0.628   0.286  0.8571  0.6300  0.8049
   14ANI     NH  189   6.153   0.572   0.457 -0.4483  0.3594 -0.2763
   14ANI     HC  190   6.171   0.843   0.521 -2.4400 -1.9465  0.2344
   14ANI     HC  191   6.268   0.992   0.389  0.0539 -0.3979  1.4578
   14ANI     HC  192   6.392   0.936   0.172  0.7465  0.1472  1.0475
   14ANI     HC  193   6.435   0.696   0.122  0.7555 -1.1233  0.2260
   14ANI     HC  194   6.295   0.525   0.256  0.8096  1.2255 -1.2743
   14ANI     HN  195   6.108   0.603   0.541  0.2082 -0.0043  0.2177
   14ANI     HN  196   6.201   0.485   0.479  1.5700  1.3910 -0.4771
   15ANI     CN  197   4.461   0.645   2.786  0.0660  0.2996  0.1173
   15ANI     CH  198   4.363   0.625   2.883 -0.0454  0.0778 -0.0406
   15ANI     CH  199   4.242   0.567   2.845  0.2219 -0.2875 -0.3311
   15ANI     CH  200   4.215   0.533   2.711 -0.0958 -0.4435 -0.2291
   15ANI     CH  201   4.314   0.550   2.614 -0.1163  0.9587 -0.0151
   15ANI     CH  202   4.438   0.601   2.655 -0.0345  0.7675 -0.0234
   15ANI     NH  203   4.584   0.684   2.823  0.0894  0.1725  0.1724
   15ANI     HC  204   4.388   0.649   2.985  0.0912  0.4565 -0.1612
   15ANI     HC  205   4.159   0.552   2.912 -0.3468  0.6414 -0.8101
   15ANI     HC  206   4.120   0.483   2.699 -1.0432  1.0087  1.0240
   15ANI     HC  207   4.296   0.530   2.509 -0.5682  0.0670  0.2249
   15ANI     HC  208   4.522   0.610   2.588 -1.4321  0.5193 -1.8390
   15ANI     HN  209   4.573   0.758   2.890  0.8029  1.9151 -1.5759
   15ANI     HN  210   4.640   0.719   2.746  1.4182 -1.0182  0.5699
   16ANI     CN  211   0.791   0.900   3.604  1.0269  0.1090 -0.0532
   16ANI     CH  212   0.780   0.761   3.606 -0.2592  0.2063 -0.1819
   16ANI     CH  213   0.817   0.682   3.497 -0.2637 -0.1767  0.0925
   16ANI     CH  214   0.870   0.747   3.385 -0.1691 -0.5210 -0.0654
   16ANI     CH  215   0.883   0.887   3.382  0.7255 -0.5883  0.5374
   16ANI     CH  216   0.852   0.964   3.495  1.0654  0.2608  0.0564
   16ANI     NH  217   0.767   0.967   3.717 -0.0585  0.2271 -0.3461
   16ANI     HC  218   0.732   0.710   3.688  1.9270 -1.1652  0.2762
   16ANI     HC  219   0.808   0.574   3.497  0.2045 -0.2160  0.2300
   16ANI     HC  220   0.892   0.696   3.293  1.5977 -1.2859  0.7574
   16ANI     HC  221   0.918   0.934   3.291 -0.7054 -0.6683 -0.0675
   16ANI     HC  222   0.864   1.071   3.491  0.5788  0.2992 -0.5151
   16ANI     HN  223   0.697   0.929   3.779  1.5842  0.1307  1.5256
   16ANI     HN  224   0.730   1.059   3.697 -2.3799 -0.8975 -1.3112
   17ANI     CN  225   2.048   2.041   1.009 -0.6312 -0.2463  0.3783
   17ANI     CH  226   2.027   2.166   1.069 -0.1968  0.1823 -0.3487
   17ANI     CH  227   2.043   2.176   1.208  0.2235  0.0605 -0.3876
   17ANI     CH  228   2.096   2.069   1.281 -0.0050  0.2826  0.1095
   17ANI     CH  229   2.125   1.949   1.214  0.1309  0.3207  0.0994
   17ANI     CH  230   2.096   1.929   1.078  0.5830  0.0568  0.0394
   17ANI     NH  231   2.032   2.037   0.876 -0.4896  0.4129  0.3376
   17ANI     HC  232   2.004   2.256   1.014  1.3524 -0.0409 -1.3930
   17ANI     HC  233   2.019   2.273   1.248  0.2247 -0.4718  0.9096
   17ANI     HC  234   2.128   2.092   1.381  1.0004  1.1002 -0.3884
   17ANI     HC  235   2.177   1.873   1.269  0.4116  0.3995 -0.0569
   17ANI     HC  236   2.138   1.840   1.035 -0.9156 -0.8307  0.3578
   17ANI     HN  237   1.963   2.105   0.847  0.2484  0.6035 -1.0089
   17ANI     HN  238   1.999   1.944   0.851 -0.8208  0.4441  0.6618
   18ANI     CN  239   5.166   4.393   0.317 -0.2102  0.8664 -0.0355
   18ANI     CH  240   5.228   4.444   0.202  0.6607  0.3371  0.1895
   18ANI     CH  241   5.154   4.442   0.083  0.5934 -0.9556  0.2458
   18ANI     CH  242   5.027   4.384   0.074  0.1636 -0.0801  0.5455
   18ANI     CH  243   4.971   4.328   0.189 -0.8621  0.7706  0.4728
   18ANI     CH  244   5.040   4.331   0.311  0.0114  0.4143 -0.0108
   18ANI     NH  245   5.226   4.395   0.436  0.2822  0.1032 -0.2608
   18ANI     HC  246   5.321   4.499   0.209 -0.1872  1.8209  0.1884
   18ANI     HC  247   5.190   4.485  -0.009 -3.0414 -1.1224 -1.3305
   18ANI     HC  248   4.979   4.383  -0.023 -1.9316 -1.2524  1.5727
   18ANI     HC  249   4.871   4.289   0.182 -0.5830 -0.0658  0.9949
   18ANI     HC  250   4.995   4.287   0.399  1.7619 -0.7328  0.3487
   18ANI     HN  251   5.306   4.456   0.451 -1.1293  1.4120  2.4628
   18ANI     HN  252   5.162   4.426   0.508 -0.5073 -1.5649 -0.2194
   19ANI     CN  253   2.658   5.604   5.466  0.3663  0.0320  0.2155
   19ANI     CH  254   2.751   5.518   5.407 -0.4573 -0.2225 -0.7333
   19ANI     CH  255   2.833   5.581   5.314  0.2494  0.2913  0.2345
   19ANI     CH  256   2.822   5.714   5.272 -0.0235  0.2039  0.0309
   19ANI     CH  257   2.733   5.799   5.338 -0.5974 -0.0716 -0.3828
   19ANI     CH  258   2.650   5.740   5.435  0.2201  0.0691  0.4089
   19ANI     NH  259   2.583   5.547   5.561  0.0762  0.7150  0.4033
   19ANI     HC  260   2.763   5.416   5.443 -0.8539 -0.2860 -0.7788
   19ANI     HC  261   2.912   5.513   5.286  3.1368  2.8740  1.6533
   19ANI     HC  262   2.891   5.755   5.199  0.7579  2.9312  2.2284
   19ANI     HC  263   2.731   5.905   5.314 -1.0522  0.0104  0.0031
   19ANI     HC  264   2.577   5.800   5.486 -0.2170  0.8915 -1.1413
   19ANI     HN  265   2.554   5.612   5.632  0.4667  1.1337  0.1752
   19ANI     HN  266   2.615   5.461   5.604  0.2112  0.9558  0.7785
   20ANI     CN  267   5.701   1.027   0.045  0.2395 -0.4144  0.3617
   20ANI     CH  268   5.832   0.993   0.008  0.1588  0.1369 -0.4563
   20ANI     CH  269   5.931   0.996   0.107 -0.2163  0.0881 -0.0792
   20ANI     CH  270   5.896   1.014   0.241  0.1123  0.9171 -0.1042
   20ANI     CH  271   5.762   1.029   0.280 -0.1982 -0.2970 -0.6872
   20ANI     CH  272   5.664   1.029   0.180 -0.9393  0.4753  0.0350
   20ANI     NH  273   5.603   1.020  -0.045  0.7280  0.1667 -0.2263
   20ANI     HC  274   5.855   0.974  -0.096  0.9247  0.4983 -0.3555
   20ANI     HC  275   6.032   0.971   0.079 -0.5761 -2.5406  0.8080
   20ANI     HC  276   5.973   1.014   0.317 -0.7653 -2.2916  0.8850
   20ANI     HC  277   5.730   1.041   0.382  1.9831  1.7067 -0.2018
   20ANI     HC  278   5.561   1.043   0.209 -0.9107 -0.9278  0.8484
   20ANI     HN  279   5.510   1.007  -0.007  0.2655 -0.9535 -1.7117
   20ANI     HN  280   5.627   0.959  -0.122  0.1774  0.7742 -0.8981
   21ANI     CN  281   2.984   0.148   3.545 -1.0497 -0.2063  0.5694
   21ANI     CH  282   3.028   0.027   3.600  0.4941 -0.0612 -0.3209
   21ANI     CH  283   3.070  -0.083   3.525 -0.0676 -0.4593 -0.0565
   21ANI     CH  284   3.069  -0.071   3.386 -0.4239  0.3617  0.0139
   21ANI     CH  285   3.024   0.050   3.331  0.7870  0.5788 -0.5080
   21ANI     CH  286   2.988   0.162   3.406  0.6558 -0.1994  0.6181
   21ANI     NH  287   2.957   0.252   3.626 -0.4651  0.5926 -0.2526
   21ANI     HC  288   3.034   0.022   3.708  1.3131 -1.2693 -0.4121
   21ANI     HC  289   3.091  -0.176   3.577  0.5608  0.3782  1.2381
   21ANI     HC  290   3.096  -0.158   3.327  1.8993  0.7609  0.4481
   21ANI     HC  291   3.033   0.054   3.224 -1.8451 -0.1133 -0.7897
   21ANI     HC  292   2.957   0.251   3.353 -0.4003 -1.1569 -0.3751
   21ANI     HN  293   2.901   0.203   3.694  1.0720 -0.2599  0.4117
   21ANI     HN  294   2.894   0.319   3.583  0.1730  0.3441 -1.6187
   22ANI     CN  295   5.782   0.813   4.988 -0.4480  0.0554 -0.4238
   22ANI     CH  296   5.813   0.689   4.931  0.1951 -0.1060  0.2756
   22ANI     CH  297   5.886   0.688   4.812  0.0372  0.2473  0.1764
   22ANI     CH  298   5.928   0.808   4.752  0.4341  0.0580  0.0735
   22ANI     CH  299   5.898   0.931   4.811  0.7293  0.1444  0.0459
   22ANI     CH  300   5.817   0.933   4.925  0.5127 -0.0518 -0.1034
   22ANI     NH  301   5.701   0.822   5.094  0.2422  0.9897  0.0239
   22ANI     HC  302   5.779   0.593   4.967  1.9871 -1.6603 -2.0646
   22ANI     HC  303   5.910   0.595   4.763  0.0047  0.5104 -0.3406
   22ANI     HC  304   5.988   0.798   4.663  0.2803  0.7529 -0.1146
   22ANI     HC  305   5.930   1.019   4.757  1.9927 -0.1224  0.3631
   22ANI     HC  306   5.777   1.029   4.956  2.3691  0.4337  0.8776
   22ANI     HN  307   5.732   0.763   5.171 -1.0716  0.9260  0.5141
   22ANI     HN  308   5.708   0.911   5.141  1.0646  0.6305  0.5954
   23ANI     CN  309   3.478   1.410   2.400 -0.3032 -0.5841 -0.5694
   23ANI     CH  310   3.550   1.521   2.354  0.1578 -0.5379  0.2430
   23ANI     CH  311   3.690   1.513   2.350  0.1973  0.2347 -0.0416
   23ANI     CH  312   3.758   1.400   2.398  0.2245  0.5302  0.6200
   23ANI     CH  313   3.681   1.293   2.445  0.1053  0.4554  0.2502
   23ANI     CH  314   3.541   1.298   2.455  0.1573  0.4222  1.0169
   23ANI     NH  315   3.344   1.414   2.391 -0.3465  0.6868  0.3488
   23ANI     HC  316   3.505   1.610   2.314  1.8162 -0.3183 -1.2124
   23ANI     HC  317   3.755   1.596   2.327 -0.0774  0.3501 -0.4018
   23ANI     HC  318   3.866   1.402   2.395  0.2557 -1.2389 -0.1028
   23ANI     HC  319   3.738   1.203   2.464  0.0716  0.3657 -0.0605
   23ANI     HC  320   3.489   1.213   2.495  0.1268  0.5722  1.2934
   23ANI     HN  321   3.308   1.319   2.390 -1.5655  1.1432  0.1608
   23ANI     HN  322   3.328   1.454   2.300  0.4608  0.9659  0.3212
   24ANI     CN  323   1.810   4.673   5.171 -0.4589 -0.3229 -0.2954
   24ANI     CH  324   1.924   4.730   5.112 -0.0605 -0.5015  0.2874
   24ANI     CH  325   2.028   4.775   5.194  0.3340 -0.5434 -0.1851
   24ANI     CH  326   2.025   4.752   5.332  0.3026 -0.5334 -0.1840
   24ANI     CH  327   1.923   4.674   5.389  0.0581  0.2330  0.4359
   24ANI     CH  328   1.813   4.644   5.308  0.2210  0.8911 -0.0374
   24ANI     NH  329   1.708   4.627   5.098 -0.6542  0.3246 -0.4338
   24ANI     HC  330   1.929   4.737   5.004 -0.1693  3.7579  0.4594
   24ANI     HC  331   2.105   4.836   5.149  0.3607  1.2667  2.1616
   24ANI     HC  332   2.107   4.785   5.394  0.3715  1.5737 -1.3667
   24ANI     HC  333   1.918   4.650   5.494  0.0341 -0.8280  0.1973
   24ANI     HC  334   1.726   4.602   5.356  0.5442 -3.1722 -2.6731
   24ANI     HN  335   1.689   4.534   5.132  0.9587  0.5433  1.1479
   24ANI     HN  336   1.734   4.612   5.002  1.3818 -0.3527  0.2010
   25ANI     CN  337   2.379   0.921   1.909 -0.0821  0.3058  0.4508
   25ANI     CH  338   2.495   0.853   1.948 -0.1824 -0.1530 -0.0454
   25ANI     CH  339   2.621   0.914   1.943 -0.0445 -0.4311  0.0482
   25ANI     CH  340   2.629   1.047   1.900 -0.6028 -0.1410  0.8043
   25ANI     CH  341   2.515   1.115   1.856 -0.1218  0.4481  0.4649
   25ANI     CH  342   2.390   1.054   1.866  0.0153  0.0279 -0.3865
   25ANI     NH  343   2.256   0.868   1.903 -0.0797  0.3739 -0.2488
   25ANI     HC  344   2.477   0.755   1.991  3.8358 -1.3454 -0.9552
   25ANI     HC  345   2.709   0.857   1.966 -0.0573  0.6765  3.1816
   25ANI     HC  346   2.724   1.098   1.891 -1.7778  1.7010 -1.8812
   25ANI     HC  347   2.516   1.210   1.805  0.0544  1.0315  1.5380
   25ANI     HC  348   2.303   1.108   1.830  1.3514  2.5885  0.1839
   25ANI     HN  349   2.212   0.878   1.813 -1.6240 -1.8942  0.2229
   25ANI     HN  350   2.258   0.769   1.920  2.4651  0.3638 -0.4778
   26ANI     CN  351   0.094   1.300   1.452  0.0583 -0.5898 -0.5359
   26ANI     CH  352   0.176   1.288   1.565 -0.5442 -0.4804 -0.0900
   26ANI     CH  353   0.303   1.346   1.567 -0.3722 -0.8491 -0.5097
   26ANI     CH  354   0.353   1.418   1.457 -0.4775 -0.2770 -0.1804
   26ANI     CH  355   0.274   1.418   1.342 -0.2576  0.5923 -0.3318
   26ANI     CH  356   0.142   1.371   1.341 -0.0416 -0.0124 -0.2128
   26ANI     NH  357  -0.034   1.261   1.451 -0.0387 -0.2782  0.0047
   26ANI     HC  358   0.130   1.234   1.647 -1.2309  0.6057  0.2481
   26ANI     HC  359   0.366   1.324   1.652 -0.4076 -1.1448 -0.5578
   26ANI     HC  360   0.447   1.471   1.464  1.4279 -3.5903  0.3163
   26ANI     HC  361   0.315   1.468   1.255  0.3573  2.4667  1.0107
   26ANI     HC  362   0.077   1.377   1.256 -2.5998  1.6959  1.8117
   26ANI     HN  363  -0.047   1.248   1.352  0.8771 -0.8036 -0.0544
   26ANI     HN  364  -0.091   1.342   1.469  0.0973 -0.5506  1.7759
   27ANI     CN  365   4.734   5.661   3.998 -0.2265 -0.0747  0.0701
   27ANI     CH  366   4.709   5.592   3.879  0.2842  0.0765 -0.1258
   27ANI     CH  367   4.746   5.458   3.863  0.3421  0.0618  0.1290
   27ANI     CH  368   4.793   5.394   3.978 -0.9503  0.1236  0.7051
   27ANI     CH  369   4.828   5.461   4.096 -0.2881  0.6070  0.2391
   27ANI     CH  370   4.794   5.596   4.107 -0.9523  0.4012  0.7623
   27ANI     NH  371   4.696   5.788   4.014 -0.1872 -0.0989  0.3613
   27ANI     HC  372   4.659   5.650   3.803  1.6176  3.4934  1.4521
   27ANI     HC  373   4.724   5.407   3.770  1.7805  0.0377 -0.2105
   27ANI     HC  374   4.806   5.287   3.969 -0.6594  0.0866  1.4907
   27ANI     HC  375   4.874   5.417   4.183 -1.4008 -1.4927 -0.2036
   27ANI     HC  376   4.805   5.662   4.192 -0.5215  1.3304  0.0005
   27ANI     HN  377   4.629   5.823   3.947 -2.7805 -2.9203  1.3353
   27ANI     HN  378   4.639   5.794   4.098 -0.0325 -1.4215  0.5612
   28ANI     CN  379   5.371   1.463   1.309  0.0049 -0.5467  0.2988
   28ANI     CH  380   5.424   1.335   1.329  0.5359 -0.5417 -1.0248
   28ANI     CH  381   5.449   1.288   1.458 -0.2627  0.8300 -0.3601
   28ANI     CH  382   5.418   1.371   1.567  0.1253  0.3892  0.0886
   28ANI     CH  383   5.364   1.498   1.545 -0.5207  0.0263 -0.4147
   28ANI     CH  384   5.339   1.547   1.416  0.4714  0.5503 -0.4116
   28ANI     NH  385   5.343   1.496   1.182  0.1767  0.2224  0.4559
   28ANI     HC  386   5.446   1.262   1.253  1.0602 -1.3566 -0.0968
   28ANI     HC  387   5.483   1.188   1.481 -0.1059  1.1516  0.8585
   28ANI     HC  388   5.430   1.345   1.671  1.6986  0.2520 -0.1021
   28ANI     HC  389   5.343   1.562   1.629 -0.4876  2.8054 -2.4339
   28ANI     HC  390   5.299   1.646   1.399  1.0097  0.9335  0.5049
   28ANI     HN  391   5.381   1.430   1.116  0.8758  1.2019 -0.1333
   28ANI     HN  392   5.395   1.580   1.163 -1.1804  0.4211 -2.6817
   29ANI     CN  393   0.927   1.264   0.051  0.4761  0.9817 -0.4672
   29ANI     CH  394   0.909   1.337   0.169 -0.0305  0.3109 -0.1274
   29ANI     CH  395   1.021   1.382   0.241  0.0095 -0.3524  0.2291
   29ANI     CH  396   1.149   1.356   0.191 -0.0773  1.0122 -0.7144
   29ANI     CH  397   1.168   1.290   0.069  0.4204  0.4457 -0.3340
   29ANI     CH  398   1.056   1.239   0.002  0.4507 -0.0542  0.0016
   29ANI     NH  399   0.818   1.218  -0.011  0.5658 -0.1979  0.2424
   29ANI     HC  400   0.812   1.367   0.205 -0.7836  0.3120 -2.0764
   29ANI     HC  401   1.011   1.433   0.335 -0.0873  0.0976 -0.0241
   29ANI     HC  402   1.239   1.389   0.241  0.1727  1.1397 -1.2356
   29ANI     HC  403   1.268   1.286   0.027  0.7688 -3.6259  0.7186
   29ANI     HC  404   1.064   1.196  -0.097  0.4718 -0.3500  0.1302
   29ANI     HN  405   0.832   1.158  -0.091  0.5069 -0.4293  0.4045
   29ANI     HN  406   0.739   1.278  -0.033  1.4708  0.9981  0.2409
   30ANI     CN  407   5.947   1.775   0.133 -0.1495 -0.5438 -0.1737
   30ANI     CH  408   5.976   1.779  -0.003  0.2728  0.3527 -0.0564
   30ANI     CH  409   5.873   1.806  -0.094  0.0309 -0.5661 -0.0574
   30ANI     CH  410   5.745   1.843  -0.051  0.1013 -0.7535  0.3172
   30ANI     CH  411   5.714   1.826   0.084 -0.1250  0.0424  0.3701
   30ANI     CH  412   5.815   1.797   0.176  0.0027 -0.2349  0.1413
   30ANI     NH  413   6.041   1.744   0.224 -0.0336 -0.2590 -0.1960
   30ANI     HC  414   6.075   1.758  -0.040  0.0002 -2.8297  0.9277
   30ANI     HC  415   5.894   1.817  -0.199  0.8166 -1.0896  0.0427
   30ANI     HC  416   5.668   1.870  -0.122  1.8549  1.9595 -0.6354
   30ANI     HC  417   5.611   1.831   0.118  0.4701  2.4893  1.9363
   30ANI     HC  418   5.779   1.774   0.276 -2.3244 -0.9828 -0.8434
   30ANI     HN  419   6.113   1.683   0.189  0.8239  0.0576  1.0084
   30ANI     HN  420   5.979   1.682   0.275 -0.9771  0.2681 -0.6694
   31ANI     CN  421   3.192   4.118   6.167  0.3072 -0.1171 -0.2258
   31ANI     CH  422   3.238   4.041   6.274 -0.0542 -0.2093 -0.1361
   31ANI     CH  423   3.185   3.914   6.303 -0.2044 -0.0299  0.3906
   31ANI     CH  424   3.086   3.865   6.218 -0.2925  0.2711  0.3168
   31ANI     CH  425   3.024   3.947   6.123 -0.1894 -0.1792 -0.1394
   31ANI     CH  426   3.074   4.076   6.103 -0.1313 -0.0947  0.5702
   31ANI     NH  427   3.255   4.230   6.132 -0.0827  0.3146  0.4515
   31ANI     HC  428   3.324   4.063   6.335 -0.4767 -1.4300  0.9185
   31ANI     HC  429   3.217   3.841   6.375  0.4904  0.8671  1.0151
   31ANI     HC  430   3.063   3.760   6.235 -1.7404  0.7083  1.1817
   31ANI     HC  431   2.931   3.916   6.077  0.9417 -1.6783 -1.4771
   31ANI     HC  432   3.020   4.133   6.030  0.2927 -0.5909 -0.1361
   31ANI     HN  433   3.354   4.212   6.129 -0.1876 -0.3561  1.1446
   31ANI     HN  434   3.229   4.268   6.042 -1.0860  1.3658  1.1697
   32ANI     CN  435   2.828   3.537   2.945 -0.6602  0.2296  0.2015
   32ANI     CH  436   2.789   3.418   3.009 -0.1263 -0.0835 -0.0450
   32ANI     CH  437   2.653   3.383   3.010 -0.3525  0.7824  0.1498
   32ANI     CH  438   2.565   3.456   2.929 -0.6318  0.2804 -0.0038
   32ANI     CH  439   2.607   3.572   2.862  0.0321 -0.5198 -0.9717
   32ANI     CH  440   2.741   3.611   2.865 -0.1085 -0.0586 -0.6717
   32ANI     NH  441   2.952   3.584   2.964 -0.3923 -0.5475  0.4026
   32ANI     HC  442   2.861   3.362   3.066  1.2964  0.3113 -1.4014
   32ANI     HC  443   2.616   3.301   3.070  0.1113  0.4427 -0.0249
   32ANI     HC  444   2.465   3.416   2.932  0.4793 -2.5351  0.4672
   32ANI     HC  445   2.525   3.615   2.806 -0.6356 -0.7033 -0.1419
   32ANI     HC  446   2.785   3.690   2.806  0.5335 -0.9365 -1.3908
   32ANI     HN  447   2.956   3.685   2.958 -1.3465 -0.5388 -0.1680
   32ANI     HN  448   3.013   3.561   2.887 -1.6181  0.7767 -1.0021
   33ANI     CN  449   4.885   1.654   4.738 -0.0147 -0.2024 -0.4497
   33ANI     CH  450   4.790   1.755   4.748 -0.0373 -0.2325 -0.3626
   33ANI     CH  451   4.707   1.764   4.861 -0.1590  0.4292 -0.5014
   33ANI     CH  452   4.708   1.659   4.954 -0.2517  0.1611 -0.8007
   33ANI     CH  453   4.794   1.550   4.942  0.6088  0.7273  0.0728
   33ANI     CH  454   4.884   1.553   4.835 -0.5501 -0.6894 -0.9629
   33ANI     NH  455   4.955   1.626   4.627  0.8061  0.1713 -0.0297
   33ANI     HC  456   4.782   1.837   4.678 -1.9629  0.2414  0.3807
   33ANI     HC  457   4.636   1.844   4.871 -3.2729 -2.1695 -1.1263
   33ANI     HC  458   4.633   1.652   5.032 -0.7206 -2.2982 -1.4310
   33ANI     HC  459   4.783   1.466   5.010  0.3411  0.3017 -0.4893
   33ANI     HC  460   4.954   1.470   4.835 -3.5138 -3.3227 -1.7198
   33ANI     HN  461   4.908   1.662   4.546 -0.8125  2.1341  1.7412
   33ANI     HN  462   4.969   1.526   4.623  2.9437  0.4281  0.0703
   34ANI     CN  463   5.174   1.410   5.448  0.2608 -0.5052  0.6918
   34ANI     CH  464   5.209   1.536   5.496  0.0911 -0.1029 -0.2271
   34ANI     CH  465   5.136   1.644   5.445  0.4181  0.1567 -0.1483
   34ANI     CH  466   5.028   1.632   5.357  0.1491 -0.3079  0.2378
   34ANI     CH  467   4.991   1.503   5.317 -0.1067 -0.1742  0.0411
   34ANI     CH  468   5.068   1.394   5.358  0.4943  0.3299  0.2656
   34ANI     NH  469   5.259   1.307   5.463  0.6695 -0.1852  0.5498
   34ANI     HC  470   5.295   1.552   5.560  0.0499 -1.4541  0.1735
   34ANI     HC  471   5.159   1.747   5.470  1.1145  0.8337 -3.4130
   34ANI     HC  472   4.973   1.717   5.318  0.6586 -0.5034 -0.9406
   34ANI     HC  473   4.905   1.494   5.252 -1.6332  1.4649  1.7790
   34ANI     HC  474   5.025   1.298   5.333 -0.1576  0.8775 -0.7685
   34ANI     HN  475   5.341   1.333   5.516  1.6206  0.0700 -0.9831
   34ANI     HN  476   5.295   1.287   5.370  1.0027 -1.6682  1.0009
   35ANI     CN  477   5.797   1.354   2.446 -0.9022  0.3831 -0.2168
   35ANI     CH  478   5.811   1.229   2.508  0.6064  0.7787  0.2458
   35ANI     CH  479   5.756   1.200   2.633 -0.0729  0.2139 -0.1846
   35ANI     CH  480   5.672   1.297   2.691 -0.2895 -0.1201  0.0640
   35ANI     CH  481   5.663   1.424   2.633 -0.1072  0.4547  1.2860
   35ANI     CH  482   5.724   1.454   2.511 -0.5058 -0.0761  0.9571
   35ANI     NH  483   5.854   1.384   2.328 -0.8344  0.2233 -0.2248
   35ANI     HC  484   5.852   1.139   2.465 -1.9111 -1.2986  2.0746
   35ANI     HC  485   5.764   1.105   2.683 -2.1401 -0.1125 -0.4013
   35ANI     HC  486   5.628   1.281   2.788 -1.4919 -0.1737 -0.4802
   35ANI     HC  487   5.606   1.503   2.679 -0.3706  0.3812  1.0796
   35ANI     HC  488   5.716   1.552   2.466  2.7068 -0.3575 -0.3655
   35ANI     HN  489   5.880   1.480   2.309  0.3334 -0.4994 -2.4519
   35ANI     HN  490   5.914   1.324   2.274  0.4188 -0.4642  1.8578
   36ANI     CN  491   5.393   2.818   4.648 -0.0867  0.6591 -0.5275
   36ANI     CH  492   5.352   2.877   4.768  0.0531 -0.0166 -0.1432
   36ANI     CH  493   5.331   3.015   4.773 -0.5767 -0.1388  0.6071
   36ANI     CH  494   5.347   3.092   4.657 -0.5175 -0.3830  0.4513
   36ANI     CH  495   5.391   3.034   4.538  0.4106  0.5988  0.3013
   36ANI     CH  496   5.418   2.897   4.535  0.2006  0.5713 -0.5261
   36ANI     NH  497   5.405   2.685   4.639  0.0984  0.5845  0.7089
   36ANI     HC  498   5.341   2.819   4.858  0.2936 -1.1514 -0.8352
   36ANI     HC  499   5.309   3.067   4.865 -0.7761  1.6138 -0.3976
   36ANI     HC  500   5.314   3.195   4.659 -2.2824 -0.8682 -2.1387
   36ANI     HC  501   5.409   3.095   4.451  3.5052  0.8069  1.0227
   36ANI     HC  502   5.440   2.840   4.446 -0.5071  0.0937 -0.4015
   36ANI     HN  503   5.333   2.646   4.699  0.1947  0.4391  0.7295
   36ANI     HN  504   5.392   2.651   4.544  1.6241  1.2389  0.2480
   37ANI     CN  505   1.198   2.979   0.590  0.0211  0.3543  0.5124
   37ANI     CH  506   1.061   2.952   0.588  0.0388  0.3087 -0.1527
   37ANI     CH  507   0.965   3.044   0.543 -0.4741  0.0221  0.3412
   37ANI     CH  508   1.011   3.168   0.497  0.3098 -0.2782  0.3004
   37ANI     CH  509   1.146   3.203   0.509  0.3247 -0.2195 -0.0384
   37ANI     CH  510   1.239   3.102   0.538  0.4721 -0.2178 -0.4974
   37ANI     NH  511   1.280   2.882   0.634 -0.2354 -0.0647  0.0635
   37ANI     HC  512   1.021   2.860   0.629 -1.1149  0.7260 -0.3139
   37ANI     HC  513   0.861   3.018   0.542 -0.5312 -0.0973  3.5849
   37ANI     HC  514   0.947   3.249   0.465 -1.7437 -1.8734  0.2604
   37ANI     HC  515   1.180   3.299   0.474  0.2879 -0.2627 -0.1925
   37ANI     HC  516   1.344   3.128   0.548  0.6238 -1.3897  1.3175
   37ANI     HN  517   1.376   2.905   0.656  0.1462 -2.2084  0.7131
   37ANI     HN  518   1.265   2.785   0.610  0.1011  0.1167 -0.9045
   38ANI     CN  519   5.695   2.721   2.273  0.3633  0.5670 -0.0064
   38ANI     CH  520   5.705   2.789   2.395 -0.3043  0.2730  0.2074
   38ANI     CH  521   5.826   2.790   2.465 -0.1053  0.3945 -0.1409
   38ANI     CH  522   5.939   2.731   2.406 -0.0670  0.5368 -0.2090
   38ANI     CH  523   5.935   2.673   2.279  0.0679 -0.1325  0.0925
   38ANI     CH  524   5.811   2.669   2.213 -0.0140 -0.6074  0.2741
   38ANI     NH  525   5.575   2.697   2.219  0.5929 -0.5613 -0.0352
   38ANI     HC  526   5.616   2.826   2.444 -0.5697  0.7406 -0.6177
   38ANI     HC  527   5.831   2.836   2.562 -1.2955 -0.0564  0.1450
   38ANI     HC  528   6.031   2.726   2.461 -0.1832  0.9722  0.0270
   38ANI     HC  529   6.023   2.628   2.235 -0.5887  0.5580 -2.0052
   38ANI     HC  530   5.806   2.618   2.118  2.7909 -1.1166  0.3514
   38ANI     HN  531   5.578   2.616   2.159 -2.2284 -0.0978 -0.8668
   38ANI     HN  532   5.496   2.685   2.281  2.2540 -0.9306  2.0763
   39ANI     CN  533   3.521   5.504   5.984 -0.7472 -1.0627 -0.3322
   39ANI     CH  534   3.577   5.388   6.039  0.2542 -0.7958 -0.7655
   39ANI     CH  535   3.542   5.363   6.172  0.0417 -0.1528 -0.6975
   39ANI     CH  536   3.479   5.460   6.249  0.4196  0.1106 -0.7190
   39ANI     CH  537   3.430   5.578   6.191  0.0597  0.3226  0.0070
   39ANI     CH  538   3.443   5.597   6.053  0.5684 -0.1891 -0.0161
   39ANI     NH  539   3.562   5.537   5.861  0.0258  0.0658  0.2127
   39ANI     HC  540   3.649   5.324   5.991 -0.1333 -1.8252  0.0020
   39ANI     HC  541   3.586   5.275   6.219 -0.5115 -0.6622 -1.1270
   39ANI     HC  542   3.462   5.452   6.356  3.3233  0.2061 -0.2165
   39ANI     HC  543   3.383   5.649   6.258 -1.7051 -0.4090 -0.4310
   39ANI     HC  544   3.406   5.689   6.010 -0.2282 -0.3548  0.3102
   39ANI     HN  545   3.576   5.453   5.805  2.6387 -0.7101  1.9458
   39ANI     HN  546   3.508   5.599   5.802  0.2486 -1.3769 -1.5672
   40ANI     CN  547   1.145   5.160   3.943  0.0056  0.2041  0.1490
   40ANI     CH  548   1.252   5.240   3.982 -0.2598  0.6239  0.0187
   40ANI     CH  549   1.378   5.226   3.921 -0.5141 -0.0666 -0.3521
   40ANI     CH  550   1.397   5.129   3.822  0.2899 -0.0430 -0.2273
   40ANI     CH  551   1.294   5.040   3.788 -0.4736  0.6079  0.3652
   40ANI     CH  552   1.171   5.056   3.853 -0.5213 -0.2207  0.4838
   40ANI     NH  553   1.036   5.176   4.020 -0.2451  0.3976 -0.2440
   40ANI     HC  554   1.235   5.310   4.062 -0.5955 -1.0011  1.3960
   40ANI     HC  555   1.449   5.306   3.939 -0.1830 -0.3581 -0.3611
   40ANI     HC  556   1.493   5.121   3.774  0.6271  1.5286  0.1748
   40ANI     HC  557   1.316   4.965   3.713  2.2832  2.6377 -0.9338
   40ANI     HC  558   1.092   4.986   3.829 -1.2462  0.7055  0.1158
   40ANI     HN  559   0.974   5.103   3.988 -0.9832  0.4684  0.9738
   40ANI     HN  560   1.052   5.171   4.120  0.9111 -0.1963 -0.4433
   41ANI     CN  561   1.174   2.944   2.384  0.2123  0.1871 -0.4923
   41ANI     CH  562   1.184   2.937   2.523  0.0665  0.6341 -0.4579
   41ANI     CH  563   1.070   2.976   2.595  0.0725  0.0046 -0.1021
   41ANI     CH  564   0.957   3.020   2.526 -0.0703  0.0858  0.1839
   41ANI     CH  565   0.950   3.028   2.386 -0.6930 -0.9156  0.1473
   41ANI     CH  566   1.062   2.990   2.313 -0.3733 -0.1251  0.2150
   41ANI     NH  567   1.279   2.903   2.312 -0.1314 -0.1903 -0.7822
   41ANI     HC  568   1.279   2.908   2.567 -0.5099 -0.4030  0.1110
   41ANI     HC  569   1.072   2.986   2.702 -1.1066 -0.9615  0.0171
   41ANI     HC  570   0.885   3.052   2.599 -0.4378 -0.1483 -0.0713
   41ANI     HC  571   0.863   3.081   2.349 -0.3497 -0.6633 -0.2993
   41ANI     HC  572   1.067   2.983   2.205 -0.7898  0.7706  0.1350
   41ANI     HN  573   1.259   2.874   2.217  2.0263 -0.6803 -1.1112
   41ANI     HN  574   1.328   2.834   2.367 -0.2155  1.1969  1.0656
   42ANI     CN  575   1.812   0.506   0.949  0.6315 -0.1977 -0.2257
   42ANI     CH  576   1.951   0.515   0.937  0.6587  0.3881  0.5149
   42ANI     CH  577   1.999   0.556   0.812 -0.6202  0.5095  0.0596
   42ANI     CH  578   1.918   0.591   0.703 -0.1714  0.1118 -0.4021
   42ANI     CH  579   1.779   0.584   0.720 -0.0947  0.1579  0.2463
   42ANI     CH  580   1.727   0.548   0.845  0.1129  0.1233  0.3229
   42ANI     NH  581   1.764   0.456   1.063  0.2234  0.9018  0.0893
   42ANI     HC  582   2.021   0.498   1.017 -0.9072  1.0765  2.0698
   42ANI     HC  583   2.105   0.563   0.795 -1.1897  0.9977 -3.8108
   42ANI     HC  584   1.969   0.622   0.613  1.1380  1.9700  0.9504
   42ANI     HC  585   1.712   0.606   0.639 -0.8689 -0.9063  0.5984
   42ANI     HC  586   1.620   0.536   0.850  0.1240 -0.2728 -0.3924
   42ANI     HN  587   1.724   0.366   1.043  1.0297  0.8089 -1.0898
   42ANI     HN  588   1.834   0.432   1.132 -0.5221 -1.0102  0.1935
   43ANI     CN  589   4.395   1.591   0.932 -0.0600 -0.1047  0.1878
   43ANI     CH  590   4.463   1.713   0.938  0.1084 -0.2078  0.3750
   43ANI     CH  591   4.574   1.738   0.857 -0.5598  0.4226 -0.3605
   43ANI     CH  592   4.612   1.649   0.756  0.2978 -0.3209  0.5943
   43ANI     CH  593   4.534   1.534   0.740 -0.0744  0.0495 -0.2988
   43ANI     CH  594   4.425   1.507   0.823 -0.0607  0.3669 -0.1776
   43ANI     NH  595   4.286   1.571   1.006 -0.2354  0.6252  0.1270
   43ANI     HC  596   4.442   1.781   1.020 -0.8396  0.0559 -0.0780
   43ANI     HC  597   4.622   1.835   0.867  0.9884 -0.6032  2.9696
   43ANI     HC  598   4.684   1.682   0.683 -0.1556  2.0991  1.1861
   43ANI     HC  599   4.555   1.471   0.655  1.9201  0.0691  0.1573
   43ANI     HC  600   4.363   1.424   0.792  3.5990 -2.6223  0.2207
   43ANI     HN  601   4.295   1.484   1.057  0.7444  0.5900 -0.1059
   43ANI     HN  602   4.268   1.637   1.081 -2.8709 -1.7078  1.6549
   44ANI     CN  603   6.094   3.578   2.973  0.4473  0.6746  1.1471
   44ANI     CH  604   6.164   3.462   3.009 -0.1019 -0.4134 -1.1950
   44ANI     CH  605   6.304   3.455   2.997  0.0278  0.1415 -0.0321
   44ANI     CH  606   6.376   3.563   2.946 -0.1165  0.0681 -0.3888
   44ANI     CH  607   6.303   3.674   2.903 -0.0717  0.0877 -0.4150
   44ANI     CH  608   6.164   3.687   2.920 -0.0504  0.2646 -0.3780
   44ANI     NH  609   5.965   3.599   3.001  0.3370  0.5773  0.7119
   44ANI     HC  610   6.112   3.377   3.049  2.8682 -1.6593  0.1689
   44ANI     HC  611   6.368   3.376   3.031  0.1193 -0.3684 -1.3700
   44ANI     HC  612   6.484   3.563   2.943  0.1284  2.0195  4.0364
   44ANI     HC  613   6.362   3.760   2.877  2.0684 -0.4022  2.5940
   44ANI     HC  614   6.121   3.785   2.901  1.5629  0.8248 -1.2758
   44ANI     HN  615   5.949   3.686   3.050 -0.5844  1.6563 -1.4253
   44ANI     HN  616   5.921   3.523   3.051 -0.1737  0.6605  0.3911
   45ANI     CN  617   4.832   4.868   2.187  0.1117  0.3347  0.3197
   45ANI     CH  618   4.795   4.993   2.239 -0.3694  0.0354  0.7039
   45ANI     CH  619   4.890   5.069   2.309  0.3057 -0.4439  0.3199
   45ANI     CH  620   5.016   5.017   2.340  0.3727 -0.1588  0.5215
   45ANI     CH  621   5.047   4.887   2.299  0.7089 -0.1006  0.5896
   45ANI     CH  622   4.957   4.814   2.221  0.1682  0.6058  0.5500
   45ANI     NH  623   4.747   4.798   2.111 -0.3892  0.9579  0.2988
   45ANI     HC  624   4.699   5.033   2.209  0.8314  2.4289 -0.0701
   45ANI     HC  625   4.864   5.172   2.330 -0.2284 -0.8343  1.6264
   45ANI     HC  626   5.093   5.073   2.391 -1.3676  0.7005  2.2977
   45ANI     HC  627   5.143   4.852   2.333  0.7078 -0.6076  0.0877
   45ANI     HC  628   4.970   4.711   2.192 -0.2852 -0.2653  3.2985
   45ANI     HN  629   4.761   4.698   2.117 -1.4980  0.8773  1.7112
   45ANI     HN  630   4.651   4.810   2.140 -1.1873 -3.1117 -0.4195
   46ANI     CN  631   1.237   3.300   1.547  0.1031 -0.2842  0.0985
   46ANI     CH  632   1.154   3.199   1.594 -0.0707 -0.3557 -0.3585
   46ANI     CH  633   1.189   3.113   1.699 -0.2293 -0.2431 -0.2132
   46ANI     CH  634   1.314   3.128   1.759 -0.3404 -0.3621  0.0497
   46ANI     CH  635   1.405   3.214   1.697 -0.9318  0.0420 -0.2580
   46ANI     CH  636   1.368   3.305   1.598  0.4251  0.0730 -0.7527
   46ANI     NH  637   1.198   3.389   1.455  0.5392 -0.4044 -0.2048
   46ANI     HC  638   1.050   3.198   1.566  0.0467  2.3696 -1.0105
   46ANI     HC  639   1.120   3.037   1.734  1.5296 -0.8837  1.9909
   46ANI     HC  640   1.343   3.073   1.848  2.2971  1.3382  0.2827
   46ANI     HC  641   1.502   3.229   1.742 -2.2847  1.8411  2.2163
   46ANI     HC  642   1.440   3.379   1.566 -0.1147  0.3070 -1.4386
   46ANI     HN  643   1.257   3.471   1.442  0.2954 -0.0351  0.9743
   46ANI     HN  644   1.101   3.417   1.454  0.4428 -0.7388 -0.2952
   47ANI     CN  645   4.525   5.320   4.780  0.0690  0.4501 -0.3176
   47ANI     CH  646   4.481   5.444   4.830  0.3882  0.0837  0.8867
   47ANI     CH  647   4.348   5.483   4.808  0.5837  0.3471  0.1625
   47ANI     CH  648   4.261   5.399   4.739  0.2923  0.5559  0.2741
   47ANI     CH  649   4.307   5.276   4.691  0.1580  0.2986  0.8105
   47ANI     CH  650   4.439   5.233   4.711  0.3156  0.2354 -0.3526
   47ANI     NH  651   4.658   5.305   4.786 -0.0222 -0.2382 -0.0188
   47ANI     HC  652   4.545   5.509   4.887  2.4295 -2.2778  1.3542
   47ANI     HC  653   4.312   5.569   4.862  1.3232  0.5186  0.3860
   47ANI     HC  654   4.158   5.426   4.720  0.5084  0.5554 -0.9333
   47ANI     HC  655   4.236   5.214   4.639  0.3768 -1.4849  2.5507
   47ANI     HC  656   4.475   5.140   4.669  2.5426  0.1867  1.5246
   47ANI     HN  657   4.688   5.209   4.786 -0.7982 -0.4873 -0.0456
   47ANI     HN  658   4.718   5.362   4.843  0.9084 -0.3268 -0.8870
   48ANI     CN  659   3.679   1.572   3.969  0.2711  0.4165 -0.7335
   48ANI     CH  660   3.684   1.674   4.064 -0.0912  0.0817 -0.3519
   48ANI     CH  661   3.677   1.638   4.199 -0.4183 -0.6330 -0.5540
   48ANI     CH  662   3.676   1.505   4.241  0.5220 -0.4372  0.0974
   48ANI     CH  663   3.667   1.404   4.145 -0.1652  0.1202 -0.4240
   48ANI     CH  664   3.662   1.439   4.009 -0.1637  0.6042 -0.3015
   48ANI     NH  665   3.691   1.598   3.838 -0.3386  0.8380 -0.7077
   48ANI     HC  666   3.676   1.778   4.035 -1.2193 -0.4259 -1.9108
   48ANI     HC  667   3.675   1.713   4.277 -0.5164 -1.3949  0.1808
   48ANI     HC  668   3.684   1.469   4.343  2.3621 -1.4604 -0.3770
   48ANI     HC  669   3.657   1.301   4.175  0.1433  0.1321 -0.2815
   48ANI     HC  670   3.646   1.361   3.935 -1.4283  0.4036  0.1668
   48ANI     HN  671   3.650   1.525   3.780 -0.8740 -0.2771  1.0455
   48ANI     HN  672   3.683   1.689   3.796  1.0792  1.1990 -0.2132
   49ANI     CN  673   1.243   5.488   3.649 -0.5318  0.3458 -0.1199
   49ANI     CH  674   1.219   5.367   3.583  0.3123 -0.1781  0.5182
   49ANI     CH  675   1.325   5.290   3.532 -0.2146 -0.6699  0.1478
   49ANI     CH  676   1.455   5.338   3.555 -0.5638  0.6075 -0.4830
   49ANI     CH  677   1.481   5.465   3.608  0.1832  0.1951  0.1359
   49ANI     CH  678   1.373   5.539   3.657 -0.2341 -0.4579  0.2053
   49ANI     NH  679   1.138   5.558   3.695 -0.4653 -0.0357  0.6243
   49ANI     HC  680   1.118   5.330   3.571  0.6035 -0.1679 -2.3591
   49ANI     HC  681   1.309   5.201   3.473  0.7059 -0.3131 -0.6500
   49ANI     HC  682   1.535   5.287   3.503 -0.5469 -3.4880  3.2446
   49ANI     HC  683   1.584   5.498   3.605  0.4904 -0.8530 -1.3712
   49ANI     HC  684   1.401   5.636   3.694  1.9948 -0.4649 -1.3716
   49ANI     HN  685   1.155   5.602   3.784  3.1801 -1.2982  0.6719
   49ANI     HN  686   1.063   5.497   3.725 -1.9512  1.5586  0.1951
   50ANI     CN  687   3.745   6.098   3.147  0.3878  0.3568 -0.1675
   50ANI     CH  688   3.682   6.215   3.191  0.2439  0.1674  0.1286
   50ANI     CH  689   3.692   6.254   3.325 -0.4572  0.0109  0.2271
   50ANI     CH  690   3.764   6.175   3.416 -0.3840 -0.0848  0.0852
   50ANI     CH  691   3.827   6.059   3.369  0.0490  0.0828  0.2607
   50ANI     CH  692   3.819   6.019   3.235 -1.1173 -0.3779  0.4611
   50ANI     NH  693   3.716   6.046   3.027  0.4342 -0.1419  0.0360
   50ANI     HC  694   3.628   6.272   3.117 -2.8608 -3.1404 -0.2965
   50ANI     HC  695   3.643   6.345   3.358 -1.2106 -1.2703  2.8517
   50ANI     HC  696   3.776   6.206   3.518  0.5915 -3.6505  1.1378
   50ANI     HC  697   3.889   6.003   3.438  0.4641 -0.3552 -0.4597
   50ANI     HC  698   3.864   5.924   3.208  2.2751  1.1320  0.4833
   50ANI     HN  699   3.642   6.098   2.983  0.1734 -1.0810 -0.6529
   50ANI     HN  700   3.725   5.945   3.020  1.5760 -0.0416  0.0071
   51ANI     CN  701   0.163   3.992   4.151  0.0327  0.2134 -0.8756
   51ANI     CH  702   0.294   4.009   4.196 -0.2893  0.2846  0.0380
   51ANI     CH  703   0.327   4.138   4.238 -0.1184  0.1261  0.3959
   51ANI     CH  704   0.236   4.245   4.241 -0.2823  0.0433 -1.2076
   51ANI     CH  705   0.109   4.229   4.185 -0.8929  0.5543  0.0155
   51ANI     CH  706   0.076   4.101   4.138 -0.3017  0.1458  0.6851
   51ANI     NH  707   0.125   3.867   4.122  0.5881 -0.0041 -0.6516
   51ANI     HC  708   0.359   3.923   4.190 -2.5523 -1.4317 -0.7005
   51ANI     HC  709   0.428   4.160   4.268 -0.3687  0.4874  0.9858
   51ANI     HC  710   0.269   4.337   4.288 -1.2196  0.1680 -0.8001
   51ANI     HC  711   0.038   4.310   4.186 -1.8085 -0.1973  4.1522
   51ANI     HC  712  -0.016   4.084   4.083 -0.6315  0.7135  1.0524
   51ANI     HN  713   0.167   3.803   4.188 -0.2758  2.9903  2.9703
   51ANI     HN  714   0.029   3.840   4.109  0.4247 -0.0855  0.6978
   52ANI     CN  715   4.483   2.628   2.823 -0.0257  0.2601  0.2126
   52ANI     CH  716   4.358   2.690   2.812  0.1158  0.4265 -0.5083
   52ANI     CH  717   4.274   2.715   2.922  0.1133 -0.5248 -0.2852
   52ANI     CH  718   4.314   2.675   3.050  0.0596  0.2729 -0.0180
   52ANI     CH  719   4.431   2.598   3.057  0.1127  0.4098  0.5896
   52ANI     CH  720   4.520   2.584   2.951 -0.5663 -0.4429  0.1272
   52ANI     NH  721   4.560   2.607   2.716  0.3994  0.3638  0.4949
   52ANI     HC  722   4.330   2.728   2.715 -2.5783 -1.3761 -0.4940
   52ANI     HC  723   4.190   2.782   2.914  0.3111 -0.3560 -1.0525
   52ANI     HC  724   4.248   2.689   3.134  1.2646 -2.4665  1.4370
   52ANI     HC  725   4.450   2.555   3.154  0.7570 -0.1959  0.1901
   52ANI     HC  726   4.621   2.548   2.971 -0.3451  0.5699  0.8459
   52ANI     HN  727   4.566   2.695   2.666  1.0908  0.6623  1.0971
   52ANI     HN  728   4.656   2.599   2.746  0.3660  2.1867  1.1691
   53ANI     CN  729   1.498   2.619   2.460 -0.0096  0.2626  0.2490
   53ANI     CH  730   1.571   2.671   2.352 -0.2547  0.3670  0.1331
   53ANI     CH  731   1.707   2.639   2.341 -0.2204  0.5093  0.1375
   53ANI     CH  732   1.764   2.542   2.425  0.1404  0.5648 -0.0441
   53ANI     CH  733   1.690   2.487   2.530 -0.1553 -0.0490 -0.5739
   53ANI     CH  734   1.557   2.526   2.546 -0.1525 -0.2093 -0.1616
   53ANI     NH  735   1.369   2.653   2.467 -0.0327  0.2723 -0.2040
   53ANI     HC  736   1.531   2.756   2.298  1.3366  0.2388 -1.3002
   53ANI     HC  737   1.768   2.684   2.264  0.0816  1.8307  1.1191
   53ANI     HC  738   1.865   2.508   2.406 -0.1463 -0.2486 -0.0864
   53ANI     HC  739   1.737   2.418   2.599 -1.5385  0.0137  0.4366
   53ANI     HC  740   1.495   2.481   2.623  1.1610 -2.2959 -0.2640
   53ANI     HN  741   1.304   2.611   2.402  1.2739  2.1757 -2.8443
   53ANI     HN  742   1.338   2.636   2.562  0.2316 -1.3055 -0.3821
   54ANI     CN  743   3.186   4.617   4.103  0.0343  0.3056  0.0950
   54ANI     CH  744   3.058   4.670   4.086 -0.0313  0.1492  0.1047
   54ANI     CH  745   3.016   4.719   3.962 -0.6656 -0.5926  0.0206
   54ANI     CH  746   3.098   4.696   3.850 -0.6414 -0.6254  0.0447
   54ANI     CH  747   3.229   4.651   3.871 -0.1763  0.6768  0.0007
   54ANI     CH  748   3.275   4.607   3.995 -0.6297 -0.8143 -0.3501
   54ANI     NH  749   3.229   4.588   4.226 -0.0845  0.1871  0.1091
   54ANI     HC  750   2.987   4.686   4.166  0.3710 -1.9768  0.9015
   54ANI     HC  751   2.913   4.750   3.950 -0.5909  0.1648  1.3064
   54ANI     HC  752   3.059   4.723   3.753 -0.9496 -0.3124  0.2531
   54ANI     HC  753   3.291   4.651   3.782  1.4378 -2.2430  1.0714
   54ANI     HC  754   3.377   4.576   4.010 -1.1227 -2.6158 -0.5533
   54ANI     HN  755   3.152   4.543   4.273 -0.0497 -1.5900 -1.5046
   54ANI     HN  756   3.296   4.513   4.240 -1.2809 -0.8425  0.3192
   55ANI     CN  757   3.297   2.612   2.029 -0.0377  0.1324 -0.0262
   55ANI     CH  758   3.284   2.676   2.153  0.4484  0.5593 -0.1927
   55ANI     CH  759   3.349   2.616   2.261 -0.0917  0.1392 -0.0968
   55ANI     CH  760   3.415   2.493   2.252  0.1449  0.2458  0.1608
   55ANI     CH  761   3.435   2.441   2.123  0.0431  0.0980  0.2044
   55ANI     CH  762   3.373   2.496   2.011  0.2034  0.2555  0.1920
   55ANI     NH  763   3.241   2.672   1.924 -0.2905  0.0632  0.0688
   55ANI     HC  764   3.229   2.768   2.170 -1.1891 -0.3761 -0.2860
   55ANI     HC  765   3.345   2.657   2.361 -2.4438 -0.8318  0.2331
   55ANI     HC  766   3.465   2.454   2.339 -0.3351  1.2931  0.9093
   55ANI     HC  767   3.498   2.353   2.119  2.1976  1.6460 -0.8115
   55ANI     HC  768   3.391   2.455   1.912  1.1858  1.1860 -0.0280
   55ANI     HN  769   3.152   2.719   1.934 -1.3662 -1.6775 -0.9138
   55ANI     HN  770   3.222   2.595   1.861  1.6397 -0.5179  0.1763
   56ANI     CN  771   2.672   4.087   2.181  0.3460  0.2766 -0.3533
   56ANI     CH  772   2.723   4.056   2.055  0.3007 -0.0743 -0.2851
   56ANI     CH  773   2.657   4.110   1.944  0.3589  0.4798 -0.0496
   56ANI     CH  774   2.536   4.179   1.957 -0.3020 -0.6389 -0.1653
   56ANI     CH  775   2.493   4.216   2.085  0.8148  0.7608 -0.1856
   56ANI     CH  776   2.556   4.164   2.198  0.1654 -0.0284 -0.1791
   56ANI     NH  777   2.729   4.045   2.295  0.1375  0.1773 -0.2862
   56ANI     HC  778   2.810   3.991   2.055 -0.6567 -1.4608  2.5972
   56ANI     HC  779   2.691   4.077   1.847  0.3175 -1.5472  0.6083
   56ANI     HC  780   2.476   4.220   1.877  0.2916  0.7102  0.0599
   56ANI     HC  781   2.405   4.277   2.098 -0.7872 -1.5360 -0.0187
   56ANI     HC  782   2.525   4.194   2.297  2.5265 -1.9670  1.2027
   56ANI     HN  783   2.769   3.952   2.292 -0.0536  0.0917 -0.2136
   56ANI     HN  784   2.664   4.034   2.372  2.2300 -0.5529  1.4199
   57ANI     CN  785   3.016   0.609   0.968  0.6810  0.1038  0.1874
   57ANI     CH  786   3.135   0.681   0.990  0.0989  1.1434 -0.0047
   57ANI     CH  787   3.241   0.665   0.900  0.0759  0.8673  0.0147
   57ANI     CH  788   3.221   0.603   0.777 -0.8868  0.4722  0.3707
   57ANI     CH  789   3.100   0.535   0.756 -0.4243 -0.2369 -0.0184
   57ANI     CH  790   2.995   0.540   0.849 -0.1195  0.1331  0.3062
   57ANI     NH  791   2.921   0.610   1.063 -0.2953  0.1661 -0.7913
   57ANI     HC  792   3.167   0.723   1.083  0.1816  0.3201  0.3448
   57ANI     HC  793   3.341   0.697   0.926  0.8943  0.1287 -2.0856
   57ANI     HC  794   3.299   0.610   0.703 -0.2905  0.9392  1.0441
   57ANI     HC  795   3.086   0.486   0.660  2.7753  2.2083 -1.8237
   57ANI     HC  796   2.903   0.491   0.821  0.8225 -0.1331 -2.5757
   57ANI     HN  797   2.830   0.620   1.018  0.5533  1.7493 -2.2340
   57ANI     HN  798   2.938   0.687   1.126  0.8679  1.1953 -2.3267
   58ANI     CN  799   1.708   1.637   4.478  0.4626 -0.0485  0.1124
   58ANI     CH  800   1.659   1.699   4.363  0.5277  0.4000  0.3223
   58ANI     CH  801   1.722   1.688   4.238 -0.6368 -0.3598 -0.2138
   58ANI     CH  802   1.818   1.587   4.223 -0.2746 -0.0848  0.2432
   58ANI     CH  803   1.868   1.523   4.338  0.5698  0.5051  0.2078
   58ANI     CH  804   1.820   1.554   4.466  0.3622 -0.2126  0.3061
   58ANI     NH  805   1.665   1.659   4.603 -0.0514 -0.0830 -0.0574
   58ANI     HC  806   1.576   1.768   4.372 -0.9869 -1.0972 -1.6576
   58ANI     HC  807   1.688   1.731   4.146 -1.2632 -2.6267 -1.0719
   58ANI     HC  808   1.874   1.567   4.133 -1.2314 -3.0192  0.2327
   58ANI     HC  809   1.953   1.459   4.321 -0.3136 -0.9590  1.2778
   58ANI     HC  810   1.874   1.516   4.551  1.2074  0.7363  0.2160
   58ANI     HN  811   1.732   1.699   4.668  0.8959  1.0920 -1.7046
   58ANI     HN  812   1.594   1.730   4.611 -0.2753 -0.3418  0.2745
   59ANI     CN  813   5.007   3.248   4.476  0.3461 -0.3090 -0.1464
   59ANI     CH  814   4.963   3.222   4.345 -0.2816 -0.3839  0.0748
   59ANI     CH  815   4.953   3.332   4.259 -0.7604 -0.1967  0.3676
   59ANI     CH  816   4.974   3.464   4.301 -0.5815 -0.1367  0.0933
   59ANI     CH  817   5.006   3.483   4.436 -0.6598 -0.3410  0.1399
   59ANI     CH  818   5.031   3.377   4.524 -0.2590 -0.2824  0.0959
   59ANI     NH  819   5.017   3.150   4.566  0.4362 -0.3775 -0.2315
   59ANI     HC  820   4.934   3.127   4.305 -0.3736  0.5112 -2.0485
   59ANI     HC  821   4.927   3.322   4.155 -0.1363 -1.0182  0.2937
   59ANI     HC  822   4.976   3.543   4.228  0.5009  0.1534  0.4241
   59ANI     HC  823   5.033   3.582   4.470  2.2697 -1.2080  0.4259
   59ANI     HC  824   5.069   3.397   4.624  0.8957  1.4559 -0.6753
   59ANI     HN  825   4.994   3.069   4.511 -0.4826 -0.0940 -0.2675
   59ANI     HN  826   5.111   3.136   4.602  0.2035  2.1515  1.4742
   60ANI     CN  827   2.263   2.937   2.291 -0.1396  0.1960  0.4629
   60ANI     CH  828   2.319   2.846   2.199  0.1589  0.6373  0.2042
   60ANI     CH  829   2.405   2.746   2.245 -0.3468  0.1440  0.0886
   60ANI     CH  830   2.435   2.735   2.381  0.4535  0.1129 -0.0879
   60ANI     CH  831   2.371   2.816   2.475  0.3490 -0.1934  0.1051
   60ANI     CH  832   2.292   2.921   2.427 -0.2403 -0.4936  0.4071
   60ANI     NH  833   2.167   3.021   2.249 -0.2435  0.1648  0.6365
   60ANI     HC  834   2.283   2.862   2.098  1.8112 -0.6055 -0.5893
   60ANI     HC  835   2.441   2.673   2.174 -0.0760  2.1484 -1.9236
   60ANI     HC  836   2.502   2.655   2.406 -0.2461 -1.2555 -2.4283
   60ANI     HC  837   2.392   2.816   2.581  1.3315 -0.3829 -0.0887
   60ANI     HC  838   2.240   2.988   2.494 -0.4305 -1.1036  0.8662
   60ANI     HN  839   2.125   2.994   2.161  0.7006  0.1982  0.1688
   60ANI     HN  840   2.102   3.026   2.326 -0.0657  0.3015  0.7779
   61ANI     CN  841   5.896   4.113   0.644 -0.0593  0.2080 -0.2454
   61ANI     CH  842   6.024   4.057   0.634 -0.0349  0.3220 -0.6005
   61ANI     CH  843   6.043   3.919   0.615 -0.0482  0.2706 -0.2489
   61ANI     CH  844   5.931   3.835   0.612  0.0451  0.1352  0.0114
   61ANI     CH  845   5.802   3.889   0.625 -0.0344  0.0323 -0.3482
   61ANI     CH  846   5.786   4.027   0.639  0.0937 -0.0239  0.3714
   61ANI     NH  847   5.872   4.241   0.672 -0.1891  0.1150  0.0628
   61ANI     HC  848   6.109   4.124   0.633 -0.6633  1.1358 -0.0726
   61ANI     HC  849   6.140   3.880   0.588 -0.0996 -0.3601  0.4531
   61ANI     HC  850   5.930   3.729   0.596 -0.0344 -0.2706  2.4706
   61ANI     HC  851   5.719   3.821   0.617  0.8087 -1.0910  0.2017
   61ANI     HC  852   5.686   4.067   0.647 -0.3849 -0.9452 -0.9261
   61ANI     HN  853   5.777   4.253   0.703 -1.2533 -2.1714 -2.1695
   61ANI     HN  854   5.938   4.283   0.737 -0.0787 -0.4973  0.3521
   62ANI     CN  855   5.526   2.166   3.666 -0.5415 -0.1106  0.6138
   62ANI     CH  856   5.577   2.061   3.589 -0.0346  0.1518  0.5925
   62ANI     CH  857   5.690   2.076   3.507  0.3728 -0.2750  1.0686
   62ANI     CH  858   5.752   2.202   3.514 -0.2125  0.0473  0.5216
   62ANI     CH  859   5.713   2.307   3.598  0.3191  0.4449  0.2744
   62ANI     CH  860   5.603   2.282   3.681  0.3490 -0.6176 -0.0007
   62ANI     NH  861   5.413   2.143   3.735 -0.4977  0.0137  0.7261
   62ANI     HC  862   5.525   1.967   3.588  1.2771 -0.5849  0.2727
   62ANI     HC  863   5.724   2.007   3.432 -1.9072 -0.8234  0.4896
   62ANI     HC  864   5.830   2.227   3.445  0.8415  0.6817  1.9227
   62ANI     HC  865   5.769   2.399   3.604  1.5246 -0.3958  2.3045
   62ANI     HC  866   5.562   2.363   3.740  1.5855  0.3779 -0.4873
   62ANI     HN  867   5.411   2.192   3.824 -0.1057  0.6774  0.3765
   62ANI     HN  868   5.398   2.044   3.741  1.2996 -0.3114  0.2636
   63ANI     CN  869   1.446   2.956   4.366 -0.0593 -0.5466  0.1760
   63ANI     CH  870   1.345   2.904   4.284 -0.2932 -0.1083  0.1834
   63ANI     CH  871   1.362   2.776   4.229  0.5502  0.2902 -0.4905
   63ANI     CH  872   1.471   2.695   4.260 -0.0761 -0.3272  0.1108
   63ANI     CH  873   1.572   2.750   4.339 -0.1620 -0.3600  0.2442
   63ANI     CH  874   1.560   2.879   4.391  0.1523 -0.2634  0.0785
   63ANI     NH  875   1.426   3.075   4.424 -0.2757 -0.3750 -0.2440
   63ANI     HC  876   1.250   2.951   4.262  0.6251  0.9423 -1.6405
   63ANI     HC  877   1.282   2.742   4.165 -1.2242  2.0922  0.7087
   63ANI     HC  878   1.479   2.597   4.214  1.1319 -0.2691  0.1810
   63ANI     HC  879   1.659   2.686   4.351 -0.9168 -1.4067  0.1787
   63ANI     HC  880   1.642   2.917   4.450 -1.0656 -0.3799  1.8800
   63ANI     HN  881   1.374   3.142   4.369 -1.5373 -0.5703  0.6917
   63ANI     HN  882   1.512   3.124   4.445 -0.1902  0.6838 -2.9060
   64ANI     CN  883   6.062   3.421   0.342  0.2895 -0.4121  0.3875
   64ANI     CH  884   6.153   3.451   0.444  0.5320 -0.1125  0.0839
   64ANI     CH  885   6.122   3.435   0.579  0.4315  0.0910  0.0839
   64ANI     CH  886   5.995   3.387   0.611  0.2041  0.4795 -0.2318
   64ANI     CH  887   5.899   3.363   0.512 -0.2431  0.3210  0.2388
   64ANI     CH  888   5.936   3.370   0.377  0.1537 -0.1188  0.3241
   64ANI     NH  889   6.088   3.448   0.213 -0.1310 -0.2500  0.3348
   64ANI     HC  890   6.246   3.498   0.416 -1.0241  1.4113 -2.7795
   64ANI     HC  891   6.195   3.480   0.645  0.5205 -0.0718  0.0964
   64ANI     HC  892   5.965   3.387   0.715  0.7042 -1.7632 -0.0766
   64ANI     HC  893   5.803   3.319   0.536  0.7306 -2.7384 -1.2584
   64ANI     HC  894   5.856   3.360   0.305 -0.6717 -0.3199  1.2577
   64ANI     HN  895   6.007   3.447   0.153 -1.2775  0.6982  1.8455
   64ANI     HN  896   6.141   3.532   0.195 -0.2247 -0.4585 -0.9278
   65ANI     CN  897   3.632   5.039   1.897 -0.8475  0.3745  0.4023
   65ANI     CH  898   3.675   4.954   1.999  0.8905 -0.3152 -0.8849
   65ANI     CH  899   3.666   4.815   1.983  0.4128 -0.5153  0.9703
   65ANI     CH  900   3.623   4.761   1.861  0.0437  0.7526  0.5332
   65ANI     CH  901   3.585   4.844   1.755 -0.6564  0.2070  0.3574
   65ANI     CH  902   3.598   4.982   1.774  0.1353  0.1554  0.2275
   65ANI     NH  903   3.635   5.173   1.907  0.0752  0.4146 -0.3283
   65ANI     HC  904   3.710   5.003   2.088  0.0773 -0.6387 -0.3823
   65ANI     HC  905   3.705   4.749   2.059  0.4708 -1.0669  0.4669
   65ANI     HC  906   3.611   4.655   1.847 -0.7535  0.7561  1.2018
   65ANI     HC  907   3.559   4.803   1.658 -0.0734  1.6724 -0.4297
   65ANI     HC  908   3.572   5.042   1.688 -1.8894  0.2628  0.8901
   65ANI     HN  909   3.634   5.187   2.007 -1.5870 -0.3183 -0.2376
   65ANI     HN  910   3.553   5.211   1.863 -0.9937 -1.4517 -0.0234
   66ANI     CN  911   0.689   5.013   0.949 -0.2951  0.1408 -0.2250
   66ANI     CH  912   0.653   4.927   1.054 -0.0711 -0.0271 -0.2856
   66ANI     CH  913   0.720   4.926   1.177 -0.3892  0.1525 -0.1099
   66ANI     CH  914   0.819   5.023   1.194 -0.2749  0.1143 -0.5454
   66ANI     CH  915   0.853   5.118   1.097  0.2628  0.0653 -0.4086
   66ANI     CH  916   0.780   5.115   0.977  0.0339 -0.1424 -0.2648
   66ANI     NH  917   0.636   5.000   0.826  0.0964  0.6132 -0.4425
   66ANI     HC  918   0.581   4.849   1.034  1.7352 -1.5664 -1.0403
   66ANI     HC  919   0.704   4.855   1.257 -0.5485  0.3364  0.0199
   66ANI     HC  920   0.874   5.010   1.286  0.7891  2.0286 -0.8754
   66ANI     HC  921   0.928   5.191   1.123  0.3406 -0.2277  0.1798
   66ANI     HC  922   0.799   5.191   0.903  0.3679 -0.7622 -0.8237
   66ANI     HN  923   0.559   4.935   0.827  0.6289 -0.0650  2.1962
   66ANI     HN  924   0.624   5.090   0.782 -0.9634  1.1782  0.9726
   67ANI     CN  925   6.157   1.934   2.906  0.3424  0.2656  0.6685
   67ANI     CH  926   6.131   2.021   2.799  0.1586 -0.3675  0.1918
   67ANI     CH  927   6.232   2.059   2.710  0.0725 -0.4355  0.0655
   67ANI     CH  928   6.360   2.005   2.727  0.3193  0.4437  1.0353
   67ANI     CH  929   6.387   1.918   2.833  0.0369 -0.8352  0.0651
   67ANI     CH  930   6.285   1.882   2.923  0.1255 -0.3817  0.3465
   67ANI     NH  931   6.056   1.887   2.981  0.1098  0.2020  0.3214
   67ANI     HC  932   6.033   2.066   2.789  0.3451 -0.2888 -1.3906
   67ANI     HC  933   6.200   2.126   2.631  0.0086 -1.6979 -0.9883
   67ANI     HC  934   6.435   2.030   2.654 -1.6296 -2.1686 -1.9867
   67ANI     HC  935   6.489   1.884   2.837  0.4442  0.3620 -0.0733
   67ANI     HC  936   6.304   1.812   3.003 -0.3318  0.1173  0.8978
   67ANI     HN  937   5.969   1.886   2.930 -0.0852  2.9710  0.5235
   67ANI     HN  938   6.083   1.798   3.019  0.4486  0.6979  1.2730
   68ANI     CN  939   3.289   5.682   1.427 -0.2417 -0.8824  0.1886
   68ANI     CH  940   3.400   5.644   1.504  0.1090 -0.2285  0.0073
   68ANI     CH  941   3.429   5.704   1.627  0.1713  0.0992 -0.1652
   68ANI     CH  942   3.362   5.822   1.661 -0.5370 -0.1978 -0.5263
   68ANI     CH  943   3.254   5.864   1.583 -0.7667 -0.2551 -0.2408
   68ANI     CH  944   3.214   5.793   1.468 -0.4058 -0.9440  0.0583
   68ANI     NH  945   3.259   5.613   1.317  0.1340  0.3389 -0.6845
   68ANI     HC  946   3.458   5.556   1.481 -0.3040 -0.4669 -0.1219
   68ANI     HC  947   3.509   5.663   1.687  0.1638 -0.0971 -0.2883
   68ANI     HC  948   3.386   5.883   1.747 -2.5922  2.2433 -1.6138
   68ANI     HC  949   3.192   5.949   1.607 -0.3123 -0.5294  1.9391
   68ANI     HC  950   3.131   5.826   1.409  1.1645 -0.6903 -2.0825
   68ANI     HN  951   3.166   5.631   1.281  0.5674  1.5312 -1.2462
   68ANI     HN  952   3.274   5.514   1.328 -0.5885  0.0174 -2.2985
   69ANI     CN  953   1.549   3.911   1.978  0.2615  0.0544 -0.2508
   69ANI     CH  954   1.628   3.886   1.866 -0.0969 -0.4472 -0.3920
   69ANI     CH  955   1.602   3.951   1.745  0.0772  0.3408 -0.0068
   69ANI     CH  956   1.503   4.050   1.735  0.1681  0.4405  0.0792
   69ANI     CH  957   1.430   4.081   1.850  0.0932 -0.2743  0.2279
   69ANI     CH  958   1.459   4.018   1.972  0.1710  0.0155  0.3601
   69ANI     NH  959   1.573   3.843   2.091  0.7209 -0.1147 -0.4485
   69ANI     HC  960   1.713   3.820   1.877  2.2120  2.3401 -0.7417
   69ANI     HC  961   1.666   3.916   1.665  1.8038  2.6704  0.2896
   69ANI     HC  962   1.487   4.102   1.642  0.5971 -1.0212 -0.8310
   69ANI     HC  963   1.350   4.152   1.860  0.1081 -0.3326  0.8069
   69ANI     HC  964   1.393   4.026   2.057 -1.5243  0.9038 -1.0073
   69ANI     HN  965   1.668   3.835   2.123  0.3389 -1.7265  0.3347
   69ANI     HN  966   1.505   3.855   2.165  0.7606  2.7632 -0.8187
   70ANI     CN  967   4.364   5.318   3.441  0.0170  0.0813 -0.6584
   70ANI     CH  968   4.438   5.437   3.443 -0.6803  0.5049  1.0846
   70ANI     CH  969   4.373   5.556   3.408 -0.1295  0.2926 -0.6947
   70ANI     CH  970   4.240   5.560   3.362 -0.4831 -0.1863  0.2851
   70ANI     CH  971   4.173   5.437   3.357 -0.2780 -0.2851 -0.0431
   70ANI     CH  972   4.234   5.316   3.388 -0.1492 -0.2709 -0.2348
   70ANI     NH  973   4.413   5.209   3.502 -0.3958  0.0326 -0.4079
   70ANI     HC  974   4.537   5.435   3.484 -0.7049  2.2157  1.2777
   70ANI     HC  975   4.437   5.643   3.414 -1.2014  0.9935  0.9254
   70ANI     HC  976   4.201   5.658   3.338  0.1174  0.2744  1.1444
   70ANI     HC  977   4.069   5.435   3.327  0.1914 -0.0848 -1.7495
   70ANI     HC  978   4.190   5.220   3.364 -1.6249  1.0627 -3.1011
   70ANI     HN  979   4.496   5.220   3.558  0.0835 -1.2004 -0.8586
   70ANI     HN  980   4.354   5.146   3.554 -1.5778  2.2783  1.0299
   71ANI     CN  981   1.117   3.078   5.875  0.1264  0.0853  0.2183
   71ANI     CH  982   1.140   3.142   5.997 -0.4597 -0.0752  0.4113
   71ANI     CH  983   1.044   3.230   6.048 -0.1655  0.2878  0.3330
   71ANI     CH  984   0.927   3.256   5.975  0.1536  0.4793 -0.1164
   71ANI     CH  985   0.910   3.195   5.850  0.8991  0.5102 -0.2383
   71ANI     CH  986   1.002   3.104   5.799  0.1298 -0.4333  0.0335
   71ANI     NH  987   1.209   2.994   5.825  0.0795  0.0546  0.1815
   71ANI     HC  988   1.231   3.123   6.052  0.7429 -1.3401 -1.9470
   71ANI     HC  989   1.064   3.276   6.143  0.8328  0.8414 -0.1354
   71ANI     HC  990   0.851   3.320   6.017 -0.2423 -0.0654 -0.0011
   71ANI     HC  991   0.816   3.212   5.800  0.5452 -1.2805 -0.2316
   71ANI     HC  992   0.985   3.070   5.697 -2.8763  2.4975 -0.4890
   71ANI     HN  993   1.192   2.948   5.737  0.1490 -0.3791  0.3919
   71ANI     HN  994   1.245   2.922   5.886  1.5822  0.7831  0.2012
   72ANI     CN  995   3.644   2.202   2.868 -0.2094  0.6600  0.1667
   72ANI     CH  996   3.684   2.328   2.916 -0.7190  0.5408  0.9066
   72ANI     CH  997   3.733   2.338   3.047  0.0219  0.0756  0.6687
   72ANI     CH  998   3.739   2.225   3.129  0.1204 -0.2519  0.2087
   72ANI     CH  999   3.698   2.098   3.086 -0.4921  0.0050  0.0334
   72ANI     CH 1000   3.647   2.093   2.955  0.2379  0.3210 -0.2708
   72ANI     NH 1001   3.602   2.181   2.743  0.0620 -0.2298  0.2261
   72ANI     HC 1002   3.692   2.411   2.848  2.1554  0.8913  1.6044
   72ANI     HC 1003   3.770   2.428   3.094  1.5965 -0.9429  1.4118
   72ANI     HC 1004   3.779   2.250   3.226  0.7750  0.2805 -0.1911
   72ANI     HC 1005   3.713   2.010   3.146  1.9962 -0.9197 -1.8351
   72ANI     HC 1006   3.606   2.000   2.918  2.8781 -1.4147  0.9386
   72ANI     HN 1007   3.575   2.260   2.686 -0.7947 -1.6231 -1.3318
   72ANI     HN 1008   3.538   2.103   2.742 -0.1713 -0.0296 -0.4257
   73ANI     CN 1009   2.500   2.298   1.391 -0.1738  0.6943  0.1790
   73ANI     CH 1010   2.630   2.299   1.443 -0.1447 -0.2496  0.1424
   73ANI     CH 1011   2.661   2.254   1.572 -0.1799 -0.3229  0.1248
   73ANI     CH 1012   2.556   2.205   1.650  0.3126 -0.8311  0.4685
   73ANI     CH 1013   2.427   2.197   1.597  0.3163 -0.0105  0.3356
   73ANI     CH 1014   2.396   2.243   1.468  0.2081  0.4603  0.5297
   73ANI     NH 1015   2.479   2.346   1.268 -0.3984 -0.1869 -0.1341
   73ANI     HC 1016   2.708   2.351   1.389 -0.1918  1.9297  2.0989
   73ANI     HC 1017   2.756   2.263   1.622 -0.7502 -0.9027  1.3199
   73ANI     HC 1018   2.571   2.182   1.755 -1.5200  0.7480  1.0991
   73ANI     HC 1019   2.354   2.154   1.664  0.8896 -2.1733 -0.3746
   73ANI     HC 1020   2.294   2.230   1.436 -0.2533 -3.6607  3.3449
   73ANI     HN 1021   2.526   2.290   1.199 -0.1071  0.4776 -0.4745
   73ANI     HN 1022   2.381   2.344   1.243 -1.0901  0.8485  2.3088
   74ANI     CN 1023   5.197   5.815   4.552 -0.6512  0.4625  0.5631
   74ANI     CH 1024   5.234   5.709   4.467  0.4793  1.2317  0.0825
   74ANI     CH 1025   5.197   5.709   4.332 -0.1253  0.0143  0.2475
   74ANI     CH 1026   5.120   5.815   4.284  0.9443  0.3618 -0.7116
   74ANI     CH 1027   5.097   5.927   4.364 -0.3207 -0.4158  0.0212
   74ANI     CH 1028   5.126   5.924   4.501 -0.3666  0.4184  0.0542
   74ANI     NH 1029   5.224   5.806   4.683 -0.3138  0.2927  0.4842
   74ANI     HC 1030   5.287   5.630   4.517 -0.0943  0.1639 -0.9860
   74ANI     HC 1031   5.220   5.622   4.272  0.2282  1.0364 -1.1305
   74ANI     HC 1032   5.077   5.818   4.185 -2.1518 -0.6516  0.5789
   74ANI     HC 1033   5.035   6.005   4.322  0.9777  0.9174  0.5196
   74ANI     HC 1034   5.102   6.005   4.569  1.4383  2.2530 -1.4396
   74ANI     HN 1035   5.259   5.721   4.724 -1.4862 -1.0044 -1.1069
   74ANI     HN 1036   5.161   5.858   4.742 -2.3872 -0.9156 -0.6013
   75ANI     CN 1037   1.043   3.909   4.613  0.5281  0.4274  0.4771
   75ANI     CH 1038   1.020   3.878   4.479  0.2913  0.6279  0.4718
   75ANI     CH 1039   1.029   3.979   4.382  0.5601  0.0471 -0.1162
   75ANI     CH 1040   1.066   4.109   4.420 -0.3060  0.3997 -0.4513
   75ANI     CH 1041   1.094   4.142   4.553 -0.5236  0.6355 -0.4643
   75ANI     CH 1042   1.074   4.041   4.648  0.2476  0.6848 -0.2468
   75ANI     NH 1043   1.039   3.814   4.707  0.5190  0.0995  0.1439
   75ANI     HC 1044   0.979   3.780   4.458  1.4308 -0.6875  4.0155
   75ANI     HC 1045   1.003   3.965   4.278  0.8551  2.6853 -0.5832
   75ANI     HC 1046   1.072   4.195   4.355 -2.0174  1.1549  0.3713
   75ANI     HC 1047   1.132   4.240   4.579  2.5237 -0.8327  0.9748
   75ANI     HC 1048   1.090   4.052   4.754  1.4237 -0.2513 -0.3127
   75ANI     HN 1049   1.079   3.724   4.683  1.3178  0.0209  1.6528
   75ANI     HN 1050   1.103   3.835   4.782  1.0654 -2.7086  0.5153
   76ANI     CN 1051   1.127   4.577   1.827  0.2197 -0.2758 -0.1169
   76ANI     CH 1052   1.240   4.516   1.883  0.2898 -0.2739 -0.2547
   76ANI     CH 1053   1.228   4.390   1.941 -0.0173 -0.1141  0.0297
   76ANI     CH 1054   1.103   4.328   1.955 -0.1782  0.1760 -0.1321
   76ANI     CH 1055   0.987   4.392   1.910 -0.3936 -0.3357 -0.3131
   76ANI     CH 1056   1.002   4.518   1.851  0.2283 -0.1462  0.2511
   76ANI     NH 1057   1.134   4.694   1.761  0.0053 -0.1127  0.1499
   76ANI     HC 1058   1.339   4.559   1.873  0.1058  0.8771  2.4173
   76ANI     HC 1059   1.313   4.347   1.992 -0.4661 -0.4142  0.5441
   76ANI     HC 1060   1.095   4.234   2.007  1.0746 -0.6279 -1.3637
   76ANI     HC 1061   0.887   4.350   1.914 -0.7988  0.5500 -0.8159
   76ANI     HC 1062   0.912   4.564   1.814 -0.0278 -0.8442  0.0033
   76ANI     HN 1063   1.215   4.745   1.792  2.5111 -3.1466 -1.1704
   76ANI     HN 1064   1.054   4.752   1.782  0.4267  0.8941 -0.9710
   77ANI     CN 1065   3.315   0.951   1.848 -0.1527 -0.1033  0.4238
   77ANI     CH 1066   3.252   0.892   1.737  0.0772  0.2671  0.0959
   77ANI     CH 1067   3.112   0.883   1.736  0.1351 -0.7090 -0.0514
   77ANI     CH 1068   3.034   0.933   1.842  0.3371  0.3951 -0.4155
   77ANI     CH 1069   3.099   0.991   1.952 -0.7430  0.0846  0.3913
   77ANI     CH 1070   3.238   1.001   1.954 -0.6931 -0.5643  0.2580
   77ANI     NH 1071   3.448   0.964   1.851 -0.0869 -0.6217 -0.1642
   77ANI     HC 1072   3.319   0.850   1.664 -1.5227  0.7292 -1.6619
   77ANI     HC 1073   3.063   0.840   1.650 -1.2481 -0.2670  0.4918
   77ANI     HC 1074   2.927   0.926   1.841  0.2970  0.9784 -0.6353
   77ANI     HC 1075   3.045   1.032   2.036 -0.0551  2.4688 -0.2961
   77ANI     HC 1076   3.287   1.051   2.036 -0.4903 -0.8740  0.3263
   77ANI     HN 1077   3.462   1.053   1.896 -1.0761 -1.9622  2.9106
   77ANI     HN 1078   3.479   0.972   1.755  1.2447 -2.6924  0.0616
   78ANI     CN 1079   0.971   0.544   0.805  0.3547 -0.0008 -0.1461
   78ANI     CH 1080   1.083   0.539   0.889  0.2105  0.2497  0.0606
   78ANI     CH 1081   1.103   0.423   0.964  0.3954  0.0994 -0.2202
   78ANI     CH 1082   1.005   0.323   0.960  0.3694  0.1224 -0.1670
   78ANI     CH 1083   0.882   0.338   0.896  0.3386  0.3566 -0.0555
   78ANI     CH 1084   0.866   0.451   0.815  0.2535  0.0809 -0.4306
   78ANI     NH 1085   0.958   0.634   0.707  0.8261 -0.1537 -0.3487
   78ANI     HC 1086   1.152   0.621   0.890  0.3642  0.1187  0.1309
   78ANI     HC 1087   1.195   0.409   1.019  1.7934  3.4512 -1.5665
   78ANI     HC 1088   1.033   0.236   1.018 -0.3249  1.4104  2.1592
   78ANI     HC 1089   0.812   0.255   0.901  1.1975 -0.2510  2.0617
   78ANI     HC 1090   0.773   0.466   0.763 -0.2667  2.0880  0.9731
   78ANI     HN 1091   1.022   0.712   0.703  1.2058 -0.5513 -3.6565
   78ANI     HN 1092   0.942   0.595   0.615  0.4632  2.2245 -1.3374
   79ANI     CN 1093   3.668   4.059   5.956 -0.6319  0.4524  0.4296
   79ANI     CH 1094   3.535   4.021   5.937 -0.2994 -0.3652 -0.2811
   79ANI     CH 1095   3.471   3.955   6.043  0.2523 -0.0460  0.2504
   79ANI     CH 1096   3.535   3.922   6.163 -0.0258  0.6495  0.5928
   79ANI     CH 1097   3.670   3.957   6.177  0.1495  0.2886 -0.1207
   79ANI     CH 1098   3.734   4.030   6.076  0.1361  0.4958  0.0195
   79ANI     NH 1099   3.723   4.141   5.866 -0.2779 -0.4945 -0.2174
   79ANI     HC 1100   3.482   4.046   5.846 -1.8010 -2.5721 -0.0518
   79ANI     HC 1101   3.370   3.921   6.028 -0.1969  0.9245  1.0181
   79ANI     HC 1102   3.479   3.870   6.239 -1.0827  1.0542  0.0871
   79ANI     HC 1103   3.723   3.927   6.267 -1.3903  0.0525  0.7256
   79ANI     HC 1104   3.836   4.064   6.086  0.8458 -1.3012 -0.9631
   79ANI     HN 1105   3.710   4.114   5.769 -2.3183  1.8865 -0.6375
   79ANI     HN 1106   3.822   4.157   5.881  0.4002 -2.6459 -1.9843
   80ANI     CN 1107   2.860   3.773   3.950  0.5963  0.5643 -0.1192
   80ANI     CH 1108   2.849   3.743   4.087  0.4642 -0.2047 -0.2998
   80ANI     CH 1109   2.910   3.627   4.136  0.3848 -0.0856  0.0779
   80ANI     CH 1110   2.969   3.540   4.044 -0.0739 -0.0578 -0.2466
   80ANI     CH 1111   2.970   3.563   3.906  0.3022  0.0130 -0.2349
   80ANI     CH 1112   2.896   3.673   3.860 -0.1312 -0.0576  0.2741
   80ANI     NH 1113   2.799   3.882   3.901 -0.1193  0.0355 -0.4045
   80ANI     HC 1114   2.803   3.814   4.154 -1.5194 -0.5919 -1.2039
   80ANI     HC 1115   2.900   3.595   4.239 -0.0679 -1.3754 -0.3601
   80ANI     HC 1116   3.018   3.447   4.071 -0.5603  0.0698  1.1118
   80ANI     HC 1117   3.007   3.488   3.839 -0.3943  1.4272 -2.2491
   80ANI     HC 1118   2.886   3.693   3.754 -2.0142 -1.7614  0.1110
   80ANI     HN 1119   2.726   3.873   3.832  0.0563  1.3318 -0.7831
   80ANI     HN 1120   2.745   3.915   3.979 -3.1031 -1.9182 -1.5451
   81ANI     CN 1121   4.975   2.614   5.504 -0.2185 -0.1717  0.1114
   81ANI     CH 1122   4.968   2.729   5.426 -0.1755  0.3019  0.7989
   81ANI     CH 1123   5.028   2.843   5.481  0.1454  0.3972  0.2534
   81ANI     CH 1124   5.088   2.844   5.607  0.6568  0.0070  0.0158
   81ANI     CH 1125   5.085   2.730   5.690  0.1115  0.2511  0.3301
   81ANI     CH 1126   5.029   2.615   5.633  0.2023  0.4027 -0.0719
   81ANI     NH 1127   4.917   2.503   5.457 -0.1375 -0.1444 -0.0504
   81ANI     HC 1128   4.935   2.727   5.323 -0.9311 -2.6971  1.0509
   81ANI     HC 1129   5.044   2.921   5.408  0.3228 -1.1671 -1.4073
   81ANI     HC 1130   5.135   2.938   5.634 -2.0234  2.0166 -2.1734
   81ANI     HC 1131   5.123   2.728   5.791 -0.1972 -0.3087  0.4344
   81ANI     HC 1132   5.041   2.530   5.699 -0.1388  0.0372 -0.4793
   81ANI     HN 1133   4.832   2.529   5.408  0.1198 -2.0327 -1.5865
   81ANI     HN 1134   4.895   2.440   5.533  2.4099 -1.0443 -0.0103
   82ANI     CN 1135   5.841   0.933   0.767  0.7314  0.5532 -0.1233
   82ANI     CH 1136   5.782   1.050   0.816  0.1510  0.2579 -0.1139
   82ANI     CH 1137   5.680   1.116   0.746  0.0484  0.6043  0.3629
   82ANI     CH 1138   5.614   1.044   0.646 -0.0548  0.6589  0.3923
   82ANI     CH 1139   5.667   0.927   0.591 -0.2631  0.6228  0.2644
   82ANI     CH 1140   5.780   0.873   0.656 -0.1043  0.8509  0.1775
   82ANI     NH 1141   5.953   0.878   0.817 -0.1109 -0.5404  0.5718
   82ANI     HC 1142   5.814   1.107   0.902 -2.5410 -1.1845  1.9070
   82ANI     HC 1143   5.644   1.213   0.777 -1.0986  0.6104 -0.9736
   82ANI     HC 1144   5.522   1.088   0.611 -0.2655 -1.3890 -1.7207
   82ANI     HC 1145   5.617   0.880   0.508  2.2375 -0.4572 -0.6787
   82ANI     HC 1146   5.810   0.776   0.622  0.5501  1.1643 -0.1428
   82ANI     HN 1147   5.953   0.863   0.917  0.9112 -0.6351  0.5603
   82ANI     HN 1148   5.970   0.781   0.792 -0.0578 -0.6105  0.8741
   83ANI     CN 1149   6.020   4.605   2.429 -0.0679 -0.0269 -0.3479
   83ANI     CH 1150   6.157   4.610   2.456 -0.1401  0.0531 -0.0012
   83ANI     CH 1151   6.243   4.512   2.406  0.4721  0.3579  0.4472
   83ANI     CH 1152   6.192   4.407   2.330  0.3323  0.5727  0.2433
   83ANI     CH 1153   6.054   4.400   2.307  0.3410  0.1336  0.3185
   83ANI     CH 1154   5.968   4.499   2.354 -0.2312 -0.2642  0.1059
   83ANI     NH 1155   5.947   4.702   2.485  0.0108 -0.0794 -0.1533
   83ANI     HC 1156   6.200   4.691   2.514  0.1329 -1.0806  1.4015
   83ANI     HC 1157   6.350   4.526   2.419  0.8374 -1.0188 -0.9973
   83ANI     HC 1158   6.254   4.332   2.282 -1.3629 -0.4784 -0.3432
   83ANI     HC 1159   6.021   4.317   2.246  0.9020  0.2803 -0.1936
   83ANI     HC 1160   5.862   4.496   2.333 -0.0062  1.9663 -1.4847
   83ANI     HN 1161   5.998   4.789   2.491  0.8347 -0.5118 -0.8248
   83ANI     HN 1162   5.859   4.711   2.437  0.4541  0.7616 -0.8229
   84ANI     CN 1163   3.942   1.449   4.769 -0.2197 -0.0213  0.1983
   84ANI     CH 1164   3.863   1.551   4.823  0.0177  0.1918  0.1433
   84ANI     CH 1165   3.802   1.650   4.745 -0.3186 -0.0708  0.0743
   84ANI     CH 1166   3.826   1.645   4.607  0.4971  0.0510  0.2096
   84ANI     CH 1167   3.904   1.543   4.551  0.1581  0.2554 -0.6509
   84ANI     CH 1168   3.964   1.445   4.630 -0.5606  0.4376  0.1275
   84ANI     NH 1169   3.999   1.356   4.846  0.0494  0.0922  0.1385
   84ANI     HC 1170   3.836   1.547   4.928  0.3828 -1.2884  0.1897
   84ANI     HC 1171   3.739   1.718   4.799  1.4413  0.0766  1.9973
   84ANI     HC 1172   3.783   1.722   4.544  0.5757 -0.6168 -0.6736
   84ANI     HC 1173   3.910   1.531   4.444  1.9195 -1.7430 -0.3632
   84ANI     HC 1174   4.013   1.361   4.583 -2.1535 -0.1829 -0.4429
   84ANI     HN 1175   4.098   1.361   4.827  0.1845 -2.2759  0.1068
   84ANI     HN 1176   4.017   1.378   4.943  0.2126  1.6746 -0.2420
   85ANI     CN 1177   6.251   1.245   3.732 -0.1633  0.1193  0.3812
   85ANI     CH 1178   6.338   1.333   3.668 -0.3739 -0.1969 -0.3499
   85ANI     CH 1179   6.407   1.291   3.553  0.4951 -0.3876  0.2380
   85ANI     CH 1180   6.381   1.165   3.500  0.1598 -0.2366  0.0420
   85ANI     CH 1181   6.287   1.080   3.560  0.4296 -0.2904  0.3894
   85ANI     CH 1182   6.217   1.121   3.675  0.1181  0.2102  0.0201
   85ANI     NH 1183   6.200   1.282   3.850  0.4906  0.1893  0.6400
   85ANI     HC 1184   6.363   1.425   3.719  0.5096 -1.1916  1.0394
   85ANI     HC 1185   6.482   1.352   3.506  0.0639  0.4643  0.6368
   85ANI     HC 1186   6.441   1.135   3.416 -2.0518 -1.6997 -1.0869
   85ANI     HC 1187   6.272   0.986   3.508  3.1612  0.5406 -2.0069
   85ANI     HC 1188   6.134   1.064   3.712 -0.0063  1.8724  2.4162
   85ANI     HN 1189   6.267   1.341   3.899  3.6494 -1.7998 -1.1024
   85ANI     HN 1190   6.186   1.203   3.911 -0.9687 -0.2965 -0.3082
   86ANI     CN 1191   3.609   5.985   5.781  0.2877 -0.1355  0.1350
   86ANI     CH 1192   3.484   5.982   5.843  0.1599 -0.2622 -0.1286
   86ANI     CH 1193   3.382   6.060   5.787 -0.0728  0.2563  1.0026
   86ANI     CH 1194   3.401   6.128   5.666  0.4143 -0.6889  0.5362
   86ANI     CH 1195   3.527   6.131   5.606 -0.0001 -0.2551 -0.3241
   86ANI     CH 1196   3.633   6.059   5.664 -0.0550  0.0839  0.2038
   86ANI     NH 1197   3.709   5.908   5.827  0.5261 -0.0720 -0.2682
   86ANI     HC 1198   3.474   5.927   5.935  0.9913 -2.2950 -1.2278
   86ANI     HC 1199   3.286   6.052   5.835 -0.7632 -1.3958 -0.5744
   86ANI     HC 1200   3.324   6.194   5.628  1.4432  1.4179  2.0479
   86ANI     HC 1201   3.559   6.186   5.519 -1.3170  1.1794  0.0807
   86ANI     HC 1202   3.724   6.057   5.606 -0.8561  0.0000 -1.0697
   86ANI     HN 1203   3.667   5.827   5.870 -2.0987  1.0467 -0.6229
   86ANI     HN 1204   3.769   5.879   5.752  0.4945  2.6000 -1.3981
   87ANI     CN 1205   5.181   3.827   2.622 -0.1681  0.0545 -0.6378
   87ANI     CH 1206   5.206   3.964   2.628  0.1473 -0.0390  0.2449
   87ANI     CH 1207   5.178   4.036   2.745 -0.2577  0.5670 -0.2233
   87ANI     CH 1208   5.129   3.972   2.859 -0.1685  0.5490 -0.1958
   87ANI     CH 1209   5.119   3.832   2.857 -0.0489  0.5352  0.0981
   87ANI     CH 1210   5.138   3.761   2.738  0.3566  0.8158 -0.0058
   87ANI     NH 1211   5.193   3.757   2.508 -0.1513 -0.2620 -0.4425
   87ANI     HC 1212   5.239   4.015   2.538  0.9918 -1.3019 -0.1714
   87ANI     HC 1213   5.211   4.139   2.752  1.1428  0.0456  1.0761
   87ANI     HC 1214   5.110   4.031   2.948 -1.8745  0.7134 -0.6688
   87ANI     HC 1215   5.096   3.778   2.948  0.5958  2.2326  1.2956
   87ANI     HC 1216   5.123   3.654   2.737 -2.1744  1.1376 -0.8472
   87ANI     HN 1217   5.192   3.656   2.516  1.1800 -0.2187  0.4734
   87ANI     HN 1218   5.284   3.772   2.467  1.0993 -0.6177  2.1018
   88ANI     CN 1219   0.554   2.776   0.121  0.5332 -0.3429 -0.0317
   88ANI     CH 1220   0.417   2.803   0.113  0.5306 -0.4100 -0.2243
   88ANI     CH 1221   0.353   2.844   0.231  0.1348 -0.8210 -0.2912
   88ANI     CH 1222   0.426   2.868   0.349 -0.0172  0.1359 -0.3848
   88ANI     CH 1223   0.564   2.848   0.355 -0.0463 -0.0518 -0.3366
   88ANI     CH 1224   0.624   2.794   0.240  0.3791 -0.4581  0.0758
   88ANI     NH 1225   0.627   2.721   0.022  0.2475 -0.2494 -0.2965
   88ANI     HC 1226   0.347   2.781   0.034 -0.2363 -1.6134  0.7602
   88ANI     HC 1227   0.251   2.877   0.236  0.8162  1.2446  0.7546
   88ANI     HC 1228   0.371   2.900   0.436 -1.1851  0.5286 -1.2489
   88ANI     HC 1229   0.620   2.853   0.447 -1.1514 -2.4963  0.5095
   88ANI     HC 1230   0.724   2.753   0.242  1.2315  1.5053 -0.7641
   88ANI     HN 1231   0.598   2.726  -0.074  3.7861  4.6597 -1.2440
   88ANI     HN 1232   0.727   2.727   0.024  0.2156  0.0645  0.8564
   89ANI     CN 1233   2.014   0.980   3.490 -0.3049 -0.9758 -0.2848
   89ANI     CH 1234   1.881   1.008   3.456 -0.0782  0.6871  0.1738
   89ANI     CH 1235   1.799   1.057   3.558 -0.1203  0.4513  0.2531
   89ANI     CH 1236   1.846   1.078   3.688 -0.1994 -0.0612  0.3650
   89ANI     CH 1237   1.982   1.055   3.716 -0.0636 -0.1903 -0.3880
   89ANI     CH 1238   2.066   1.002   3.618 -0.0688  0.1378 -0.5696
   89ANI     NH 1239   2.102   0.928   3.403  0.2226  0.4771 -0.6338
   89ANI     HC 1240   1.850   1.004   3.353  1.7986 -0.6290 -0.3751
   89ANI     HC 1241   1.697   1.083   3.532 -0.6545 -0.9657  0.8597
   89ANI     HC 1242   1.788   1.112   3.773  0.2281  1.2534  0.1450
   89ANI     HC 1243   2.010   1.075   3.818 -0.7216  1.6309 -0.5420
   89ANI     HC 1244   2.166   0.975   3.648 -0.6970  0.5341  1.9503
   89ANI     HN 1245   2.082   0.843   3.353 -0.7242 -0.5604  1.4544
   89ANI     HN 1246   2.193   0.905   3.441 -0.2495 -0.2678  0.0428
   90ANI     CN 1247   3.433   2.548   1.481 -0.2358  0.3099  0.0472
   90ANI     CH 1248   3.534   2.643   1.462 -0.0866  0.1742  0.1651
   90ANI     CH 1249   3.557   2.697   1.335 -0.0408 -0.2825 -0.0224
   90ANI     CH 1250   3.481   2.652   1.226 -0.3761 -0.0753  0.1246
   90ANI     CH 1251   3.375   2.564   1.249 -0.5059  0.0278 -0.0854
   90ANI     CH 1252   3.350   2.510   1.375  0.0247 -0.0674 -0.0212
   90ANI     NH 1253   3.393   2.515   1.605 -0.0907 -0.5483 -0.1324
   90ANI     HC 1254   3.589   2.693   1.541 -0.4554 -0.4355  0.8193
   90ANI     HC 1255   3.634   2.770   1.315  1.0267 -1.5231 -0.5214
   90ANI     HC 1256   3.492   2.705   1.133 -0.1338  0.8759  0.6829
   90ANI     HC 1257   3.305   2.544   1.169 -0.5929 -0.5346  0.1326
   90ANI     HC 1258   3.263   2.449   1.398  0.2473 -0.4761 -0.2668
   90ANI     HN 1259   3.300   2.554   1.598  0.2333 -0.0048 -1.7570
   90ANI     HN 1260   3.427   2.556   1.690  0.0484 -2.2697  0.6586
   91ANI     CN 1261   1.628   0.359   5.479 -0.1435  0.4346  0.2111
   91ANI     CH 1262   1.510   0.332   5.408  0.0794  0.5169 -0.1892
   91ANI     CH 1263   1.412   0.247   5.461  0.0570  0.6403 -0.0328
   91ANI     CH 1264   1.427   0.192   5.589 -1.0911  0.0893 -0.1314
   91ANI     CH 1265   1.539   0.225   5.666 -1.0175 -0.1832 -0.1245
   91ANI     CH 1266   1.633   0.313   5.611 -1.3397  0.3944  0.2464
   91ANI     NH 1267   1.724   0.442   5.436  0.1831  0.0804  0.2490
   91ANI     HC 1268   1.486   0.375   5.312 -0.5472 -0.2526 -0.3769
   91ANI     HC 1269   1.334   0.217   5.393  1.7351  0.0390 -1.7425
   91ANI     HC 1270   1.356   0.128   5.639 -0.9299  0.3660  0.4586
   91ANI     HC 1271   1.564   0.188   5.765 -1.2271  1.7144  0.6613
   91ANI     HC 1272   1.725   0.332   5.665 -0.4265 -1.7264 -0.5142
   91ANI     HN 1273   1.760   0.417   5.345  0.4263 -0.2275  0.4321
   91ANI     HN 1274   1.804   0.436   5.497  0.0239  2.8775  0.7960
   92ANI     CN 1275   5.719   1.563   5.445 -0.1483 -0.6273  0.0595
   92ANI     CH 1276   5.797   1.562   5.329 -0.4437 -0.4803 -0.1431
   92ANI     CH 1277   5.741   1.593   5.205  0.1096  0.9223 -0.0606
   92ANI     CH 1278   5.611   1.644   5.197 -0.1568  0.2602 -0.0058
   92ANI     CH 1279   5.531   1.649   5.311 -0.0903 -0.0822  0.0549
   92ANI     CH 1280   5.587   1.610   5.434  0.1912  0.3297  0.0568
   92ANI     NH 1281   5.780   1.524   5.558  0.2522 -0.8148 -0.2218
   92ANI     HC 1282   5.904   1.546   5.338 -0.5199 -0.3241  1.1958
   92ANI     HC 1283   5.801   1.579   5.116  1.1133  1.0720  0.5848
   92ANI     HC 1284   5.590   1.684   5.099 -0.1265 -1.0995 -0.5800
   92ANI     HC 1285   5.427   1.676   5.310 -0.2806 -0.6561  1.8423
   92ANI     HC 1286   5.524   1.612   5.522  0.3192 -1.4303  0.2048
   92ANI     HN 1287   5.879   1.542   5.553  0.4343 -1.7761 -0.1743
   92ANI     HN 1288   5.741   1.579   5.633 -0.0965 -2.7680  1.0445
   93ANI     CN 1289   4.073   1.687   4.003  0.0636  0.0390 -0.0140
   93ANI     CH 1290   4.155   1.790   4.053 -0.6883  0.5431  0.1925
   93ANI     CH 1291   4.209   1.785   4.182  0.6378 -0.2851 -0.3789
   93ANI     CH 1292   4.176   1.677   4.265 -0.0243  0.1756 -0.0375
   93ANI     CH 1293   4.089   1.579   4.217 -0.4162  0.5749 -0.1466
   93ANI     CH 1294   4.037   1.581   4.087 -0.4462  0.1117 -0.1428
   93ANI     NH 1295   4.020   1.689   3.880 -0.1816 -0.0622  0.0917
   93ANI     HC 1296   4.184   1.869   3.985 -3.6582  0.8087 -0.8395
   93ANI     HC 1297   4.273   1.862   4.223  0.7102 -0.2465 -0.5654
   93ANI     HC 1298   4.209   1.674   4.367  1.2634  1.9564 -0.3690
   93ANI     HC 1299   4.054   1.497   4.278 -1.2329 -0.7568 -2.3348
   93ANI     HC 1300   3.963   1.506   4.062  1.6009 -1.2525 -2.4076
   93ANI     HN 1301   4.016   1.786   3.854  3.3070  0.1255  0.0463
   93ANI     HN 1302   3.928   1.650   3.893  0.1528 -0.7756  0.3165
   94ANI     CN 1303   1.834   2.417   0.665  0.0085 -0.3040  0.3903
   94ANI     CH 1304   1.757   2.526   0.705  0.4987  0.1915 -0.0130
   94ANI     CH 1305   1.642   2.564   0.635  0.2407 -0.6976 -0.0755
   94ANI     CH 1306   1.604   2.492   0.521 -0.0635 -0.0138 -0.4135
   94ANI     CH 1307   1.685   2.385   0.481 -0.0183 -0.1996  0.1641
   94ANI     CH 1308   1.797   2.341   0.553 -0.1222 -0.1702  0.3432
   94ANI     NH 1309   1.947   2.391   0.732  0.2030 -0.1121  0.1380
   94ANI     HC 1310   1.782   2.596   0.784  2.5552 -1.9359  1.2675
   94ANI     HC 1311   1.587   2.648   0.674 -0.6839 -1.3575  0.0370
   94ANI     HC 1312   1.528   2.522   0.451 -0.3019 -0.1651 -0.2260
   94ANI     HC 1313   1.665   2.347   0.382 -2.4257 -0.3615  0.6828
   94ANI     HC 1314   1.864   2.262   0.524  0.2317  0.1123  0.3968
   94ANI     HN 1315   2.021   2.340   0.686 -0.3211 -0.2766 -0.5195
   94ANI     HN 1316   1.975   2.469   0.790 -0.2758  1.1732 -1.3103
   95ANI     CN 1317   3.460   4.532   5.870 -0.6849 -1.1794 -0.3511
   95ANI     CH 1318   3.430   4.630   5.774  0.7137 -0.4431 -0.0636
   95ANI     CH 1319   3.490   4.630   5.648 -0.0537 -0.2910 -0.4335
   95ANI     CH 1320   3.587   4.532   5.621  0.2502  0.0258 -0.4954
   95ANI     CH 1321   3.615   4.434   5.716  0.1239  0.8752  0.4247
   95ANI     CH 1322   3.548   4.428   5.839 -0.4785 -1.1172  0.0257
   95ANI     NH 1323   3.396   4.527   5.987  0.3555  0.5682  0.3266
   95ANI     HC 1324   3.363   4.712   5.790 -0.5145 -1.3530 -0.4362
   95ANI     HC 1325   3.460   4.705   5.576 -1.1519  0.2386  0.5778
   95ANI     HC 1326   3.635   4.543   5.525 -0.0483 -0.6369 -0.7269
   95ANI     HC 1327   3.685   4.355   5.693  1.1994  1.9441 -0.0062
   95ANI     HC 1328   3.567   4.352   5.914  0.2327  0.1402  1.1448
   95ANI     HN 1329   3.428   4.458   6.054 -0.5770 -0.4750 -0.2705
   95ANI     HN 1330   3.383   4.614   6.037  0.9934  0.7768  0.1279
   96ANI     CN 1331   4.971   3.586   3.844  0.3862  0.2362 -0.1318
   96ANI     CH 1332   5.094   3.520   3.848 -0.0219 -0.5462 -0.3710
   96ANI     CH 1333   5.197   3.563   3.764  0.0385 -0.5850 -0.3157
   96ANI     CH 1334   5.170   3.663   3.669  0.1089 -0.8825 -0.6483
   96ANI     CH 1335   5.050   3.734   3.672  0.2548 -0.6514 -0.2769
   96ANI     CH 1336   4.948   3.696   3.760  0.4100  0.7374  0.5171
   96ANI     NH 1337   4.885   3.549   3.940  0.6142  0.3745  0.1271
   96ANI     HC 1338   5.115   3.439   3.916  1.0941 -0.0211 -0.0707
   96ANI     HC 1339   5.295   3.519   3.764  0.3806  0.1499 -0.5654
   96ANI     HC 1340   5.255   3.676   3.604  1.1696  0.6736  1.0097
   96ANI     HC 1341   5.020   3.811   3.601  0.9822 -0.4154 -0.3308
   96ANI     HC 1342   4.854   3.748   3.772 -0.2558 -0.2509 -0.3730
   96ANI     HN 1343   4.792   3.559   3.900  1.3949  1.8247 -1.3947
   96ANI     HN 1344   4.905   3.452   3.958  1.6614 -0.3343 -4.3162
   97ANI     CN 1345   1.246   6.054   4.411 -0.1455 -0.0988  0.1947
   97ANI     CH 1346   1.139   6.144   4.405 -0.1144 -0.1315 -0.8449
   97ANI     CH 1347   1.074   6.184   4.522  0.1051 -0.4565 -0.6110
   97ANI     CH 1348   1.105   6.121   4.643 -0.4330  0.3591 -0.0421
   97ANI     CH 1349   1.201   6.019   4.645  0.2627  1.0046 -0.0944
   97ANI     CH 1350   1.278   5.990   4.532 -0.1675 -0.5084 -0.0138
   97ANI     NH 1351   1.310   6.019   4.299 -0.3846  0.4553 -0.1137
   97ANI     HC 1352   1.119   6.203   4.317 -3.0287 -1.2725 -0.9900
   97ANI     HC 1353   0.996   6.258   4.513 -0.5898 -1.1877 -0.7451
   97ANI     HC 1354   1.052   6.151   4.732  1.6706 -0.8381  1.6586
   97ANI     HC 1355   1.223   5.962   4.734  0.4675  0.8302 -0.2550
   97ANI     HC 1356   1.354   5.913   4.525  1.1720  0.8901 -1.5052
   97ANI     HN 1357   1.405   5.994   4.321 -0.8047  1.5809  3.2399
   97ANI     HN 1358   1.323   6.099   4.238 -2.1614 -0.4831 -1.7828
   98ANI     CN 1359   6.230   0.672   5.930 -0.0064  0.3429 -0.2812
   98ANI     CH 1360   6.313   0.578   5.994  0.3204  0.5893 -0.3409
   98ANI     CH 1361   6.306   0.560   6.132 -0.4818 -0.3278 -0.4914
   98ANI     CH 1362   6.209   0.627   6.207 -0.0944 -0.0987 -0.1896
   98ANI     CH 1363   6.122   0.715   6.141 -0.5020 -0.4965 -0.1839
   98ANI     CH 1364   6.137   0.744   6.005  0.4900  0.5555  0.1389
   98ANI     NH 1365   6.232   0.664   5.796 -0.7167  0.1281 -0.2777
   98ANI     HC 1366   6.383   0.521   5.934 -0.8137 -0.0247 -1.1176
   98ANI     HC 1367   6.383   0.499   6.177 -0.1199 -0.3771 -1.1774
   98ANI     HC 1368   6.185   0.604   6.310 -1.3727 -0.4285 -0.5498
   98ANI     HC 1369   6.045   0.763   6.200  0.4061 -0.0498  0.6659
   98ANI     HC 1370   6.076   0.821   5.960  0.2846  0.0307 -0.4864
   98ANI     HN 1371   6.132   0.662   5.778 -1.1512 -3.3726  1.9385
   98ANI     HN 1372   6.289   0.592   5.755  0.2686  0.1876  0.9561
   99ANI     CN 1373   1.561   6.177   0.063  0.1256 -0.9874  0.0374
   99ANI     CH 1374   1.492   6.143   0.180  0.4796 -0.8709  0.2799
   99ANI     CH 1375   1.550   6.172   0.304 -0.3982  0.4101  0.3991
   99ANI     CH 1376   1.670   6.245   0.305 -0.1134 -0.0256 -0.5086
   99ANI     CH 1377   1.725   6.298   0.188  0.2580  0.3906 -0.1444
   99ANI     CH 1378   1.678   6.253   0.064 -0.5953  0.1282  0.2708
   99ANI     NH 1379   1.500   6.137  -0.050  0.3110  0.3610 -0.5462
   99ANI     HC 1380   1.405   6.080   0.167 -0.8680  1.3379 -1.9776
   99ANI     HC 1381   1.521   6.130   0.399  0.4537  1.2577  1.0445
   99ANI     HC 1382   1.713   6.266   0.402 -2.7697 -0.1223  0.7401
   99ANI     HC 1383   1.799   6.377   0.189  0.7295 -0.0487 -0.0160
   99ANI     HC 1384   1.718   6.294  -0.027  1.0515  1.0005  1.3428
   99ANI     HN 1385   1.555   6.165  -0.130 -0.8942 -1.2786 -2.0052
   99ANI     HN 1386   1.507   6.037  -0.052  2.7536  0.4192  2.0549
  100ANI     CN 1387   2.146   1.028   5.261 -0.1210 -0.0966  0.1840
  100ANI     CH 1388   2.016   0.980   5.239 -0.0878 -0.2080  0.2287
  100ANI     CH 1389   1.946   1.011   5.121 -0.0979 -0.1972  0.2385
  100ANI     CH 1390   2.005   1.103   5.034 -0.0833 -0.0564  0.3969
  100ANI     CH 1391   2.138   1.145   5.049 -0.0147 -0.1909  0.1704
  100ANI     CH 1392   2.208   1.109   5.165 -0.1328  0.0752  0.3236
  100ANI     NH 1393   2.210   0.988   5.371 -0.1237 -0.1523  0.1652
  100ANI     HC 1394   1.981   0.907   5.311  2.2565 -0.6507  0.9505
  100ANI     HC 1395   1.840   0.991   5.127 -0.2661  0.4653 -0.5687
  100ANI     HC 1396   1.945   1.151   4.959  0.7346  1.1069  0.4723
  100ANI     HC 1397   2.185   1.220   4.987  1.4688 -2.9728 -2.1899
  100ANI     HC 1398   2.307   1.150   5.175  0.8494 -1.3559 -2.9446
  100ANI     HN 1399   2.309   0.978   5.356 -0.3047  2.6603 -3.3794
  100ANI     HN 1400   2.167   0.901   5.402 -1.9796  1.3547  1.9843
  101ANI     CN 1401   5.455   0.062   4.918  0.2581  0.4289 -0.2904
  101ANI     CH 1402   5.459  -0.077   4.900 -0.0276  0.4416 -0.4511
  101ANI     CH 1403   5.349  -0.145   4.847  0.1778  0.0815 -0.4155
  101ANI     CH 1404   5.227  -0.085   4.811 -0.0759 -0.1480  0.0595
  101ANI     CH 1405   5.221   0.053   4.839 -0.0645 -0.1244 -0.0576
  101ANI     CH 1406   5.331   0.122   4.891 -0.1192 -0.1660  0.1180
  101ANI     NH 1407   5.558   0.140   4.956  0.5591 -0.2982  0.3935
  101ANI     HC 1408   5.553  -0.128   4.911  0.0509  0.8772  1.0259
  101ANI     HC 1409   5.355  -0.251   4.827 -0.0774 -0.6639  3.1723
  101ANI     HC 1410   5.151  -0.144   4.763 -0.3360  0.3617 -0.1645
  101ANI     HC 1411   5.127   0.105   4.825  0.6583  1.0514 -0.5996
  101ANI     HC 1412   5.318   0.228   4.902 -2.7730 -0.5059  0.6184
  101ANI     HN 1413   5.530   0.229   4.995  0.1425 -0.1415 -0.2579
  101ANI     HN 1414   5.616   0.086   5.019 -1.5727 -0.3635  2.3820
  102ANI     CN 1415   5.994   4.333   4.419  0.1296 -0.3799  0.2777
  102ANI     CH 1416   6.032   4.234   4.328 -0.2445 -0.4680  0.2170
  102ANI     CH 1417   5.999   4.246   4.192  0.0857  0.3637  0.2110
  102ANI     CH 1418   5.930   4.358   4.146 -0.4172 -0.1683 -0.3305
  102ANI     CH 1419   5.886   4.453   4.239  0.5054  0.0010 -0.0618
  102ANI     CH 1420   5.926   4.447   4.373 -0.2962 -0.6881  0.1485
  102ANI     NH 1421   6.015   4.311   4.549 -0.4606 -0.0337  0.4348
  102ANI     HC 1422   6.095   4.149   4.350  0.5624  0.2185  0.5755
  102ANI     HC 1423   6.037   4.173   4.123  4.1631  2.5809 -0.0429
  102ANI     HC 1424   5.913   4.356   4.039 -0.8280 -1.7233 -0.2519
  102ANI     HC 1425   5.829   4.537   4.201  1.3420 -0.5434 -2.6236
  102ANI     HC 1426   5.898   4.531   4.435  1.8522  0.1796 -0.0378
  102ANI     HN 1427   6.007   4.387   4.615 -3.0437 -1.1405  1.4504
  102ANI     HN 1428   6.110   4.278   4.558  0.2422  2.4389  2.7155
  103ANI     CN 1429   6.230   4.965   0.207  0.3957 -0.4271 -0.1636
  103ANI     CH 1430   6.267   5.011   0.334  0.4921 -0.0693 -0.3202
  103ANI     CH 1431   6.174   4.998   0.437  1.0347 -0.6454  0.1022
  103ANI     CH 1432   6.044   4.952   0.414  0.6089  0.6167 -0.0707
  103ANI     CH 1433   6.008   4.909   0.285 -0.0115  0.4876  0.1430
  103ANI     CH 1434   6.101   4.918   0.181 -0.0128  0.5085  0.1430
  103ANI     NH 1435   6.303   5.000   0.100 -0.2226  0.0907 -0.4183
  103ANI     HC 1436   6.365   5.045   0.366  1.3172  0.5536 -3.3640
  103ANI     HC 1437   6.199   5.015   0.541 -0.7770  0.7621  0.3453
  103ANI     HC 1438   5.976   4.933   0.495  0.7530  1.4500  0.2440
  103ANI     HC 1439   5.906   4.879   0.264  0.8098 -0.7323 -2.2783
  103ANI     HC 1440   6.068   4.897   0.080 -1.4147 -2.2846  1.1152
  103ANI     HN 1441   6.321   4.934   0.026  0.5201  0.3747 -0.5042
  103ANI     HN 1442   6.391   5.042   0.129 -0.6666 -0.4946  1.8768
  104ANI     CN 1443   2.958   2.960   2.935 -0.6433  0.1623  0.3306
  104ANI     CH 1444   3.030   3.079   2.921  0.0238 -0.3300 -0.4820
  104ANI     CH 1445   2.979   3.179   2.838  0.0145 -0.3498 -0.5003
  104ANI     CH 1446   2.852   3.167   2.781 -0.0409  0.9199 -0.6652
  104ANI     CH 1447   2.773   3.056   2.812  0.3525  0.8412  0.0494
  104ANI     CH 1448   2.825   2.953   2.892 -0.3282 -0.0456 -0.6375
  104ANI     NH 1449   3.014   2.864   3.010 -0.6554 -0.2153 -0.1430
  104ANI     HC 1450   3.128   3.086   2.966 -0.3803  0.6046  0.2587
  104ANI     HC 1451   3.026   3.276   2.830  1.5379 -1.1166 -1.1927
  104ANI     HC 1452   2.815   3.241   2.711  1.0081  1.9451 -0.1555
  104ANI     HC 1453   2.676   3.041   2.767  1.3048  0.8809 -2.0360
  104ANI     HC 1454   2.761   2.869   2.915 -1.0708  1.1359  1.8996
  104ANI     HN 1455   3.108   2.870   3.046 -1.0712  0.0557  0.8878
  104ANI     HN 1456   2.995   2.777   2.963  2.5775  0.3481 -2.6738
  105ANI     CN 1457   2.890   5.391   2.619  0.4950  0.4722  0.0654
  105ANI     CH 1458   2.827   5.508   2.576  0.0854  0.3419  0.3100
  105ANI     CH 1459   2.888   5.597   2.486  0.4434  0.2441  0.4581
  105ANI     CH 1460   3.006   5.555   2.423  0.1982  0.4758 -0.1585
  105ANI     CH 1461   3.068   5.435   2.460  0.0487  0.3952 -0.1690
  105ANI     CH 1462   3.011   5.354   2.559  0.4665  0.3806  0.0644
  105ANI     NH 1463   2.829   5.316   2.712  0.1754  0.4636 -0.1515
  105ANI     HC 1464   2.728   5.530   2.614  0.2814  1.7680  0.0383
  105ANI     HC 1465   2.837   5.689   2.463 -2.8166 -1.6360 -0.1222
  105ANI     HC 1466   3.056   5.617   2.351 -1.6937  1.7402 -0.4051
  105ANI     HC 1467   3.164   5.411   2.417  0.3694  0.6967  0.3765
  105ANI     HC 1468   3.056   5.260   2.589  3.0740  1.9351  1.1053
  105ANI     HN 1469   2.897   5.270   2.770  0.3756  0.5165 -0.3452
  105ANI     HN 1470   2.767   5.369   2.771 -1.2199 -1.4458  0.1582
  106ANI     CN 1471   5.579   4.796   2.398 -0.0923 -0.1973 -0.4155
  106ANI     CH 1472   5.573   4.935   2.382 -0.1904 -0.1260  0.2213
  106ANI     CH 1473   5.469   5.010   2.437  0.0112  0.0050  0.4260
  106ANI     CH 1474   5.371   4.951   2.517 -0.0264  0.2478  0.5593
  106ANI     CH 1475   5.379   4.813   2.536  0.4314  0.2003  0.0172
  106ANI     CH 1476   5.485   4.738   2.484  0.2529 -0.0746  0.0467
  106ANI     NH 1477   5.655   4.722   2.316 -0.2430 -0.5163 -0.2701
  106ANI     HC 1478   5.634   4.986   2.309 -2.5183  0.0448 -1.6643
  106ANI     HC 1479   5.462   5.116   2.416  1.4148  0.2070  0.9507
  106ANI     HC 1480   5.280   5.005   2.541 -1.6588 -2.6107  1.0603
  106ANI     HC 1481   5.301   4.761   2.591  1.0609  1.3196  2.0122
  106ANI     HC 1482   5.475   4.631   2.492 -0.4996  0.1045  1.6927
  106ANI     HN 1483   5.661   4.737   2.216 -2.8525 -2.2651 -0.7492
  106ANI     HN 1484   5.613   4.630   2.321  0.0422 -0.5606  1.4630
  107ANI     CN 1485   2.203   6.160   1.402 -0.3359 -0.4747 -0.2579
  107ANI     CH 1486   2.089   6.087   1.368 -0.8537  0.2781 -0.1353
  107ANI     CH 1487   2.089   5.947   1.370 -0.2586  0.2897  0.5474
  107ANI     CH 1488   2.209   5.879   1.396  0.0295  0.4214 -0.4433
  107ANI     CH 1489   2.326   5.949   1.428  0.0661  0.0647  0.1874
  107ANI     CH 1490   2.321   6.089   1.428 -0.1958  0.0568  0.5812
  107ANI     NH 1491   2.201   6.293   1.390  0.4336 -0.3854  0.5302
  107ANI     HC 1492   1.997   6.137   1.340  0.1730  1.2180 -1.9167
  107ANI     HC 1493   2.000   5.894   1.343  1.1342 -1.7922 -0.0378
  107ANI     HC 1494   2.214   5.771   1.395 -2.6182  0.2574 -0.5858
  107ANI     HC 1495   2.425   5.910   1.445  0.5413  0.2122 -2.1699
  107ANI     HC 1496   2.411   6.147   1.443 -0.6974  1.2498 -0.8883
  107ANI     HN 1497   2.276   6.325   1.450 -1.2791  2.4713  1.2380
  107ANI     HN 1498   2.115   6.340   1.413  0.1116 -0.4794 -0.4589
  108ANI     CN 1499   1.478   0.717   0.076  0.1542  0.1892  0.3991
  108ANI     CH 1500   1.525   0.732  -0.056 -0.5119 -0.2738  0.1054
  108ANI     CH 1501   1.489   0.846  -0.129 -0.3310 -0.2176  0.1054
  108ANI     CH 1502   1.403   0.938  -0.069 -0.3276 -0.1132 -0.0499
  108ANI     CH 1503   1.364   0.924   0.065 -0.1745 -0.6390 -0.0594
  108ANI     CH 1504   1.399   0.812   0.141 -0.1143 -0.1740  0.6061
  108ANI     NH 1505   1.515   0.604   0.138  0.5337 -0.0307 -0.2225
  108ANI     HC 1506   1.597   0.663  -0.095 -1.4249 -0.3037 -1.5780
  108ANI     HC 1507   1.527   0.865  -0.228  0.2230 -0.0877  0.3359
  108ANI     HC 1508   1.366   1.027  -0.118  1.4602  1.2357  0.9975
  108ANI     HC 1509   1.293   0.991   0.111  0.7275 -0.0313  0.4653
  108ANI     HC 1510   1.367   0.795   0.242  0.3186  3.4994  1.4222
  108ANI     HN 1511   1.509   0.526   0.074  1.8814 -2.0037  1.9475
  108ANI     HN 1512   1.453   0.575   0.212  0.5074 -1.1702 -0.6826
  109ANI     CN 1513   4.844   2.191   4.714 -0.1261  0.1931  0.3936
  109ANI     CH 1514   4.926   2.304   4.719  0.0660  0.0544  0.4010
  109ANI     CH 1515   5.026   2.325   4.623 -0.3779  0.0779 -0.0620
  109ANI     CH 1516   5.039   2.236   4.516 -0.6999 -0.2136  0.1397
  109ANI     CH 1517   4.951   2.127   4.509 -0.1632 -0.6450  0.0942
  109ANI     CH 1518   4.854   2.102   4.606 -0.2200  0.3033  0.2934
  109ANI     NH 1519   4.746   2.168   4.802 -0.5582  0.2309 -0.0731
  109ANI     HC 1520   4.927   2.376   4.800  1.8882  0.8356 -0.2778
  109ANI     HC 1521   5.099   2.404   4.632 -0.1577 -0.1365  0.0498
  109ANI     HC 1522   5.112   2.251   4.438  0.1201  0.4110  1.0107
  109ANI     HC 1523   4.950   2.061   4.424 -2.2289 -0.0708 -0.3458
  109ANI     HC 1524   4.786   2.018   4.595  0.0195  0.1088  0.2942
  109ANI     HN 1525   4.727   2.248   4.861 -0.3014  1.5980 -1.8163
  109ANI     HN 1526   4.746   2.087   4.863 -0.3361  1.1231  1.1284
  110ANI     CN 1527   6.259   6.140   1.333 -0.2722  0.3288  0.0419
  110ANI     CH 1528   6.196   6.222   1.428 -0.2109  0.2705  0.1320
  110ANI     CH 1529   6.061   6.253   1.407 -0.1476  0.6319  0.2455
  110ANI     CH 1530   5.995   6.207   1.292  0.3706  0.3115  0.0744
  110ANI     CH 1531   6.058   6.128   1.196 -0.2313  0.2535 -0.2725
  110ANI     CH 1532   6.192   6.094   1.220 -0.4478 -0.1662  0.3474
  110ANI     NH 1533   6.384   6.098   1.357 -0.2748  0.4922  0.3513
  110ANI     HC 1534   6.250   6.266   1.511  0.2968 -0.7526  0.3494
  110ANI     HC 1535   5.997   6.306   1.476 -0.1090 -0.2061  0.9383
  110ANI     HC 1536   5.897   6.245   1.269  0.2743 -0.6895 -1.1984
  110ANI     HC 1537   6.007   6.091   1.108 -0.0044 -2.1244  0.5575
  110ANI     HC 1538   6.238   6.025   1.151 -0.9924  1.2758 -1.5058
  110ANI     HN 1539   6.427   6.027   1.300  0.1909  1.5890 -0.6969
  110ANI     HN 1540   6.404   6.090   1.456 -1.1377  0.1746  0.5068
  111ANI     CN 1541   1.912   0.678   3.753 -0.7851  0.1561  0.1963
  111ANI     CH 1542   1.997   0.680   3.642 -0.7053 -0.1920  0.2502
  111ANI     CH 1543   2.107   0.593   3.640  0.0033  0.6948  0.3438
  111ANI     CH 1544   2.131   0.511   3.751  0.8635  0.6506  0.1233
  111ANI     CH 1545   2.040   0.507   3.857  0.3904  0.1321 -0.2999
  111ANI     CH 1546   1.932   0.596   3.864 -0.1744 -0.5371 -0.4196
  111ANI     NH 1547   1.797   0.747   3.747 -0.8961 -0.0594 -0.1966
  111ANI     HC 1548   1.979   0.745   3.557 -1.7283 -1.8753 -0.8463
  111ANI     HC 1549   2.173   0.585   3.555  0.1001  0.1675  0.4657
  111ANI     HC 1550   2.201   0.429   3.758  0.0116 -0.2502 -1.4646
  111ANI     HC 1551   2.039   0.424   3.926 -1.5423  0.6897  0.3659
  111ANI     HC 1552   1.853   0.594   3.937  0.7404 -0.6607  0.5901
  111ANI     HN 1553   1.803   0.811   3.825 -0.0940  1.7390 -1.6920
  111ANI     HN 1554   1.796   0.800   3.661  0.2003  0.1831 -0.0690
  112ANI     CN 1555   2.975   6.266   5.936 -0.3729 -0.0145 -0.2959
  112ANI     CH 1556   3.012   6.384   5.871  0.1655 -0.0642 -0.0824
  112ANI     CH 1557   3.002   6.504   5.944 -0.1584 -0.0736 -0.1117
  112ANI     CH 1558   2.943   6.504   6.071  0.1840 -0.3901  0.0495
  112ANI     CH 1559   2.900   6.383   6.127 -1.0443  0.0945  0.1711
  112ANI     CH 1560   2.921   6.260   6.065  0.7815  0.3751  0.2092
  112ANI     NH 1561   2.996   6.152   5.868  0.2217  0.0740 -0.2650
  112ANI     HC 1562   3.055   6.385   5.772  2.7438  1.3757  1.0043
  112ANI     HC 1563   3.034   6.592   5.890  0.0272  0.0762  0.2424
  112ANI     HC 1564   2.935   6.595   6.129  1.1849 -0.5105  0.3713
  112ANI     HC 1565   2.857   6.382   6.226 -1.1699 -1.5201  0.1052
  112ANI     HC 1566   2.893   6.164   6.106 -0.0600  1.8789  3.3118
  112ANI     HN 1567   2.975   6.168   5.771  1.7061 -0.3436 -0.6657
  112ANI     HN 1568   2.935   6.079   5.902  0.6994  0.7809  2.2842
  113ANI     CN 1569   0.191   5.446   4.391 -0.4110  0.2929  0.4974
  113ANI     CH 1570   0.070   5.494   4.340 -0.1192  0.3299 -0.1759
  113ANI     CH 1571   0.068   5.620   4.280 -0.9918  0.4729  0.1403
  113ANI     CH 1572   0.186   5.693   4.262 -0.4859 -0.3512  0.1051
  113ANI     CH 1573   0.307   5.639   4.309 -0.1548  0.1003 -0.2321
  113ANI     CH 1574   0.312   5.514   4.372 -0.4250  0.1544 -0.1064
  113ANI     NH 1575   0.189   5.330   4.458  0.2868  0.1405  0.2651
  113ANI     HC 1576  -0.027   5.449   4.357  1.4680 -1.6727  4.6536
  113ANI     HC 1577  -0.020   5.672   4.247  0.7685  4.4698  1.4474
  113ANI     HC 1578   0.181   5.790   4.215 -0.5904 -0.5615 -0.3121
  113ANI     HC 1579   0.401   5.694   4.307  0.5775 -1.1522 -1.3404
  113ANI     HC 1580   0.397   5.465   4.417 -2.0345 -0.2576  2.5983
  113ANI     HN 1581   0.278   5.283   4.450  0.8617  1.3205 -0.3460
  113ANI     HN 1582   0.123   5.257   4.435  0.7419 -1.4401  3.6433
  114ANI     CN 1583   3.285   3.003   1.776  0.2007  0.0264 -0.0526
  114ANI     CH 1584   3.273   3.024   1.914 -0.3672  0.4198 -0.1596
  114ANI     CH 1585   3.239   3.151   1.960 -0.0853  0.4834 -0.1289
  114ANI     CH 1586   3.200   3.251   1.871  0.1018  0.5591 -0.1278
  114ANI     CH 1587   3.198   3.227   1.733  0.0539 -0.5362  0.0587
  114ANI     CH 1588   3.237   3.100   1.688  0.5467 -0.1981 -0.4908
  114ANI     NH 1589   3.342   2.893   1.724  0.2414 -0.0244  0.0978
  114ANI     HC 1590   3.301   2.949   1.987  0.4674  0.2895 -0.6113
  114ANI     HC 1591   3.241   3.167   2.067  0.9405 -1.1991  0.1139
  114ANI     HC 1592   3.169   3.352   1.896  2.0887  0.6411  2.1816
  114ANI     HC 1593   3.162   3.296   1.658  1.0535 -1.6265 -1.4496
  114ANI     HC 1594   3.231   3.085   1.581  1.2398 -0.8647 -0.4377
  114ANI     HN 1595   3.288   2.855   1.648 -2.2298  0.0614  1.7246
  114ANI     HN 1596   3.351   2.821   1.794 -0.9932 -1.1841 -0.9133
  115ANI     CN 1597   4.971   4.590   2.832  0.5795 -0.0790 -0.8351
  115ANI     CH 1598   4.894   4.595   2.715 -0.3310 -0.3712 -0.2590
  115ANI     CH 1599   4.903   4.712   2.637  0.5726 -0.2842 -0.0334
  115ANI     CH 1600   4.979   4.823   2.677  0.4761 -0.3622  0.3775
  115ANI     CH 1601   5.052   4.814   2.796  0.0806 -0.5129  0.6083
  115ANI     CH 1602   5.050   4.698   2.874  0.5865 -0.5998  0.4928
  115ANI     NH 1603   4.978   4.475   2.900 -0.5475  0.5333  0.3291
  115ANI     HC 1604   4.844   4.506   2.681 -1.9959  1.3131 -2.3715
  115ANI     HC 1605   4.864   4.708   2.537  2.3285 -0.0158 -0.7423
  115ANI     HC 1606   4.979   4.914   2.619  1.7185  0.0268  0.9785
  115ANI     HC 1607   5.102   4.904   2.828 -1.1771  0.9331 -1.3976
  115ANI     HC 1608   5.108   4.692   2.965  1.2459  1.7393  0.2581
  115ANI     HN 1609   4.897   4.415   2.901  1.1279 -1.8591  2.8739
  115ANI     HN 1610   5.027   4.484   2.988 -0.6945 -0.6187  0.5361
  116ANI     CN 1611   1.108   5.645   4.143 -0.2933  0.1387  0.0752
  116ANI     CH 1612   1.040   5.533   4.192 -0.0142 -0.2292 -0.3734
  116ANI     CH 1613   0.974   5.532   4.316 -0.3699  0.5501 -0.5523
  116ANI     CH 1614   0.971   5.647   4.396 -0.6888  0.1150  0.0620
  116ANI     CH 1615   1.033   5.761   4.346 -0.1082 -0.3188 -0.2155
  116ANI     CH 1616   1.102   5.759   4.224  0.2106  0.2528 -0.0494
  116ANI     NH 1617   1.167   5.646   4.023 -0.0144  0.2628  0.2158
  116ANI     HC 1618   1.024   5.448   4.128  2.8277  0.2554 -1.7877
  116ANI     HC 1619   0.935   5.445   4.368 -1.4787  1.3322 -0.0624
  116ANI     HC 1620   0.916   5.649   4.489  0.6736 -1.2656  0.9262
  116ANI     HC 1621   1.019   5.850   4.405  0.6008 -1.6113  1.9550
  116ANI     HC 1622   1.129   5.858   4.189 -0.9030  0.0243 -1.6050
  116ANI     HN 1623   1.265   5.672   4.031 -0.0467  0.1924  0.8472
  116ANI     HN 1624   1.166   5.558   3.974 -1.0845  0.9054 -0.9208
  117ANI     CN 1625   0.645   4.127   3.856 -0.4356  0.0266 -0.3821
  117ANI     CH 1626   0.624   4.131   3.995  0.1676 -0.0467 -0.2877
  117ANI     CH 1627   0.729   4.126   4.087 -0.3166  0.0954  0.2773
  117ANI     CH 1628   0.858   4.104   4.036 -0.5794 -0.6202 -0.0814
  117ANI     CH 1629   0.887   4.101   3.899 -0.2597  0.4553 -0.0371
  117ANI     CH 1630   0.777   4.106   3.814 -0.3513 -0.2984  0.0308
  117ANI     NH 1631   0.538   4.146   3.778 -0.0090  0.3495 -0.8828
  117ANI     HC 1632   0.525   4.154   4.030 -0.4661 -0.5316 -1.7070
  117ANI     HC 1633   0.709   4.148   4.190  0.1330  0.0577  0.3765
  117ANI     HC 1634   0.943   4.103   4.103 -1.8150 -0.9695  1.5388
  117ANI     HC 1635   0.987   4.088   3.861 -1.1318  1.4751 -2.7923
  117ANI     HC 1636   0.791   4.094   3.707  0.7340  1.2717 -0.0176
  117ANI     HN 1637   0.572   4.165   3.684  1.8129  2.1980  0.0943
  117ANI     HN 1638   0.471   4.218   3.802 -1.1652 -0.5199 -1.5068
  118ANI     CN 1639   4.992   4.738   3.703 -0.2665  0.1237 -0.4124
  118ANI     CH 1640   4.923   4.808   3.603 -0.4140  0.3109 -0.1806
  118ANI     CH 1641   4.834   4.744   3.516  0.3746 -0.1761 -0.6423
  118ANI     CH 1642   4.797   4.612   3.545  0.0306 -0.0110 -0.3138
  118ANI     CH 1643   4.859   4.539   3.646  0.7686  0.2887 -0.5511
  118ANI     CH 1644   4.959   4.603   3.720  0.0428  0.1672  0.5376
  118ANI     NH 1645   5.072   4.807   3.785 -0.6940  0.3227 -0.1564
  118ANI     HC 1646   4.956   4.908   3.578 -3.4742  2.0376  2.3938
  118ANI     HC 1647   4.770   4.791   3.443  0.7279  0.6269 -0.4463
  118ANI     HC 1648   4.726   4.570   3.475  0.6533  1.1582 -1.6720
  118ANI     HC 1649   4.838   4.433   3.650  1.0614  0.3096  2.6115
  118ANI     HC 1650   5.003   4.539   3.795  1.0344  1.2669  0.9045
  118ANI     HN 1651   5.125   4.885   3.748 -1.6758 -0.0519 -2.4205
  118ANI     HN 1652   5.141   4.762   3.844 -1.3922 -0.9897 -0.3342
  119ANI     CN 1653   0.339   6.135   4.133 -0.1142  0.0816 -0.3495
  119ANI     CH 1654   0.334   5.995   4.127 -1.0137  0.0919  0.0719
  119ANI     CH 1655   0.295   5.932   4.008  0.1216 -0.2793 -0.1070
  119ANI     CH 1656   0.259   6.011   3.899  0.7015  0.1914  0.0469
  119ANI     CH 1657   0.263   6.151   3.905 -0.3851  0.2188  0.1706
  119ANI     CH 1658   0.306   6.214   4.022 -1.0518  0.5310  0.2474
  119ANI     NH 1659   0.373   6.193   4.249  0.3319 -0.3309 -0.2738
  119ANI     HC 1660   0.358   5.938   4.215 -1.2417 -3.5379 -2.1023
  119ANI     HC 1661   0.273   5.826   4.006 -1.4504 -0.0560  2.7247
  119ANI     HC 1662   0.215   5.951   3.821  0.5725 -0.3312  0.5225
  119ANI     HC 1663   0.238   6.210   3.818  1.1198  1.5582  0.6109
  119ANI     HC 1664   0.306   6.322   4.032 -0.8784  0.6166 -0.6499
  119ANI     HN 1665   0.413   6.283   4.231 -1.0495  0.1978 -0.7514
  119ANI     HN 1666   0.430   6.136   4.309  0.8993 -2.0480 -2.3528
  120ANI     CN 1667   0.772   0.917   1.054  0.1519 -0.1497 -0.1046
  120ANI     CH 1668   0.676   0.864   1.141 -0.2606  0.6625 -0.0655
  120ANI     CH 1669   0.539   0.866   1.110 -0.4233  0.2617  0.6294
  120ANI     CH 1670   0.500   0.922   0.988 -0.0050 -0.3902  0.1918
  120ANI     CH 1671   0.597   0.976   0.903 -0.0805 -0.0810  0.3005
  120ANI     CH 1672   0.733   0.984   0.938  0.0130 -0.1299 -0.0454
  120ANI     NH 1673   0.903   0.908   1.083  0.2486  0.5701 -0.3180
  120ANI     HC 1674   0.700   0.804   1.227  0.3322 -0.0557 -0.7297
  120ANI     HC 1675   0.469   0.804   1.164  0.2356 -1.7590 -0.7561
  120ANI     HC 1676   0.400   0.917   0.950  0.4186  1.8116 -1.2592
  120ANI     HC 1677   0.572   1.002   0.801  1.0848 -0.1237 -0.0047
  120ANI     HC 1678   0.807   1.021   0.869  1.0199  0.7960  1.5000
  120ANI     HN 1679   0.952   0.915   0.995 -0.6277 -1.2783 -0.9831
  120ANI     HN 1680   0.925   0.814   1.112  1.5626  1.0983  0.4618
  121ANI     CN 1681   5.905   3.110   5.846 -0.6187  0.3339  0.0191
  121ANI     CH 1682   5.820   2.998   5.839 -0.2566  0.0576  0.0667
  121ANI     CH 1683   5.687   3.016   5.800 -0.3690 -0.3402  0.2658
  121ANI     CH 1684   5.637   3.142   5.765 -0.4109 -0.4946 -0.2286
  121ANI     CH 1685   5.726   3.250   5.762 -0.6272 -0.3140 -0.2278
  121ANI     CH 1686   5.858   3.236   5.806 -0.6075  0.3052 -0.0848
  121ANI     NH 1687   6.032   3.090   5.884 -0.4363 -0.1658 -0.8390
  121ANI     HC 1688   5.858   2.900   5.866  0.3181 -0.0128 -0.9480
  121ANI     HC 1689   5.632   2.925   5.780 -1.0201  1.1910 -5.6928
  121ANI     HC 1690   5.536   3.151   5.727  0.1649 -1.8064 -2.1311
  121ANI     HC 1691   5.693   3.346   5.727  2.3976  0.6297 -0.6665
  121ANI     HC 1692   5.929   3.316   5.794 -1.1859  0.9957  1.0716
  121ANI     HN 1693   6.068   2.997   5.866  1.4848  0.6812 -1.4588
  121ANI     HN 1694   6.081   3.153   5.823 -1.3361  2.0401  0.6535
  122ANI     CN 1695   4.809   4.491   5.028  0.0392  0.7030 -0.5182
  122ANI     CH 1696   4.717   4.583   5.079 -0.1344  0.0047  0.4331
  122ANI     CH 1697   4.762   4.704   5.132  0.1369  0.2362 -0.3315
  122ANI     CH 1698   4.900   4.730   5.129  0.1787  0.0123 -0.2881
  122ANI     CH 1699   4.995   4.639   5.080  0.0347 -0.0445 -0.4665
  122ANI     CH 1700   4.947   4.518   5.030  0.2120 -0.1878 -0.2970
  122ANI     NH 1701   4.765   4.379   4.971  0.6967  0.5195 -0.6666
  122ANI     HC 1702   4.614   4.550   5.079 -0.0338 -0.3584 -1.4204
  122ANI     HC 1703   4.692   4.774   5.175  0.8048  0.4923  0.3545
  122ANI     HC 1704   4.934   4.822   5.172 -0.3052  0.0367  0.0431
  122ANI     HC 1705   5.099   4.670   5.079 -0.2896  1.1775  1.3512
  122ANI     HC 1706   5.016   4.450   4.982 -0.7280 -2.6409  1.7158
  122ANI     HN 1707   4.670   4.360   4.999  1.9427 -3.1926  1.3518
  122ANI     HN 1708   4.820   4.299   4.999 -1.7375 -1.2442 -0.7898
  123ANI     CN 1709   4.953   1.396   6.205 -0.0861  0.4968 -0.3687
  123ANI     CH 1710   5.028   1.298   6.138 -0.0311  0.0356  0.3637
  123ANI     CH 1711   4.969   1.178   6.096  0.0040 -0.0756  0.6289
  123ANI     CH 1712   4.847   1.137   6.151 -0.3457 -0.1571 -0.1977
  123ANI     CH 1713   4.773   1.232   6.223 -0.0880  0.4015 -0.6679
  123ANI     CH 1714   4.824   1.360   6.247 -0.0383  0.3250 -0.3654
  123ANI     NH 1715   5.003   1.519   6.223  0.4181  0.2865 -0.3340
  123ANI     HC 1716   5.126   1.321   6.100 -1.0364  1.9329 -1.1838
  123ANI     HC 1717   5.028   1.115   6.031  1.0600  2.3896 -0.8551
  123ANI     HC 1718   4.807   1.038   6.133  1.8346 -1.4568  1.8930
  123ANI     HC 1719   4.675   1.209   6.261  0.8362 -0.5083  1.2059
  123ANI     HC 1720   4.763   1.440   6.287 -0.5544  1.5264 -3.3734
  123ANI     HN 1721   5.087   1.545   6.172  0.3742 -2.0745 -1.7379
  123ANI     HN 1722   4.942   1.599   6.219  1.0282  0.9726  3.0921
  124ANI     CN 1723   1.249   5.805   2.481 -0.1091  0.1207 -0.1197
  124ANI     CH 1724   1.321   5.685   2.477 -0.5906 -0.1752  0.0112
  124ANI     CH 1725   1.460   5.695   2.488 -0.5830  0.4034 -0.6024
  124ANI     CH 1726   1.525   5.815   2.518 -0.5091  0.2836 -0.2812
  124ANI     CH 1727   1.450   5.933   2.522 -0.3667  0.3361  0.8328
  124ANI     CH 1728   1.312   5.929   2.499 -0.1961  0.1692 -0.1517
  124ANI     NH 1729   1.116   5.795   2.467 -0.1606 -0.2713  0.5935
  124ANI     HC 1730   1.279   5.587   2.463  0.8976 -0.5242 -2.2960
  124ANI     HC 1731   1.510   5.599   2.493 -1.2559  0.0582 -0.5284
  124ANI     HC 1732   1.627   5.815   2.553 -0.5712 -0.6047 -0.0900
  124ANI     HC 1733   1.497   6.029   2.530 -3.5216  2.2455 -2.2243
  124ANI     HC 1734   1.258   6.022   2.497 -0.7464 -0.1530 -0.7104
  124ANI     HN 1735   1.060   5.870   2.504  0.7960  0.7480  0.0078
  124ANI     HN 1736   1.087   5.705   2.504  2.8322 -0.7802  1.8303
  125ANI     CN 1737   6.013   1.202   1.203  0.0909 -0.2944 -0.0405
  125ANI     CH 1738   5.959   1.073   1.194 -0.4506 -0.0315 -0.6153
  125ANI     CH 1739   5.825   1.053   1.228 -0.2922  0.1848  0.1584
  125ANI     CH 1740   5.743   1.163   1.258 -0.4110  0.0476  0.3378
  125ANI     CH 1741   5.789   1.295   1.249  0.4141 -0.2745 -0.2548
  125ANI     CH 1742   5.926   1.309   1.226  0.3850 -0.0085 -0.2636
  125ANI     NH 1743   6.139   1.228   1.165  0.1319 -0.6228 -0.1338
  125ANI     HC 1744   6.017   0.994   1.149  0.8549  0.5443  0.0055
  125ANI     HC 1745   5.792   0.951   1.238 -0.2133  0.2126  0.6943
  125ANI     HC 1746   5.639   1.150   1.284 -0.6173  0.2514 -0.3800
  125ANI     HC 1747   5.716   1.368   1.282 -0.5205  0.0603 -2.9584
  125ANI     HC 1748   5.968   1.409   1.230 -0.4530  0.3475 -0.3199
  125ANI     HN 1749   6.132   1.261   1.069 -0.1783  0.2461  0.1792
  125ANI     HN 1750   6.174   1.135   1.148 -0.5593 -0.7813 -0.7356
  126ANI     CN 1751   4.517   2.513   0.087  0.1181  0.0139  0.4436
  126ANI     CH 1752   4.575   2.579   0.197 -0.0030  0.7235  0.0873
  126ANI     CH 1753   4.580   2.506   0.316 -0.5440  0.4265 -0.0689
  126ANI     CH 1754   4.532   2.375   0.329  0.1530  0.1389 -0.4083
  126ANI     CH 1755   4.476   2.310   0.218 -0.4818  0.1407 -0.0884
  126ANI     CH 1756   4.474   2.381   0.098  0.2005 -0.0659 -0.2240
  126ANI     NH 1757   4.500   2.580  -0.028  0.0976 -0.5040  0.1470
  126ANI     HC 1758   4.618   2.678   0.194  2.0091 -0.1714 -2.3652
  126ANI     HC 1759   4.632   2.547   0.401  0.9711  0.2590 -0.9073
  126ANI     HC 1760   4.537   2.323   0.423 -1.6300 -1.2795 -1.0765
  126ANI     HC 1761   4.441   2.208   0.228  0.4832 -0.1924  0.0200
  126ANI     HC 1762   4.439   2.335   0.006 -0.1742  0.6955 -0.4585
  126ANI     HN 1763   4.514   2.680  -0.025 -0.1736 -0.4352 -0.7545
  126ANI     HN 1764   4.408   2.554  -0.061 -1.9691 -0.3917  5.2581
  127ANI     CN 1765   3.846   2.801   1.116  0.3478  0.1327 -0.2528
  127ANI     CH 1766   3.907   2.850   1.233  0.0572 -0.0713 -0.0155
  127ANI     CH 1767   3.934   2.987   1.235 -0.0216 -0.0616  0.4885
  127ANI     CH 1768   3.905   3.073   1.128 -0.4720 -0.2242  0.4795
  127ANI     CH 1769   3.848   3.022   1.011  0.8991 -0.1616 -0.2201
  127ANI     CH 1770   3.815   2.886   1.010  0.2140  0.0011 -0.3193
  127ANI     NH 1771   3.825   2.668   1.114  0.0994  0.1565  0.5238
  127ANI     HC 1772   3.926   2.787   1.318 -0.3283  0.2018  0.2748
  127ANI     HC 1773   3.968   3.036   1.325  0.0371 -2.4948  1.8195
  127ANI     HC 1774   3.909   3.181   1.135 -0.7367 -0.1143 -0.9357
  127ANI     HC 1775   3.830   3.089   0.927  1.3878  0.8365  0.4630
  127ANI     HC 1776   3.780   2.852   0.913  0.4373  0.3470 -0.5224
  127ANI     HN 1777   3.811   2.612   1.031  0.9234 -0.0243  0.5095
  127ANI     HN 1778   3.901   2.624   1.163 -0.9011  0.7150  2.6305
  128ANI     CN 1779   5.267   4.184   4.951  0.3541  0.1017  0.2368
  128ANI     CH 1780   5.146   4.221   4.891  0.1570 -0.5146  0.2430
  128ANI     CH 1781   5.153   4.275   4.762  0.1066 -0.1572  0.3874
  128ANI     CH 1782   5.272   4.292   4.689  0.0154 -0.1125  0.2490
  128ANI     CH 1783   5.391   4.257   4.754  0.2624 -0.3307 -0.3213
  128ANI     CH 1784   5.388   4.210   4.886  0.1309  0.3124 -0.0932
  128ANI     NH 1785   5.269   4.113   5.065 -0.3119 -0.1297  0.1107
  128ANI     HC 1786   5.051   4.211   4.941  0.0844  3.9487  1.2320
  128ANI     HC 1787   5.062   4.301   4.710 -0.8396 -1.2175  1.5042
  128ANI     HC 1788   5.267   4.319   4.584 -3.6934  0.2418  0.4381
  128ANI     HC 1789   5.481   4.270   4.697  0.1055 -0.6731 -0.6537
  128ANI     HC 1790   5.479   4.195   4.942  0.8536  1.6566 -0.8852
  128ANI     HN 1791   5.334   4.036   5.072 -0.7507 -0.4257  1.0289
  128ANI     HN 1792   5.176   4.080   5.087 -1.4724  2.4967 -0.5917
  129ANI     CN 1793   4.088   4.307   4.632  0.4846 -0.4068 -0.3826
  129ANI     CH 1794   4.180   4.259   4.726 -0.1455 -0.1769  0.3550
  129ANI     CH 1795   4.318   4.282   4.713 -0.1920  0.0721  0.2952
  129ANI     CH 1796   4.364   4.353   4.602 -0.2475  0.0350  0.2479
  129ANI     CH 1797   4.274   4.410   4.511 -0.0558 -0.2265 -0.1095
  129ANI     CH 1798   4.137   4.394   4.534 -0.1166  0.0138 -0.3079
  129ANI     NH 1799   3.958   4.281   4.650  0.5815 -0.6979 -0.0981
  129ANI     HC 1800   4.143   4.208   4.814  2.1024 -0.2659  1.2931
  129ANI     HC 1801   4.385   4.240   4.787  1.4201 -1.8976 -2.2146
  129ANI     HC 1802   4.470   4.372   4.594 -0.2185 -0.0997  0.3407
  129ANI     HC 1803   4.315   4.463   4.426 -0.2593 -1.2227 -0.8342
  129ANI     HC 1804   4.061   4.423   4.463  0.2228  0.9334 -0.3010
  129ANI     HN 1805   3.905   4.263   4.566 -3.0888 -0.1345  1.9845
  129ANI     HN 1806   3.929   4.203   4.707  0.9359 -0.9864 -0.3109
  130ANI     CN 1807   2.667   4.438   0.602 -0.1553 -0.0556 -0.1096
  130ANI     CH 1808   2.705   4.518   0.494 -0.4921  0.2952  0.0309
  130ANI     CH 1809   2.842   4.521   0.465 -0.3400 -0.5235  0.6614
  130ANI     CH 1810   2.937   4.458   0.547 -0.1541 -0.5286  0.4437
  130ANI     CH 1811   2.894   4.381   0.656 -0.5529 -0.1299  0.5730
  130ANI     CH 1812   2.758   4.377   0.689 -0.6271 -0.2449  0.2553
  130ANI     NH 1813   2.534   4.426   0.621 -0.0641 -0.0598  0.5255
  130ANI     HC 1814   2.627   4.566   0.437  0.7532 -0.2900 -2.2376
  130ANI     HC 1815   2.876   4.582   0.383  1.1978 -2.1760  0.0193
  130ANI     HC 1816   3.043   4.466   0.528 -0.5928  0.1250 -1.7737
  130ANI     HC 1817   2.970   4.321   0.704  1.0892  2.1033  0.8440
  130ANI     HC 1818   2.726   4.320   0.775 -2.1916  1.1545  0.6263
  130ANI     HN 1819   2.524   4.395   0.716 -0.5519 -1.8321 -0.0893
  130ANI     HN 1820   2.489   4.514   0.600  1.3086  0.5930  0.2340
  131ANI     CN 1821   3.091   0.846   3.225 -0.0949 -0.3767 -0.1662
  131ANI     CH 1822   3.035   0.897   3.107 -0.2300  0.0045  0.0615
  131ANI     CH 1823   2.908   0.854   3.068  0.2215 -1.0196 -0.3092
  131ANI     CH 1824   2.827   0.779   3.154  0.1897 -0.6182  0.0096
  131ANI     CH 1825   2.881   0.745   3.279  0.2060 -0.7686 -0.0392
  131ANI     CH 1826   3.011   0.779   3.318 -0.0968  0.1281  0.1977
  131ANI     NH 1827   3.215   0.875   3.267 -0.1295 -0.2534 -0.1480
  131ANI     HC 1828   3.088   0.975   3.054 -1.4805 -0.0734 -1.3355
  131ANI     HC 1829   2.859   0.895   2.980  0.6475 -1.0771 -0.5738
  131ANI     HC 1830   2.726   0.755   3.124 -0.4796  1.0085  0.8892
  131ANI     HC 1831   2.821   0.685   3.345  0.9869 -1.7077 -0.1732
  131ANI     HC 1832   3.036   0.750   3.419 -0.4886  0.7124  0.4696
  131ANI     HN 1833   3.263   0.927   3.195 -3.5507  0.2918 -2.1033
  131ANI     HN 1834   3.268   0.789   3.274  0.1677 -0.2579 -2.1315
  132ANI     CN 1835   4.401   3.411   6.179  0.1517  0.0193 -0.1576
  132ANI     CH 1836   4.304   3.405   6.279  0.2858  0.6480  0.0089
  132ANI     CH 1837   4.210   3.301   6.281  0.1823  0.7405 -0.1143
  132ANI     CH 1838   4.218   3.203   6.182 -0.1898  0.7876 -0.1925
  132ANI     CH 1839   4.315   3.208   6.081  0.0547  0.7383  0.0388
  132ANI     CH 1840   4.408   3.313   6.079  0.5053  0.3293 -0.4387
  132ANI     NH 1841   4.484   3.516   6.176  0.1092  0.0521 -0.2156
  132ANI     HC 1842   4.301   3.492   6.344  0.5563  1.8050 -1.5053
  132ANI     HC 1843   4.132   3.291   6.355  0.5504  1.9022  0.4489
  132ANI     HC 1844   4.146   3.122   6.177  0.2846  0.2171  1.8487
  132ANI     HC 1845   4.321   3.124   6.014  0.0916  0.6526  0.1495
  132ANI     HC 1846   4.481   3.303   6.000  0.7048 -2.3252  0.0154
  132ANI     HN 1847   4.567   3.511   6.118  0.7742  0.1639  0.7063
  132ANI     HN 1848   4.495   3.578   6.254  0.8693 -0.4461  0.0780
  133ANI     CN 1849   0.509   1.831   3.520  0.2835  0.3585 -0.1541
  133ANI     CH 1850   0.594   1.744   3.452  0.1082  0.1112 -0.0561
  133ANI     CH 1851   0.725   1.730   3.500  0.1652 -0.3562 -0.3438
  133ANI     CH 1852   0.767   1.793   3.617 -0.2916  0.0035 -0.3720
  133ANI     CH 1853   0.678   1.874   3.689 -0.1744 -0.4130  0.2501
  133ANI     CH 1854   0.549   1.894   3.638  0.2098  0.7043 -0.3112
  133ANI     NH 1855   0.389   1.859   3.466  0.0709 -0.0257  0.1170
  133ANI     HC 1856   0.567   1.686   3.364  2.0399 -0.9286 -0.0028
  133ANI     HC 1857   0.799   1.670   3.449 -0.1628 -3.7432  2.9989
  133ANI     HC 1858   0.867   1.775   3.653  0.3015  1.0412 -1.4549
  133ANI     HC 1859   0.709   1.935   3.773  0.2769  0.1510 -0.3159
  133ANI     HC 1860   0.485   1.968   3.684 -2.2480 -2.4134  1.4261
  133ANI     HN 1861   0.336   1.935   3.507  0.0319  0.1826 -0.3166
  133ANI     HN 1862   0.393   1.880   3.367 -0.0944  0.7577  0.2737
  134ANI     CN 1863   6.125   5.582   3.938  0.6500 -0.1395  0.3619
  134ANI     CH 1864   6.197   5.521   3.834  0.2383  0.0983 -0.0657
  134ANI     CH 1865   6.318   5.578   3.793  0.4064 -0.1167  0.1310
  134ANI     CH 1866   6.363   5.698   3.848 -0.3181  0.4987 -0.5991
  134ANI     CH 1867   6.278   5.769   3.934 -0.1474 -0.1320  0.1023
  134ANI     CH 1868   6.159   5.712   3.980 -0.2329  0.1385  0.2180
  134ANI     NH 1869   6.007   5.533   3.977  0.4008  0.2202  0.0712
  134ANI     HC 1870   6.161   5.435   3.780 -0.3997 -1.2483  2.4120
  134ANI     HC 1871   6.372   5.532   3.711  2.2479 -3.2053  2.9157
  134ANI     HC 1872   6.460   5.738   3.825  0.1730 -1.1523 -1.4755
  134ANI     HC 1873   6.307   5.867   3.968  1.7586 -0.9933  1.0332
  134ANI     HC 1874   6.091   5.772   4.039  0.8270  1.1643  0.4028
  134ANI     HN 1875   5.999   5.433   3.965  0.8743 -0.0882  2.1711
  134ANI     HN 1876   5.976   5.548   4.071  0.3794  1.9850 -0.2016
  135ANI     CN 1877   5.142   6.217   2.961  0.2362  0.1343  0.2863
  135ANI     CH 1878   5.005   6.226   2.985  0.0773 -0.5354 -0.3632
  135ANI     CH 1879   4.939   6.117   3.043 -0.3727 -0.1405 -0.1212
  135ANI     CH 1880   5.017   6.005   3.074 -0.1689  0.0090 -0.0951
  135ANI     CH 1881   5.157   6.000   3.068 -0.1916 -0.5234 -0.1541
  135ANI     CH 1882   5.218   6.108   3.005 -0.3416 -0.4764 -0.2191
  135ANI     NH 1883   5.196   6.323   2.898 -0.4229  0.2988 -0.0016
  135ANI     HC 1884   4.951   6.318   2.968 -1.2572 -1.3778 -0.7870
  135ANI     HC 1885   4.832   6.116   3.053 -0.4072 -1.3523 -0.5736
  135ANI     HC 1886   4.962   5.926   3.124  1.0374 -0.5294  0.4057
  135ANI     HC 1887   5.203   5.906   3.096  2.2846  0.3529 -1.1178
  135ANI     HC 1888   5.326   6.113   3.007 -0.2217 -2.2365 -1.2517
  135ANI     HN 1889   5.142   6.326   2.813 -2.7055  3.3905  1.4509
  135ANI     HN 1890   5.292   6.301   2.878 -0.2156  2.0595 -1.0440
  136ANI     CN 1891   2.682   0.336   3.413  0.0852  0.0773  0.0668
  136ANI     CH 1892   2.648   0.235   3.503  0.1894  0.0407  0.0657
  136ANI     CH 1893   2.559   0.132   3.469  0.1806  0.1452 -0.2250
  136ANI     CH 1894   2.516   0.127   3.335  0.9527 -0.2298 -0.4644
  136ANI     CH 1895   2.559   0.219   3.239  0.0916  0.0165 -0.6118
  136ANI     CH 1896   2.641   0.324   3.279  0.1959 -0.3238  0.0661
  136ANI     NH 1897   2.757   0.443   3.444 -0.4124  0.3022  0.4806
  136ANI     HC 1898   2.677   0.240   3.607 -0.6585 -0.4229  0.3357
  136ANI     HC 1899   2.524   0.060   3.541  0.8470 -1.3102 -1.3229
  136ANI     HC 1900   2.435   0.061   3.309  1.8780 -2.1854  1.4225
  136ANI     HC 1901   2.507   0.209   3.144 -2.5226 -0.9279  0.8729
  136ANI     HC 1902   2.657   0.402   3.205  1.0209 -0.4854  0.0745
  136ANI     HN 1903   2.774   0.458   3.543  2.4056 -0.8603  0.2270
  136ANI     HN 1904   2.705   0.527   3.423  1.0647  0.6348 -1.9384
  137ANI     CN 1905   2.898   1.293   4.716  0.2434 -0.2393 -0.4431
  137ANI     CH 1906   3.027   1.275   4.767  0.2492  0.4295 -0.2113
  137ANI     CH 1907   3.143   1.331   4.713  0.8412 -0.7933 -0.2408
  137ANI     CH 1908   3.126   1.412   4.599 -0.2427 -0.0857  0.4060
  137ANI     CH 1909   2.997   1.436   4.552 -0.0278 -0.2658 -0.2807
  137ANI     CH 1910   2.881   1.386   4.612 -0.0867  0.0080 -0.1665
  137ANI     NH 1911   2.792   1.226   4.762  0.0236  0.0417 -0.5375
  137ANI     HC 1912   3.033   1.208   4.852  0.3272 -0.4210 -0.8743
  137ANI     HC 1913   3.246   1.319   4.743  0.7753 -3.0767 -0.8262
  137ANI     HC 1914   3.213   1.454   4.551  0.2554 -0.4666  0.9611
  137ANI     HC 1915   2.994   1.505   4.470  0.0037  0.3744  0.2523
  137ANI     HC 1916   2.786   1.409   4.565 -0.2898 -0.5297 -0.0234
  137ANI     HN 1917   2.702   1.267   4.741 -1.3247 -2.8326 -0.6445
  137ANI     HN 1918   2.796   1.227   4.863 -1.9807 -0.5894 -0.4207
  138ANI     CN 1919   1.118   4.671   0.775 -0.1759  0.1444 -0.2594
  138ANI     CH 1920   1.047   4.780   0.827 -0.7893 -0.0332 -0.7264
  138ANI     CH 1921   0.907   4.770   0.831 -0.7716 -0.0525 -0.2076
  138ANI     CH 1922   0.839   4.653   0.796 -0.4406 -0.4337  0.4004
  138ANI     CH 1923   0.912   4.545   0.746 -0.2360 -0.0937 -0.0379
  138ANI     CH 1924   1.050   4.557   0.731 -0.2824  0.2022 -0.2450
  138ANI     NH 1925   1.252   4.671   0.767 -0.1546  0.3160  0.0942
  138ANI     HC 1926   1.093   4.874   0.855  0.8537 -0.4234 -2.0116
  138ANI     HC 1927   0.855   4.860   0.862  0.5157  1.0116 -1.0637
  138ANI     HC 1928   0.731   4.647   0.806 -0.3687  0.3149  1.7975
  138ANI     HC 1929   0.860   4.451   0.733 -2.4381  1.2893 -1.5576
  138ANI     HC 1930   1.098   4.480   0.672 -0.5480 -0.1595  0.0078
  138ANI     HN 1931   1.276   4.587   0.716  0.5360  0.6241 -0.0961
  138ANI     HN 1932   1.279   4.658   0.864 -2.9072  0.5300  0.9288
  139ANI     CN 1933   4.037   0.344   4.968  0.5646 -0.1142 -0.1158
  139ANI     CH 1934   4.082   0.245   4.879  0.1435 -0.2136 -0.2179
  139ANI     CH 1935   4.193   0.167   4.911  0.3385 -0.0630 -0.5244
  139ANI     CH 1936   4.255   0.182   5.036  0.5766  0.2557 -0.6801
  139ANI     CH 1937   4.211   0.280   5.126 -0.4997 -0.3477 -0.5499
  139ANI     CH 1938   4.106   0.366   5.088 -0.3412  0.2488  0.3434
  139ANI     NH 1939   3.929   0.414   4.932  0.2935 -0.3034  0.3289
  139ANI     HC 1940   4.039   0.236   4.780  2.3219  0.7577 -1.2952
  139ANI     HC 1941   4.225   0.091   4.842 -0.8808  0.2620 -1.4542
  139ANI     HC 1942   4.350   0.134   5.057  0.4853  0.1606 -0.4850
  139ANI     HC 1943   4.258   0.302   5.220 -0.6756  3.2513 -1.2137
  139ANI     HC 1944   4.075   0.446   5.152  1.4334  1.2624 -0.0159
  139ANI     HN 1945   3.877   0.467   5.000 -1.8659 -1.2655 -0.5214
  139ANI     HN 1946   3.871   0.384   4.855  0.5320 -1.5290  0.6189
  140ANI     CN 1947   2.956   0.512   1.865  0.0917  0.4709 -0.2442
  140ANI     CH 1948   3.003   0.621   1.938 -0.1241  0.1702  0.3444
  140ANI     CH 1949   2.934   0.667   2.051 -0.2522 -0.2867  0.4524
  140ANI     CH 1950   2.806   0.616   2.074 -0.6537  0.3581 -0.3183
  140ANI     CH 1951   2.754   0.506   2.003 -0.3647 -0.0576  0.1098
  140ANI     CH 1952   2.830   0.459   1.896  0.3156  0.3282  0.4222
  140ANI     NH 1953   3.022   0.466   1.757  0.2739 -0.0192  0.0758
  140ANI     HC 1954   3.103   0.651   1.911  0.1173 -1.5189 -0.6844
  140ANI     HC 1955   2.972   0.752   2.105  0.9731  0.3663 -1.3965
  140ANI     HC 1956   2.749   0.649   2.160  0.3372 -0.2492  0.5758
  140ANI     HC 1957   2.651   0.487   2.032  0.1490  1.0942  2.8884
  140ANI     HC 1958   2.777   0.381   1.844  0.5828  0.5553 -0.1930
  140ANI     HN 1959   3.107   0.426   1.795 -0.4248 -1.1123  0.5041
  140ANI     HN 1960   3.057   0.540   1.698  0.2159 -0.2357 -0.2304
  141ANI     CN 1961   1.535   2.836   5.865 -0.0496 -0.0892 -0.3645
  141ANI     CH 1962   1.502   2.915   5.976 -0.2456 -0.6140 -0.0469
  141ANI     CH 1963   1.526   2.860   6.103 -0.4998 -0.1195  0.2180
  141ANI     CH 1964   1.593   2.737   6.116  0.4104  0.2831 -0.5582
  141ANI     CH 1965   1.617   2.659   6.002 -0.1110 -0.0068 -0.4737
  141ANI     CH 1966   1.593   2.709   5.873 -0.0195 -0.0857 -0.5201
  141ANI     NH 1967   1.513   2.889   5.744  0.8281 -0.2306 -0.5898
  141ANI     HC 1968   1.444   3.006   5.972  1.6918  0.6600  0.2263
  141ANI     HC 1969   1.494   2.914   6.190  2.6660  4.3045 -1.1844
  141ANI     HC 1970   1.613   2.709   6.218  0.1643 -1.0537 -0.8613
  141ANI     HC 1971   1.662   2.562   6.014  0.8995 -0.0163 -3.7258
  141ANI     HC 1972   1.614   2.650   5.785 -0.5132  1.0290 -1.3871
  141ANI     HN 1973   1.480   2.821   5.677  1.4755  0.9776 -2.1509
  141ANI     HN 1974   1.437   2.955   5.748  0.6977 -0.4900  2.7115
  142ANI     CN 1975   4.701   4.795   4.056  0.2879  0.5922  0.2801
  142ANI     CH 1976   4.794   4.693   4.083 -0.1470  0.0591 -0.2258
  142ANI     CH 1977   4.789   4.630   4.208 -0.2283  0.3078 -0.1024
  142ANI     CH 1978   4.698   4.669   4.306 -0.4793 -0.2057 -0.1305
  142ANI     CH 1979   4.608   4.773   4.278 -0.4280 -0.3708 -0.9228
  142ANI     CH 1980   4.613   4.840   4.155 -1.1238  0.0574 -0.7212
  142ANI     NH 1981   4.711   4.861   3.940  0.1948  0.2210  0.0613
  142ANI     HC 1982   4.861   4.649   4.010 -1.1016  1.1072 -1.7709
  142ANI     HC 1983   4.856   4.547   4.225  1.1170  1.5251  0.7129
  142ANI     HC 1984   4.690   4.621   4.403 -1.4727  0.9276  0.3633
  142ANI     HC 1985   4.533   4.811   4.346 -0.2622  1.0881 -1.5373
  142ANI     HC 1986   4.549   4.924   4.134 -1.3511  0.8816  2.9967
  142ANI     HN 1987   4.796   4.827   3.897 -0.0005 -0.5278  0.2489
  142ANI     HN 1988   4.721   4.958   3.964 -2.3188  0.4354  0.4095
  143ANI     CN 1989   2.340   4.752   1.883  0.1127 -0.2622 -0.0739
  143ANI     CH 1990   2.441   4.678   1.944  0.1885 -0.2945 -0.2399
  143ANI     CH 1991   2.468   4.550   1.895  0.6367 -0.2212 -0.1938
  143ANI     CH 1992   2.403   4.497   1.782  0.5749  0.1449 -0.3306
  143ANI     CH 1993   2.311   4.582   1.720  0.1563  0.0042  0.0944
  143ANI     CH 1994   2.276   4.709   1.765  0.1392  0.1148 -0.2269
  143ANI     NH 1995   2.314   4.873   1.936 -0.3271 -0.2805 -0.2464
  143ANI     HC 1996   2.485   4.718   2.034  0.8468  0.7941 -1.0310
  143ANI     HC 1997   2.540   4.484   1.942 -0.1613 -3.3138 -3.0382
  143ANI     HC 1998   2.423   4.397   1.747  0.1742  0.0843 -0.3903
  143ANI     HC 1999   2.255   4.538   1.638 -1.3647  1.9628  0.0417
  143ANI     HC 2000   2.193   4.759   1.718 -0.6191  1.2305  2.1851
  143ANI     HN 2001   2.341   4.884   2.032 -1.2141  1.3065 -0.1566
  143ANI     HN 2002   2.227   4.922   1.918  0.3438  0.7882 -0.5680
  144ANI     CN 2003   4.780   0.900   2.560  0.4140 -0.2199 -0.5125
  144ANI     CH 2004   4.807   1.036   2.579  0.4158 -0.3398  0.3458
  144ANI     CH 2005   4.779   1.126   2.476 -0.0850 -0.2793  0.5341
  144ANI     CH 2006   4.721   1.081   2.357  0.4108  0.1248  0.1349
  144ANI     CH 2007   4.685   0.947   2.337 -0.6605  0.3698  0.3692
  144ANI     CH 2008   4.721   0.859   2.439 -0.3218 -0.1395 -0.1836
  144ANI     NH 2009   4.796   0.816   2.663 -0.8781 -0.1390 -0.2356
  144ANI     HC 2010   4.866   1.065   2.664  1.1116 -1.2618  0.1921
  144ANI     HC 2011   4.804   1.230   2.493 -2.9808  0.0561  3.1475
  144ANI     HC 2012   4.701   1.149   2.276 -0.1042 -1.3152 -0.9754
  144ANI     HC 2013   4.645   0.909   2.244 -0.9512 -2.6333  1.6720
  144ANI     HC 2014   4.706   0.753   2.427  0.1247 -0.4517  1.7528
  144ANI     HN 2015   4.853   0.735   2.643 -1.6297 -0.4813 -1.0521
  144ANI     HN 2016   4.841   0.863   2.741  0.6958 -1.0678 -0.5571
  145ANI     CN 2017   1.550   5.562   4.221  0.2385 -0.1768  0.1777
  145ANI     CH 2018   1.536   5.425   4.197  0.5125 -0.3837  1.1916
  145ANI     CH 2019   1.430   5.351   4.252 -0.2025 -0.2561 -0.0089
  145ANI     CH 2020   1.344   5.411   4.344  0.3602  0.0748  0.3063
  145ANI     CH 2021   1.357   5.548   4.370 -1.0422  0.3072 -0.1489
  145ANI     CH 2022   1.458   5.622   4.307 -0.4662 -0.5828 -0.2905
  145ANI     NH 2023   1.642   5.634   4.156 -0.0864  0.2381  0.1779
  145ANI     HC 2024   1.602   5.377   4.126  0.4111  1.3372 -0.0759
  145ANI     HC 2025   1.412   5.250   4.216 -1.1371 -0.2525  0.4473
  145ANI     HC 2026   1.258   5.354   4.376  0.7392 -1.1308 -0.7964
  145ANI     HC 2027   1.288   5.589   4.442 -1.7233  0.4222 -0.8527
  145ANI     HC 2028   1.478   5.722   4.344 -1.7629 -0.3628 -0.1510
  145ANI     HN 2029   1.644   5.618   4.056 -0.0385 -1.5453  0.4600
  145ANI     HN 2030   1.621   5.733   4.162 -1.1628 -0.0762  1.8104
  146ANI     CN 2031   4.055   5.530   2.199 -0.3639  0.2659  0.2015
  146ANI     CH 2032   4.075   5.532   2.061  0.9200 -0.6267  0.3665
  146ANI     CH 2033   4.030   5.426   1.980  0.1600 -0.0805  0.0714
  146ANI     CH 2034   3.971   5.314   2.039  0.0763 -0.1706 -0.1851
  146ANI     CH 2035   3.951   5.312   2.178  0.4255 -0.1908 -0.1358
  146ANI     CH 2036   3.984   5.424   2.256 -0.6685  0.2238 -0.2553
  146ANI     NH 2037   4.099   5.634   2.271  0.4441 -0.0529  0.1787
  146ANI     HC 2038   4.109   5.617   2.004  0.6890 -0.0630  1.0798
  146ANI     HC 2039   4.040   5.430   1.873  0.3197 -0.0137  0.0879
  146ANI     HC 2040   3.948   5.228   1.978  0.6727 -0.9460  0.6754
  146ANI     HC 2041   3.913   5.225   2.228  0.7134  0.7007  1.6964
  146ANI     HC 2042   3.961   5.431   2.362  0.7552  1.2567 -0.0103
  146ANI     HN 2043   4.049   5.639   2.358  1.2630  1.9043  0.5537
  146ANI     HN 2044   4.087   5.718   2.217  1.4397  0.6127  0.9783
  147ANI     CN 2045   0.653   0.606   5.349  0.0210  0.3921  0.1589
  147ANI     CH 2046   0.763   0.691   5.335  0.2090  0.0921 -0.1925
  147ANI     CH 2047   0.809   0.737   5.211  0.1984  0.7545  0.0443
  147ANI     CH 2048   0.735   0.691   5.101 -0.1310  0.3769  0.4223
  147ANI     CH 2049   0.621   0.611   5.108  0.0633  0.1177  0.6048
  147ANI     CH 2050   0.581   0.567   5.235  0.0881 -0.4771  0.4123
  147ANI     NH 2051   0.607   0.565   5.468  0.0699  0.1284  0.0861
  147ANI     HC 2052   0.810   0.723   5.427  1.1867 -3.2723  0.5654
  147ANI     HC 2053   0.892   0.806   5.208  0.7335  0.0795 -1.1902
  147ANI     HC 2054   0.758   0.710   4.998 -0.3249  1.0085  0.4883
  147ANI     HC 2055   0.562   0.585   5.021  1.4219  1.0754 -0.5991
  147ANI     HC 2056   0.491   0.509   5.248 -0.6939  0.4958 -0.5161
  147ANI     HN 2057   0.678   0.537   5.534 -2.0294  0.3454  2.5221
  147ANI     HN 2058   0.542   0.487   5.465  2.5540 -1.9931  0.1513
  148ANI     CN 2059   5.829   0.629   0.192 -0.1822 -0.3601 -0.1061
  148ANI     CH 2060   5.914   0.533   0.134 -0.3254 -0.7058  0.2495
  148ANI     CH 2061   5.881   0.482   0.008 -0.1236  0.1018 -0.1332
  148ANI     CH 2062   5.766   0.527  -0.059 -0.2957  0.0330  0.1163
  148ANI     CH 2063   5.688   0.630  -0.005 -0.0774  0.6611 -0.7599
  148ANI     CH 2064   5.720   0.680   0.122 -0.0270 -0.3741 -0.3587
  148ANI     NH 2065   5.859   0.680   0.312  0.3767 -0.1456 -0.3337
  148ANI     HC 2066   6.001   0.491   0.182 -0.0567 -0.7432 -0.2615
  148ANI     HC 2067   5.937   0.404  -0.041 -2.7261 -0.8839 -1.6721
  148ANI     HC 2068   5.750   0.483  -0.156  2.6002  1.0196 -0.8616
  148ANI     HC 2069   5.600   0.653  -0.063 -1.2879 -2.6390 -0.3691
  148ANI     HC 2070   5.661   0.760   0.164 -0.0787 -0.4769 -0.2351
  148ANI     HN 2071   5.958   0.666   0.328  0.6572 -0.3428 -2.1803
  148ANI     HN 2072   5.852   0.781   0.303  0.4576  0.2097  3.0032
  149ANI     CN 2073   0.975   5.667   5.491  0.3523 -0.0829 -0.1899
  149ANI     CH 2074   0.891   5.748   5.413  0.0081 -0.1410  0.1140
  149ANI     CH 2075   0.931   5.880   5.391 -0.3266 -0.0052  0.3269
  149ANI     CH 2076   1.053   5.925   5.443 -0.2691  0.2681 -0.0373
  149ANI     CH 2077   1.139   5.837   5.510 -0.2634  0.4977  0.2555
  149ANI     CH 2078   1.101   5.705   5.536 -0.2249  0.6049  0.8729
  149ANI     NH 2079   0.943   5.538   5.513  0.2670  0.0416  0.4331
  149ANI     HC 2080   0.798   5.704   5.382 -0.5509  0.6729  0.6377
  149ANI     HC 2081   0.869   5.956   5.345  0.3296  2.2029  2.9710
  149ANI     HC 2082   1.088   6.026   5.432 -1.2037  0.6003  0.0045
  149ANI     HC 2083   1.234   5.863   5.556  0.5070  0.4111 -1.2641
  149ANI     HC 2084   1.170   5.639   5.586 -2.7020 -1.7005  1.3460
  149ANI     HN 2085   0.855   5.502   5.477  1.2054 -1.3406 -0.4943
  149ANI     HN 2086   0.965   5.500   5.603 -3.1683 -0.1972  1.2667
  150ANI     CN 2087   1.960   1.458   3.399  0.1387  0.1293 -0.2158
  150ANI     CH 2088   1.981   1.597   3.406 -0.2949  0.1560  0.6151
  150ANI     CH 2089   2.059   1.663   3.311 -0.4413  0.1340  0.4812
  150ANI     CH 2090   2.111   1.588   3.205 -0.2838  0.0844  0.5952
  150ANI     CH 2091   2.088   1.450   3.194 -0.5723  0.1960 -0.2367
  150ANI     CH 2092   2.011   1.385   3.291 -0.0333 -0.2001 -0.0731
  150ANI     NH 2093   1.903   1.400   3.506 -0.1611  0.5617 -0.1413
  150ANI     HC 2094   1.937   1.641   3.494  0.8744  2.0622  0.2702
  150ANI     HC 2095   2.071   1.771   3.312  0.1621  0.1416 -2.4522
  150ANI     HC 2096   2.165   1.622   3.118 -0.6361 -1.5782 -0.2925
  150ANI     HC 2097   2.123   1.393   3.110 -0.9084  0.1923 -0.3750
  150ANI     HC 2098   2.011   1.277   3.290 -1.6347 -0.1982 -1.4600
  150ANI     HN 2099   1.920   1.448   3.593 -0.9615  0.2908  0.1687
  150ANI     HN 2100   1.934   1.305   3.519  1.4817  1.4762  2.9886
  151ANI     CN 2101   0.119   0.692   3.602  0.0428 -0.3529  0.0290
  151ANI     CH 2102   0.227   0.745   3.674 -0.1967 -0.0555  0.1693
  151ANI     CH 2103   0.324   0.824   3.612 -0.0443  0.0526  0.5409
  151ANI     CH 2104   0.316   0.846   3.474 -0.0014 -0.9400  0.3797
  151ANI     CH 2105   0.210   0.788   3.402 -0.4323  0.2677  0.0283
  151ANI     CH 2106   0.104   0.722   3.466  0.0470 -0.5510 -0.0159
  151ANI     NH 2107   0.045   0.601   3.667  0.5837 -0.2421  0.8138
  151ANI     HC 2108   0.248   0.721   3.777  1.4687  0.4838 -0.0410
  151ANI     HC 2109   0.401   0.873   3.669  0.9111  1.4876 -1.9275
  151ANI     HC 2110   0.392   0.901   3.421  0.3000 -0.8554  0.9043
  151ANI     HC 2111   0.199   0.795   3.295 -1.4800 -1.1892  0.0194
  151ANI     HC 2112   0.019   0.689   3.409  0.5497 -1.1740 -0.4111
  151ANI     HN 2113   0.106   0.547   3.726  1.2869 -1.7426 -1.2602
  151ANI     HN 2114   0.013   0.530   3.603 -2.2645 -1.2272  3.2066
  152ANI     CN 2115   2.594   4.013   0.779  0.2621 -0.5005 -0.0203
  152ANI     CH 2116   2.693   3.997   0.875  0.2027  0.7728  0.2687
  152ANI     CH 2117   2.829   4.011   0.842  0.2528  0.8021  0.4876
  152ANI     CH 2118   2.861   4.029   0.707  0.0628  0.0469  0.3375
  152ANI     CH 2119   2.763   4.051   0.610 -0.1088 -0.2090  0.4497
  152ANI     CH 2120   2.628   4.045   0.647 -0.2494  0.5366  0.0839
  152ANI     NH 2121   2.467   4.016   0.823  0.3760 -0.4628  0.3029
  152ANI     HC 2122   2.667   3.993   0.980 -0.6645 -0.3913  0.0192
  152ANI     HC 2123   2.908   3.994   0.914 -0.8130 -1.2412  1.2320
  152ANI     HC 2124   2.961   4.056   0.678  0.7224 -1.9432  0.6617
  152ANI     HC 2125   2.791   4.095   0.515 -0.2296 -1.3391 -0.1188
  152ANI     HC 2126   2.546   4.067   0.580  2.3335 -0.2255 -3.5428
  152ANI     HN 2127   2.463   4.050   0.918  0.9437  0.0623  0.1440
  152ANI     HN 2128   2.416   4.080   0.763 -0.3491 -1.0434  0.3020
  153ANI     CN 2129   3.197   3.639   2.729  0.3708 -0.1591  0.3252
  153ANI     CH 2130   3.147   3.748   2.658 -0.0079 -0.3831  0.2431
  153ANI     CH 2131   3.226   3.863   2.643  0.1642 -0.5510 -0.1330
  153ANI     CH 2132   3.352   3.868   2.705  0.3859 -0.4420 -0.5865
  153ANI     CH 2133   3.393   3.761   2.785  0.1111 -0.6115 -0.6714
  153ANI     CH 2134   3.321   3.641   2.795  0.1938 -0.5559  0.6762
  153ANI     NH 2135   3.125   3.526   2.725 -0.2119  0.2150  0.1884
  153ANI     HC 2136   3.046   3.741   2.621  0.0588 -2.4761  0.4497
  153ANI     HC 2137   3.203   3.942   2.573  0.5777 -1.2133 -1.0257
  153ANI     HC 2138   3.406   3.961   2.701 -0.8099  0.3042  0.3068
  153ANI     HC 2139   3.492   3.759   2.827  0.2097  0.6528 -0.8291
  153ANI     HC 2140   3.358   3.554   2.846 -0.7360 -1.6734 -0.5044
  153ANI     HN 2141   3.072   3.524   2.639 -0.6684 -0.2593  0.4777
  153ANI     HN 2142   3.186   3.445   2.720  0.3112  0.5270  1.4219
  154ANI     CN 2143   4.685   1.851   1.295  0.3791 -0.0288  0.0390
  154ANI     CH 2144   4.800   1.913   1.245  0.1634  0.1632 -0.2232
  154ANI     CH 2145   4.866   2.013   1.317  0.3908 -0.4537  0.4338
  154ANI     CH 2146   4.800   2.073   1.425  0.2454 -0.4546  0.3445
  154ANI     CH 2147   4.680   2.017   1.472 -0.1969 -0.2303 -0.5041
  154ANI     CH 2148   4.621   1.909   1.406 -0.4093 -0.2341 -0.3073
  154ANI     NH 2149   4.624   1.750   1.232 -0.6582  0.3762  0.3795
  154ANI     HC 2150   4.848   1.877   1.156  2.1555  1.7653  0.1659
  154ANI     HC 2151   4.959   2.051   1.277 -0.7915  0.7313 -1.2487
  154ANI     HC 2152   4.834   2.159   1.482 -0.9295  1.7421 -2.1191
  154ANI     HC 2153   4.637   2.062   1.560 -0.2477  0.9471 -1.1190
  154ANI     HC 2154   4.527   1.862   1.430 -0.4290 -0.6434 -1.1428
  154ANI     HN 2155   4.578   1.684   1.293 -0.9071  0.1977  0.0018
  154ANI     HN 2156   4.669   1.704   1.155  0.5838  0.7946  0.8419
  155ANI     CN 2157   2.497   4.069   5.218  0.0101 -0.0198 -0.5161
  155ANI     CH 2158   2.486   4.177   5.307 -0.7463 -0.4298 -0.1117
  155ANI     CH 2159   2.551   4.176   5.431 -0.3147 -0.0276 -0.3319
  155ANI     CH 2160   2.624   4.062   5.467 -0.3285  0.0523 -0.0463
  155ANI     CH 2161   2.639   3.952   5.381  0.8923  0.4118 -0.3029
  155ANI     CH 2162   2.572   3.958   5.258 -0.5581 -0.0594  0.4510
  155ANI     NH 2163   2.447   4.081   5.095  0.4193 -0.1104 -0.6937
  155ANI     HC 2164   2.432   4.265   5.277  0.4397  0.5795  0.6839
  155ANI     HC 2165   2.540   4.265   5.490 -1.0953  0.8387 -1.7564
  155ANI     HC 2166   2.674   4.060   5.563  2.1540  0.5023 -1.2865
  155ANI     HC 2167   2.695   3.862   5.403  0.1082 -0.1002 -0.4180
  155ANI     HC 2168   2.582   3.883   5.181  1.5531  0.7011 -0.0579
  155ANI     HN 2169   2.415   4.176   5.078 -2.4832 -1.1587 -1.4111
  155ANI     HN 2170   2.494   4.046   5.013 -1.2852 -1.1992 -1.2341
  156ANI     CN 2171   1.122   3.626   5.014  0.3539  0.2660  0.2913
  156ANI     CH 2172   1.127   3.511   4.934 -0.4593  0.0355  0.5639
  156ANI     CH 2173   1.047   3.400   4.960 -0.0815 -0.3299  0.1842
  156ANI     CH 2174   0.979   3.397   5.083 -0.2390  0.2528  0.1101
  156ANI     CH 2175   0.965   3.513   5.160 -0.1877  0.7727 -0.6564
  156ANI     CH 2176   1.042   3.626   5.129  0.1248  0.7813  0.1285
  156ANI     NH 2177   1.205   3.728   4.988  0.2077  0.2364 -0.2837
  156ANI     HC 2178   1.195   3.517   4.850 -1.9157 -0.3064 -0.6599
  156ANI     HC 2179   1.036   3.316   4.894  2.2310 -0.8519  0.4381
  156ANI     HC 2180   0.919   3.310   5.105 -0.5808  0.1874 -1.0181
  156ANI     HC 2181   0.909   3.515   5.252 -0.6737 -1.1415 -0.8873
  156ANI     HC 2182   1.037   3.718   5.185  2.3020  1.3038 -0.5171
  156ANI     HN 2183   1.225   3.773   5.076 -1.0564 -1.2653  0.7970
  156ANI     HN 2184   1.293   3.690   4.957  0.7301  0.4039  0.9480
  157ANI     CN 2185   2.538   0.365   5.689 -0.0576 -0.2701  0.4230
  157ANI     CH 2186   2.527   0.376   5.828 -0.5348 -0.0612  0.3718
  157ANI     CH 2187   2.595   0.283   5.908 -0.9307 -0.7994 -0.1484
  157ANI     CH 2188   2.668   0.177   5.852  0.8221  0.1234  0.3463
  157ANI     CH 2189   2.674   0.164   5.713  0.1971  0.8722  0.2447
  157ANI     CH 2190   2.609   0.258   5.633  0.1642  0.3095 -0.3960
  157ANI     NH 2191   2.476   0.449   5.605 -0.5944 -0.4379  0.6473
  157ANI     HC 2192   2.480   0.454   5.886  1.2660  1.7071 -0.4769
  157ANI     HC 2193   2.590   0.298   6.015 -0.8043 -1.2236 -0.0786
  157ANI     HC 2194   2.711   0.099   5.913 -2.9491 -0.1888  2.7416
  157ANI     HC 2195   2.728   0.092   5.653  0.8441  1.4115  0.1746
  157ANI     HC 2196   2.600   0.240   5.526  0.8850 -1.9895 -0.0871
  157ANI     HN 2197   2.397   0.501   5.640 -0.6234 -0.1560  0.1693
  157ANI     HN 2198   2.453   0.409   5.516  1.9598  2.2621 -1.3345
  158ANI     CN 2199   3.268   6.021   2.388 -0.0500  0.2694 -1.0483
  158ANI     CH 2200   3.219   5.895   2.351 -0.0259  0.0086 -0.1940
  158ANI     CH 2201   3.306   5.807   2.285  0.1571 -0.0044  0.0618
  158ANI     CH 2202   3.439   5.841   2.259  0.1250  0.0227 -0.0652
  158ANI     CH 2203   3.486   5.966   2.301  0.4333 -0.1530  0.1108
  158ANI     CH 2204   3.399   6.059   2.359  0.5612 -0.4217  0.7400
  158ANI     NH 2205   3.183   6.105   2.449  0.3402 -0.3649  0.3764
  158ANI     HC 2206   3.118   5.863   2.372 -0.1147  0.8976  0.7711
  158ANI     HC 2207   3.273   5.707   2.259 -0.8485  0.7380 -1.6228
  158ANI     HC 2208   3.502   5.788   2.189  0.2829  0.8850 -0.5826
  158ANI     HC 2209   3.584   5.995   2.266  0.5495 -0.5457  0.1088
  158ANI     HC 2210   3.438   6.159   2.375 -0.5557  0.6873 -2.9602
  158ANI     HN 2211   3.204   6.202   2.433  1.0403 -0.5656  0.0536
  158ANI     HN 2212   3.091   6.097   2.410  0.0765 -0.1042  0.9451
  159ANI     CN 2213   0.926   6.053   1.151  0.1095  0.3996  1.0390
  159ANI     CH 2214   0.874   5.929   1.111  0.7633  0.3464  0.3237
  159ANI     CH 2215   0.760   5.925   1.031  0.9041 -0.1708  0.1457
  159ANI     CH 2216   0.700   6.042   0.982  0.4427 -0.5299 -0.1505
  159ANI     CH 2217   0.756   6.165   1.018 -0.1423 -0.1575 -0.5007
  159ANI     CH 2218   0.872   6.169   1.096 -0.3287 -0.3808 -0.2083
  159ANI     NH 2219   1.048   6.062   1.207  0.6776  0.1465 -0.1382
  159ANI     HC 2220   0.929   5.843   1.146 -0.8762 -0.8876 -0.0826
  159ANI     HC 2221   0.720   5.830   0.999  2.3880 -0.4403 -0.9647
  159ANI     HC 2222   0.608   6.026   0.927 -0.0347 -0.3798  0.5849
  159ANI     HC 2223   0.707   6.251   0.974 -1.7267  0.5401  2.5039
  159ANI     HC 2224   0.911   6.264   1.131  1.8532 -1.3996  0.2127
  159ANI     HN 2225   1.104   5.978   1.207 -0.8315 -0.8941  0.6127
  159ANI     HN 2226   1.099   6.144   1.178  2.3794 -0.3909  1.2579
  160ANI     CN 2227   1.061   2.159   5.073  0.3708 -0.3332 -0.0751
  160ANI     CH 2228   1.091   2.161   4.936 -0.3106 -0.5409 -0.2338
  160ANI     CH 2229   1.052   2.060   4.848  0.1946 -0.6949 -0.2857
  160ANI     CH 2230   0.987   1.947   4.898 -0.3236 -0.3311 -0.1328
  160ANI     CH 2231   0.957   1.942   5.035  0.2095 -0.1303 -0.0097
  160ANI     CH 2232   0.988   2.048   5.121  0.5180 -0.3379  0.1372
  160ANI     NH 2233   1.085   2.270   5.143 -0.5616 -0.2611  0.1374
  160ANI     HC 2234   1.147   2.243   4.893  0.7670 -0.9257  0.4024
  160ANI     HC 2235   1.079   2.069   4.744 -1.3915  2.8166 -0.4590
  160ANI     HC 2236   0.956   1.868   4.831  1.6798 -0.3485 -1.0767
  160ANI     HC 2237   0.913   1.855   5.081 -2.1578  0.8230 -0.4360
  160ANI     HC 2238   0.958   2.040   5.224 -0.2677 -2.0404 -0.2204
  160ANI     HN 2239   1.058   2.258   5.240 -0.6084  1.2647  0.3193
  160ANI     HN 2240   1.182   2.297   5.143 -0.3924 -0.8311  1.9517
  161ANI     CN 2241   4.558   5.394   1.300 -0.0899 -0.1135 -0.9420
  161ANI     CH 2242   4.675   5.433   1.365 -0.9780  0.3853  0.3726
  161ANI     CH 2243   4.720   5.566   1.359 -0.3117  0.1506  0.1120
  161ANI     CH 2244   4.634   5.662   1.304 -0.7360 -0.1720  0.2095
  161ANI     CH 2245   4.513   5.630   1.240 -0.6587 -0.0608  0.0089
  161ANI     CH 2246   4.479   5.494   1.243 -0.8077 -0.0193  0.1987
  161ANI     NH 2247   4.512   5.268   1.308  0.2002 -0.1708 -0.1243
  161ANI     HC 2248   4.737   5.354   1.405 -2.5378 -0.4387  1.1899
  161ANI     HC 2249   4.814   5.600   1.398  1.0449 -2.5274 -0.7015
  161ANI     HC 2250   4.665   5.765   1.299  0.0946 -0.3061  2.2167
  161ANI     HC 2251   4.449   5.705   1.196  2.1032  0.7949 -2.7235
  161ANI     HC 2252   4.386   5.463   1.198 -0.1412 -1.6560 -0.0987
  161ANI     HN 2253   4.412   5.258   1.303 -0.0403  1.8825  0.2349
  161ANI     HN 2254   4.543   5.217   1.390  0.6377  2.8752  1.6741
  162ANI     CN 2255   2.719   4.500   4.468  0.5364 -0.1790 -0.2537
  162ANI     CH 2256   2.826   4.452   4.391  0.5915  0.2504 -0.4417
  162ANI     CH 2257   2.825   4.475   4.252  0.3825  0.3726 -0.4219
  162ANI     CH 2258   2.725   4.550   4.190  0.0325  0.0621 -0.2401
  162ANI     CH 2259   2.618   4.592   4.270  0.0067 -0.7626  0.1591
  162ANI     CH 2260   2.612   4.564   4.407  0.1495 -0.3398  0.2517
  162ANI     NH 2261   2.726   4.471   4.599 -0.1363 -0.3996 -0.2661
  162ANI     HC 2262   2.907   4.404   4.442 -0.4400 -0.7447  0.2853
  162ANI     HC 2263   2.908   4.451   4.188  0.5459 -1.7601  0.5399
  162ANI     HC 2264   2.719   4.562   4.082 -1.1971  1.3845 -0.0376
  162ANI     HC 2265   2.534   4.648   4.232  0.6089  0.1772  0.1899
  162ANI     HC 2266   2.522   4.595   4.458 -1.2682 -1.4249 -1.5121
  162ANI     HN 2267   2.669   4.536   4.652 -0.2322 -1.2647  0.6988
  162ANI     HN 2268   2.819   4.467   4.639 -0.1247  3.1847  0.2884
  163ANI     CN 2269   5.899   3.194   2.969  0.2808  0.6783 -0.1515
  163ANI     CH 2270   6.010   3.109   2.967  0.3536  0.7709  0.0507
  163ANI     CH 2271   6.089   3.104   2.852  0.2193 -0.4924  0.0036
  163ANI     CH 2272   6.047   3.168   2.734  0.1543 -0.0406  0.2704
  163ANI     CH 2273   5.931   3.246   2.738  0.0638 -0.1659  0.0821
  163ANI     CH 2274   5.852   3.258   2.853 -0.2940  0.1807 -0.1965
  163ANI     NH 2275   5.825   3.196   3.080  0.1769 -0.1331 -0.1985
  163ANI     HC 2276   6.037   3.053   3.056 -2.6170  1.5792  1.5391
  163ANI     HC 2277   6.179   3.044   2.848  0.8633  0.4830 -0.3772
  163ANI     HC 2278   6.115   3.163   2.650  1.0222  3.1464  0.7195
  163ANI     HC 2279   5.906   3.296   2.646 -2.2210 -0.3949  0.5449
  163ANI     HC 2280   5.765   3.320   2.838  0.1989  1.7268  2.8945
  163ANI     HN 2281   5.887   3.178   3.158  0.2562  1.7894  0.2208
  163ANI     HN 2282   5.778   3.284   3.097  1.4141  0.6441 -0.7748
  164ANI     CN 2283   0.825   4.834   4.007  0.0410  0.0533 -0.0311
  164ANI     CH 2284   0.721   4.929   4.004  0.2583  0.2948  0.0199
  164ANI     CH 2285   0.654   4.956   3.885  0.4031  0.0535 -0.1169
  164ANI     CH 2286   0.698   4.902   3.764 -0.4500 -0.6677 -0.1176
  164ANI     CH 2287   0.808   4.815   3.763 -0.0182 -0.1262 -0.2109
  164ANI     CH 2288   0.864   4.776   3.885 -0.1938  0.0128 -0.0868
  164ANI     NH 2289   0.891   4.813   4.121  0.0624  0.2889  0.0009
  164ANI     HC 2290   0.693   4.974   4.099 -2.9914 -2.1282  0.3033
  164ANI     HC 2291   0.562   5.014   3.886  0.5100  0.2239 -0.0996
  164ANI     HC 2292   0.646   4.916   3.670 -1.9343 -0.6562  0.7001
  164ANI     HC 2293   0.846   4.770   3.673  0.2321  1.0987 -0.7338
  164ANI     HC 2294   0.947   4.709   3.878  1.0768  1.5495 -0.0847
  164ANI     HN 2295   0.842   4.844   4.204  0.4598  0.0049  0.3432
  164ANI     HN 2296   0.910   4.716   4.143  1.3228  0.9312  1.8941
  165ANI     CN 2297   5.579   3.757   2.986  0.2355  0.1268  0.0699
  165ANI     CH 2298   5.457   3.755   3.054 -0.1381  0.2877 -0.5898
  165ANI     CH 2299   5.387   3.875   3.065  0.2275  0.4425  0.0547
  165ANI     CH 2300   5.422   3.988   2.990 -0.0349  0.3885 -0.1497
  165ANI     CH 2301   5.534   3.981   2.906  0.0726 -0.3206  0.0481
  165ANI     CH 2302   5.611   3.864   2.901  0.1825 -0.2327 -0.4074
  165ANI     NH 2303   5.649   3.643   2.976 -0.5013 -0.2629 -0.7164
  165ANI     HC 2304   5.427   3.666   3.109  2.8373 -1.0174 -0.9656
  165ANI     HC 2305   5.294   3.867   3.120  0.0868 -0.2075 -0.2753
  165ANI     HC 2306   5.359   4.075   2.991 -2.0861 -1.0563  0.0512
  165ANI     HC 2307   5.569   4.068   2.852  0.7447  0.0347  1.0398
  165ANI     HC 2308   5.693   3.862   2.831 -0.7271  1.2585 -1.5373
  165ANI     HN 2309   5.670   3.595   3.062  0.8889  1.3870 -0.0960
  165ANI     HN 2310   5.743   3.656   2.942 -0.2165  0.6532  0.3943
  166ANI     CN 2311   0.597   6.019   3.058  0.4182  0.2087  0.5793
  166ANI     CH 2312   0.483   6.002   3.137 -0.0167 -0.0655 -0.1106
  166ANI     CH 2313   0.365   6.074   3.113 -0.0647 -0.0942  0.0340
  166ANI     CH 2314   0.368   6.177   3.018  0.2689 -0.1491 -0.0177
  166ANI     CH 2315   0.488   6.208   2.952 -0.0459 -0.2579 -0.6485
  166ANI     CH 2316   0.598   6.123   2.966 -0.0901 -0.2000  0.1099
  166ANI     NH 2317   0.700   5.933   3.070  0.5275  0.3073  0.3532
  166ANI     HC 2318   0.472   5.919   3.206 -1.9697  0.5926  0.4074
  166ANI     HC 2319   0.279   6.041   3.169 -0.0753 -2.7231 -1.4510
  166ANI     HC 2320   0.280   6.239   3.005  0.7432  0.5349  0.0057
  166ANI     HC 2321   0.498   6.291   2.884  0.2165  0.6127  0.4347
  166ANI     HC 2322   0.686   6.136   2.904  0.2606  0.3588  0.7198
  166ANI     HN 2323   0.793   5.970   3.057  0.7232 -0.5520 -0.6719
  166ANI     HN 2324   0.698   5.890   3.162  0.9659  1.7525  1.0667
  167ANI     CN 2325   2.230   3.801   2.742  0.2553 -0.2049  0.1989
  167ANI     CH 2326   2.235   3.870   2.864 -0.2094 -0.2654  0.2557
  167ANI     CH 2327   2.222   3.793   2.980  0.0753 -0.2658  0.2900
  167ANI     CH 2328   2.215   3.653   2.978 -0.3576 -0.2439  0.2566
  167ANI     CH 2329   2.223   3.587   2.855 -0.4967 -0.3021  0.2783
  167ANI     CH 2330   2.224   3.662   2.737  0.5639 -0.2224  0.3316
  167ANI     NH 2331   2.208   3.864   2.626  1.0388 -0.5526 -0.1424
  167ANI     HC 2332   2.240   3.977   2.874  1.4222 -0.3072  0.1524
  167ANI     HC 2333   2.234   3.849   3.072 -2.9067  1.3425 -0.2282
  167ANI     HC 2334   2.223   3.597   3.070 -1.8569 -0.7340  0.1150
  167ANI     HC 2335   2.223   3.479   2.856 -3.3981 -0.3482  0.0362
  167ANI     HC 2336   2.221   3.606   2.644  0.6707 -0.7476  0.6415
  167ANI     HN 2337   2.139   3.820   2.567 -0.5396 -0.6722  1.7123
  167ANI     HN 2338   2.186   3.962   2.642  2.9084  0.5153 -3.4917
  168ANI     CN 2339   2.658   0.947   0.307  0.3967 -0.2618 -0.0747
  168ANI     CH 2340   2.571   0.937   0.417 -0.0504 -0.0228 -0.4063
  168ANI     CH 2341   2.453   1.012   0.414 -0.2675 -0.3569 -0.1938
  168ANI     CH 2342   2.428   1.104   0.312  0.1970 -0.4363 -0.3762
  168ANI     CH 2343   2.513   1.113   0.200 -0.0702  0.3092 -0.5193
  168ANI     CH 2344   2.628   1.034   0.202 -0.1652  0.1805  0.4437
  168ANI     NH 2345   2.778   0.887   0.307  0.7393  0.4173  0.0952
  168ANI     HC 2346   2.597   0.873   0.500  3.5191  0.8619 -0.7686
  168ANI     HC 2347   2.383   1.006   0.497 -0.4775 -0.9416 -0.4120
  168ANI     HC 2348   2.342   1.168   0.302  0.0219 -0.5354  0.4786
  168ANI     HC 2349   2.494   1.181   0.118  0.3055  0.0600 -0.8121
  168ANI     HC 2350   2.699   1.075   0.131 -0.1204 -0.5467  0.0642
  168ANI     HN 2351   2.756   0.792   0.335  0.1527  0.4565 -0.2078
  168ANI     HN 2352   2.820   0.904   0.217  0.6530  1.5239  0.2570
  169ANI     CN 2353   4.955   4.606   0.598  0.1316 -0.3906 -0.0760
  169ANI     CH 2354   4.991   4.741   0.599  0.3960 -0.4649  0.3754
  169ANI     CH 2355   4.905   4.829   0.534  0.1925 -0.5665  0.5078
  169ANI     CH 2356   4.791   4.786   0.465  0.0919  0.1435  0.2158
  169ANI     CH 2357   4.762   4.649   0.460  0.1237  0.1527 -0.2541
  169ANI     CH 2358   4.841   4.558   0.533 -0.0572  0.1103 -0.1119
  169ANI     NH 2359   5.041   4.517   0.651  0.4587 -0.0371 -0.0100
  169ANI     HC 2360   5.084   4.770   0.645  1.2433  1.6461 -2.5436
  169ANI     HC 2361   4.933   4.933   0.536 -1.0908 -0.1779 -0.3960
  169ANI     HC 2362   4.733   4.857   0.408 -1.5595 -1.9281 -0.7611
  169ANI     HC 2363   4.679   4.618   0.399 -0.7960 -0.8014  1.4220
  169ANI     HC 2364   4.826   4.451   0.535 -0.5596  0.1744 -0.1503
  169ANI     HN 2365   4.996   4.428   0.666  1.4025 -0.3791  0.8231
  169ANI     HN 2366   5.068   4.544   0.744 -0.9019 -0.2468  0.4595
  170ANI     CN 2367   5.764   2.235   4.301  0.0254 -0.3144  0.0605
  170ANI     CH 2368   5.704   2.283   4.184  0.3791 -0.4981 -0.1960
  170ANI     CH 2369   5.645   2.193   4.095 -0.3071  0.2767 -0.5230
  170ANI     CH 2370   5.627   2.057   4.121 -0.0226  0.2124 -0.6575
  170ANI     CH 2371   5.683   2.015   4.242  0.0715  0.8139 -0.4918
  170ANI     CH 2372   5.752   2.098   4.330  0.5240 -0.3224  0.2360
  170ANI     NH 2373   5.821   2.320   4.387  0.5782 -0.4099 -0.2048
  170ANI     HC 2374   5.715   2.389   4.169  1.0438 -0.4925  0.2878
  170ANI     HC 2375   5.601   2.220   4.000 -0.0587 -1.0894 -1.0326
  170ANI     HC 2376   5.579   1.988   4.052 -0.3040  1.6067 -1.8663
  170ANI     HC 2377   5.694   1.912   4.272 -2.1062  1.2622  1.9787
  170ANI     HC 2378   5.799   2.057   4.419 -0.0640 -0.3135  0.5497
  170ANI     HN 2379   5.806   2.419   4.374 -1.0040 -0.4506  1.1303
  170ANI     HN 2380   5.872   2.291   4.470  1.4366  0.5436 -0.3894
  171ANI     CN 2381   1.066   2.511   2.381 -0.0494 -0.1981 -0.5025
  171ANI     CH 2382   0.980   2.424   2.448  0.0328  0.1241  0.0242
  171ANI     CH 2383   0.938   2.307   2.383  0.0428  0.0671  0.1213
  171ANI     CH 2384   0.989   2.273   2.257  0.3872 -0.1016  0.3045
  171ANI     CH 2385   1.082   2.358   2.195  0.2292 -0.2059 -0.0756
  171ANI     CH 2386   1.117   2.480   2.254  0.1415  0.0134 -0.4777
  171ANI     NH 2387   1.079   2.633   2.435 -0.3186  0.0514 -0.9922
  171ANI     HC 2388   0.940   2.442   2.547 -1.9163  1.7227 -1.0183
  171ANI     HC 2389   0.881   2.229   2.431  0.8052 -0.4410  0.2128
  171ANI     HC 2390   0.949   2.182   2.216  0.3558 -0.3223  0.8288
  171ANI     HC 2391   1.106   2.330   2.094  1.7270 -2.8850  0.9471
  171ANI     HC 2392   1.173   2.558   2.205  0.3540  0.7175  0.8829
  171ANI     HN 2393   1.113   2.699   2.367  0.7455 -1.0068 -1.4967
  171ANI     HN 2394   0.998   2.657   2.490 -0.9196 -0.5637 -1.5941
  172ANI     CN 2395   5.449   3.925   2.322 -0.2620  0.1173 -0.4229
  172ANI     CH 2396   5.464   3.823   2.227 -0.1384  0.0286 -0.3062
  172ANI     CH 2397   5.406   3.841   2.101  0.0876  0.3475 -0.3649
  172ANI     CH 2398   5.346   3.964   2.070  0.4968  0.5510 -0.3623
  172ANI     CH 2399   5.337   4.068   2.163 -0.2499 -0.0546  0.2581
  172ANI     CH 2400   5.384   4.046   2.293 -0.4513  0.2101  0.3770
  172ANI     NH 2401   5.504   3.918   2.443 -0.0242  0.4669 -0.5110
  172ANI     HC 2402   5.512   3.729   2.253 -0.0967  0.6300  1.9245
  172ANI     HC 2403   5.396   3.763   2.027  0.5168  0.2134 -0.2850
  172ANI     HC 2404   5.295   3.952   1.975 -1.1209 -0.8796  0.6416
  172ANI     HC 2405   5.282   4.161   2.152  0.2532  0.1839 -0.2729
  172ANI     HC 2406   5.374   4.118   2.373 -0.3446  0.2765  0.3305
  172ANI     HN 2407   5.588   3.861   2.444 -0.7945 -0.6969 -1.1118
  172ANI     HN 2408   5.523   4.003   2.494 -0.1301 -0.3465  0.9076
  173ANI     CN 2409   0.923   5.928   3.589  0.1435 -0.3788 -0.0521
  173ANI     CH 2410   0.839   6.029   3.541  0.1917 -0.4055 -0.1927
  173ANI     CH 2411   0.728   5.993   3.463 -0.0148 -0.6158  0.1991
  173ANI     CH 2412   0.700   5.859   3.437 -0.6206 -0.3018 -0.7763
  173ANI     CH 2413   0.791   5.762   3.480 -0.2052  0.3148 -0.2601
  173ANI     CH 2414   0.904   5.793   3.556  0.2508 -0.2355 -0.7023
  173ANI     NH 2415   1.033   5.963   3.658  0.0106 -0.7884  0.3776
  173ANI     HC 2416   0.852   6.131   3.573 -0.7581 -0.9732  2.1232
  173ANI     HC 2417   0.650   6.066   3.444 -0.2531 -0.7114  0.7895
  173ANI     HC 2418   0.606   5.829   3.392 -0.3001  0.4466 -1.9696
  173ANI     HC 2419   0.778   5.657   3.454  0.2193  0.5358 -1.3755
  173ANI     HC 2420   0.972   5.716   3.587 -1.0649 -1.4311 -0.7386
  173ANI     HN 2421   1.016   6.034   3.727  0.6393 -0.4832  0.2200
  173ANI     HN 2422   1.057   5.884   3.715  0.6833  0.3689  1.7290
  174ANI     CN 2423   5.652   4.391   2.152 -0.2482  0.0257 -0.1225
  174ANI     CH 2424   5.740   4.424   2.048 -0.3597 -0.3236 -0.3266
  174ANI     CH 2425   5.832   4.330   2.000  0.3491  0.0757  0.2473
  174ANI     CH 2426   5.842   4.204   2.061 -0.1570  0.1317  0.4498
  174ANI     CH 2427   5.751   4.170   2.161 -0.1238 -0.5318  0.2599
  174ANI     CH 2428   5.657   4.263   2.209  0.5014  0.1671  0.1375
  174ANI     NH 2429   5.555   4.477   2.187 -0.2009  0.0924 -0.1550
  174ANI     HC 2430   5.733   4.519   1.997 -3.3140 -0.2095  0.1456
  174ANI     HC 2431   5.887   4.349   1.910  1.0998 -0.9206  0.4926
  174ANI     HC 2432   5.905   4.126   2.021  0.8133  0.0387  2.1673
  174ANI     HC 2433   5.737   4.070   2.198  0.4454 -0.9582 -0.6903
  174ANI     HC 2434   5.585   4.230   2.282 -0.2760 -0.1430 -0.7597
  174ANI     HN 2435   5.474   4.439   2.234 -0.3573  0.6856  0.0646
  174ANI     HN 2436   5.520   4.541   2.117  2.4204  1.1632 -0.5461
  175ANI     CN 2437   0.295   4.668   0.108 -0.1101  0.1634  0.1059
  175ANI     CH 2438   0.173   4.600   0.112  0.6082 -1.1483  0.1507
  175ANI     CH 2439   0.094   4.604   0.227 -0.0889  0.3045 -0.3627
  175ANI     CH 2440   0.130   4.689   0.332  0.2883 -0.8642  0.4686
  175ANI     CH 2441   0.246   4.768   0.324  0.1460 -0.7033 -0.0308
  175ANI     CH 2442   0.326   4.759   0.210  0.4716 -0.0690  0.1428
  175ANI     NH 2443   0.380   4.658   0.005 -0.0579 -0.0461  0.1683
  175ANI     HC 2444   0.142   4.538   0.029 -1.3458  0.1808 -0.1564
  175ANI     HC 2445   0.004   4.544   0.230  0.8922 -1.2870 -2.0792
  175ANI     HC 2446   0.064   4.683   0.417 -0.4365  1.4322  0.1164
  175ANI     HC 2447   0.282   4.821   0.411  0.5712 -0.4320 -0.3680
  175ANI     HC 2448   0.415   4.820   0.212  1.1507 -1.1125  3.0283
  175ANI     HN 2449   0.469   4.665   0.052 -0.4712 -2.0889  1.3174
  175ANI     HN 2450   0.362   4.574  -0.048 -0.1554 -0.2414  0.5110
  176ANI     CN 2451   5.191   3.369   5.682  0.1472  0.5682  0.0176
  176ANI     CH 2452   5.284   3.441   5.758  0.3006  0.2197  0.1617
  176ANI     CH 2453   5.408   3.466   5.699 -0.0060  1.0125 -0.1635
  176ANI     CH 2454   5.432   3.437   5.564  0.1533  0.2513  0.0226
  176ANI     CH 2455   5.332   3.380   5.484  0.3004 -0.0528  0.0556
  176ANI     CH 2456   5.214   3.338   5.548  0.3464  0.0026  0.1793
  176ANI     NH 2457   5.074   3.334   5.738  0.1968 -0.2705 -0.3908
  176ANI     HC 2458   5.259   3.478   5.857  1.5729  2.2310 -0.2529
  176ANI     HC 2459   5.489   3.501   5.761  1.0664 -0.2603 -0.8145
  176ANI     HC 2460   5.528   3.460   5.520  0.2449 -0.8566 -0.3561
  176ANI     HC 2461   5.360   3.353   5.384 -0.7417 -2.8917  0.4957
  176ANI     HC 2462   5.146   3.274   5.493 -2.0846  2.3269  0.3934
  176ANI     HN 2463   5.053   3.404   5.807  0.2737 -0.6219 -0.0109
  176ANI     HN 2464   4.998   3.331   5.671  0.5954 -2.4024 -0.7782
  177ANI     CN 2465   5.994   0.729   3.765  0.3539  0.0117  0.4080
  177ANI     CH 2466   5.890   0.823   3.770  0.1635 -0.2025  0.4943
  177ANI     CH 2467   5.829   0.858   3.892 -0.6080 -0.1670  0.0992
  177ANI     CH 2468   5.876   0.795   4.008 -0.1506 -0.3574 -0.1869
  177ANI     CH 2469   5.978   0.699   4.005  0.3603  0.1691  0.1443
  177ANI     CH 2470   6.035   0.663   3.882  0.4000 -0.2062  0.2706
  177ANI     NH 2471   6.050   0.700   3.647  0.1826  0.0470  0.3169
  177ANI     HC 2472   5.845   0.864   3.682  0.3932 -0.1876  0.3827
  177ANI     HC 2473   5.750   0.930   3.882  1.1040  1.9015  1.0388
  177ANI     HC 2474   5.836   0.820   4.105  0.5868 -0.3860  0.1287
  177ANI     HC 2475   6.020   0.654   4.093 -1.1525 -1.9233 -0.1686
  177ANI     HC 2476   6.106   0.582   3.878 -0.4998 -0.9842 -0.0959
  177ANI     HN 2477   6.061   0.782   3.589 -1.1022  0.1658  0.2227
  177ANI     HN 2478   6.147   0.672   3.654  0.1464  0.1073  1.0544
  178ANI     CN 2479   0.651   0.856   0.548 -0.4109  0.0974  0.8256
  178ANI     CH 2480   0.596   0.931   0.443  0.4571  0.3643  0.5564
  178ANI     CH 2481   0.478   0.891   0.380  0.4711  0.3253  0.5554
  178ANI     CH 2482   0.413   0.775   0.425  0.0255  0.2972 -0.1643
  178ANI     CH 2483   0.466   0.705   0.533  0.4084 -0.0760 -0.5922
  178ANI     CH 2484   0.582   0.747   0.601 -0.1032 -0.2950  0.4268
  178ANI     NH 2485   0.771   0.887   0.600  0.3779 -0.5903 -0.5550
  178ANI     HC 2486   0.643   1.020   0.403  0.3899 -0.1906 -0.7575
  178ANI     HC 2487   0.432   0.950   0.303 -0.3657 -1.6804 -0.5327
  178ANI     HC 2488   0.317   0.753   0.379  0.8448  0.1435 -1.8507
  178ANI     HC 2489   0.412   0.618   0.568 -0.1938  0.8033  0.6657
  178ANI     HC 2490   0.632   0.693   0.680 -1.5463 -0.3154  1.3538
  178ANI     HN 2491   0.838   0.920   0.531 -1.3562  1.2392 -1.4088
  178ANI     HN 2492   0.815   0.822   0.663  0.6388  1.0920  1.0404
  179ANI     CN 2493   2.737   1.596   4.278  0.2700  0.3423  0.5829
  179ANI     CH 2494   2.861   1.606   4.214 -0.1161  0.2322 -0.1948
  179ANI     CH 2495   2.894   1.721   4.142 -0.2650 -0.1246 -0.8383
  179ANI     CH 2496   2.801   1.826   4.150  0.1280  0.1762 -0.1113
  179ANI     CH 2497   2.691   1.825   4.236  0.4928  0.5071  0.3571
  179ANI     CH 2498   2.657   1.708   4.304 -0.2008  0.2505 -0.4320
  179ANI     NH 2499   2.701   1.479   4.332  0.0219 -0.0886 -0.5020
  179ANI     HC 2500   2.926   1.520   4.206 -0.2415  0.3892 -3.4135
  179ANI     HC 2501   2.985   1.727   4.085  0.4592 -0.4750  0.2551
  179ANI     HC 2502   2.817   1.905   4.078  1.2518 -0.1866 -0.2685
  179ANI     HC 2503   2.624   1.910   4.240 -0.9319 -0.6532  1.2135
  179ANI     HC 2504   2.563   1.689   4.355  0.4217  0.2581  0.7378
  179ANI     HN 2505   2.662   1.493   4.424  0.5813  0.5956 -0.3682
  179ANI     HN 2506   2.771   1.408   4.348  0.0889 -0.3483 -1.8962
  180ANI     CN 2507   2.482   3.866   4.175  0.0465  0.2028 -0.4408
  180ANI     CH 2508   2.523   3.804   4.293 -0.0352  0.0473 -0.4936
  180ANI     CH 2509   2.559   3.884   4.403  0.3249 -0.4132 -0.2772
  180ANI     CH 2510   2.560   4.023   4.393  0.1777 -0.4120 -0.2670
  180ANI     CH 2511   2.522   4.085   4.273 -0.2270 -0.0513  0.0431
  180ANI     CH 2512   2.478   4.006   4.167 -0.1521  0.2129 -0.1850
  180ANI     NH 2513   2.474   3.783   4.070 -0.1948 -0.2538 -0.0612
  180ANI     HC 2514   2.508   3.697   4.300 -0.6945  0.2683  2.2972
  180ANI     HC 2515   2.587   3.842   4.498  0.4934  0.3028 -0.0071
  180ANI     HC 2516   2.593   4.080   4.479  1.1615  1.6766 -1.9627
  180ANI     HC 2517   2.531   4.192   4.262  1.6996 -0.3323 -1.4112
  180ANI     HC 2518   2.443   4.054   4.076 -0.5751  0.7808  0.2703
  180ANI     HN 2519   2.472   3.819   3.976  0.0264  0.8878  0.3614
  180ANI     HN 2520   2.545   3.712   4.075  0.4625  0.3185 -1.2508
  181ANI     CN 2521   3.162   6.182   5.238  0.2464  0.5873  0.2363
  181ANI     CH 2522   3.063   6.082   5.247  0.2731  0.5742  0.4049
  181ANI     CH 2523   3.094   5.961   5.310 -0.2921  0.2025 -0.0231
  181ANI     CH 2524   3.223   5.936   5.359  0.1330  0.2760 -1.0850
  181ANI     CH 2525   3.323   6.033   5.352  0.2521  0.2219 -0.2355
  181ANI     CH 2526   3.291   6.151   5.284  0.2529  0.4182  0.1046
  181ANI     NH 2527   3.138   6.309   5.203  0.2373  0.4817 -0.1366
  181ANI     HC 2528   2.961   6.101   5.219 -0.7560 -1.9253  2.2746
  181ANI     HC 2529   3.019   5.885   5.325 -0.3142  0.1084 -0.5828
  181ANI     HC 2530   3.239   5.845   5.414 -5.3267  0.0263  0.4199
  181ANI     HC 2531   3.423   6.020   5.391 -0.3769 -3.6871  0.2208
  181ANI     HC 2532   3.362   6.232   5.281  0.8147 -0.0412  0.9674
  181ANI     HN 2533   3.196   6.381   5.244  1.4597 -0.4068 -0.2611
  181ANI     HN 2534   3.039   6.321   5.190  0.0052 -0.9869  0.1327
  182ANI     CN 2535   6.246   0.402   1.894 -0.0288  0.0846 -0.3569
  182ANI     CH 2536   6.383   0.418   1.919  0.0233 -0.0182 -0.5767
  182ANI     CH 2537   6.480   0.337   1.858  0.3409 -0.1181  0.0544
  182ANI     CH 2538   6.439   0.238   1.768 -0.2118  0.1965 -0.0433
  182ANI     CH 2539   6.302   0.229   1.739 -0.0662 -0.1213 -0.6364
  182ANI     CH 2540   6.205   0.315   1.792  0.1414 -0.1334 -0.2386
  182ANI     NH 2541   6.154   0.481   1.951  0.0763  0.2472 -0.4122
  182ANI     HC 2542   6.426   0.484   1.992 -1.3266  0.2212  0.0114
  182ANI     HC 2543   6.583   0.352   1.885  0.1824 -0.6320  0.9492
  182ANI     HC 2544   6.508   0.166   1.726 -1.4081 -1.4962  0.8275
  182ANI     HC 2545   6.267   0.149   1.676  0.3526 -0.5313 -0.3461
  182ANI     HC 2546   6.100   0.313   1.769 -0.4266 -2.1696  2.4176
  182ANI     HN 2547   6.079   0.500   1.886  0.6210 -0.3958 -1.2330
  182ANI     HN 2548   6.190   0.567   1.990 -1.5076 -0.2125  2.1939
  183ANI     CN 2549   4.988   4.570   1.784 -0.2177 -0.9027 -0.2354
  183ANI     CH 2550   4.883   4.482   1.753 -1.2283  0.3651 -0.4520
  183ANI     CH 2551   4.885   4.421   1.627  0.4047 -0.5513  0.0006
  183ANI     CH 2552   4.984   4.450   1.533 -0.3147  0.1995 -0.5388
  183ANI     CH 2553   5.085   4.542   1.562 -0.1307 -0.0384 -0.4139
  183ANI     CH 2554   5.088   4.597   1.691 -0.1885 -0.6774 -0.1400
  183ANI     NH 2555   4.980   4.629   1.905 -0.1845  0.1485 -0.7435
  183ANI     HC 2556   4.803   4.463   1.823  0.0109 -0.0630  0.8762
  183ANI     HC 2557   4.806   4.348   1.613  0.4031 -0.3904 -0.8215
  183ANI     HC 2558   4.983   4.402   1.436  3.0870  1.3987 -1.2451
  183ANI     HC 2559   5.159   4.581   1.493  0.4663 -0.2570  0.0941
  183ANI     HC 2560   5.157   4.673   1.725  0.9455 -1.2700 -1.0572
  183ANI     HN 2561   4.902   4.601   1.963  0.9458  0.6904  1.0560
  183ANI     HN 2562   4.968   4.729   1.899 -0.5614  0.2002  0.8154
  184ANI     CN 2563   2.132   0.870   4.736 -0.0120  0.0985 -0.0580
  184ANI     CH 2564   2.192   0.995   4.754 -0.4505  0.2438  0.3852
  184ANI     CH 2565   2.176   1.093   4.655  0.5876 -0.2624 -0.2856
  184ANI     CH 2566   2.103   1.072   4.538  0.4690 -0.0630 -0.2475
  184ANI     CH 2567   2.062   0.940   4.511  0.4139 -0.1828  0.4164
  184ANI     CH 2568   2.073   0.844   4.612 -0.1560 -0.5381  0.1409
  184ANI     NH 2569   2.125   0.771   4.826  0.5961 -0.3428 -0.4826
  184ANI     HC 2570   2.242   1.019   4.846  1.4763 -0.8823 -0.3354
  184ANI     HC 2571   2.219   1.189   4.679 -0.6238  0.5539 -1.3416
  184ANI     HC 2572   2.082   1.146   4.462 -2.0580  0.9797  1.3995
  184ANI     HC 2573   2.014   0.921   4.416 -1.0249 -1.7928  1.4365
  184ANI     HC 2574   2.036   0.744   4.595  0.9405 -0.5582 -2.4252
  184ANI     HN 2575   2.047   0.709   4.809  0.6921 -0.7223  0.4334
  184ANI     HN 2576   2.123   0.800   4.923  0.8726 -1.4794 -0.1280
  185ANI     CN 2577   4.350   1.296   4.831  0.1040 -0.2565  0.0027
  185ANI     CH 2578   4.486   1.311   4.860  0.0619 -0.4255  0.2885
  185ANI     CH 2579   4.552   1.191   4.892  0.8807 -0.1624 -0.4192
  185ANI     CH 2580   4.497   1.062   4.888  0.3283  0.0770 -0.6504
  185ANI     CH 2581   4.367   1.052   4.837  0.1410  0.0568 -0.1752
  185ANI     CH 2582   4.293   1.169   4.817 -0.2822 -0.1234  0.3553
  185ANI     NH 2583   4.284   1.403   4.784  0.3198 -0.3244 -0.4517
  185ANI     HC 2584   4.535   1.407   4.851 -0.8257  0.0261  0.2729
  185ANI     HC 2585   4.659   1.199   4.907  0.6362 -0.3672  1.5405
  185ANI     HC 2586   4.558   0.978   4.917 -0.9329 -0.4760  0.4324
  185ANI     HC 2587   4.321   0.955   4.822 -0.8527  0.6814 -1.2490
  185ANI     HC 2588   4.191   1.151   4.786  0.2518 -2.3762 -0.1837
  185ANI     HN 2589   4.282   1.404   4.683 -1.1193 -0.5415 -0.4273
  185ANI     HN 2590   4.343   1.484   4.800 -0.8221  0.5494 -0.5965
  186ANI     CN 2591   2.016   3.212   4.595  0.8378 -0.1024  0.1859
  186ANI     CH 2592   2.010   3.080   4.550  0.4887 -0.1809  0.4656
  186ANI     CH 2593   1.914   2.988   4.596  0.6201 -0.1078  0.8855
  186ANI     CH 2594   1.811   3.028   4.681 -0.0858 -0.0280  0.0011
  186ANI     CH 2595   1.816   3.160   4.729 -0.2100 -0.0811  0.1614
  186ANI     CH 2596   1.913   3.249   4.683  0.5522 -0.8924  0.1909
  186ANI     NH 2597   2.090   3.304   4.531  0.7167  0.5104  0.9202
  186ANI     HC 2598   2.082   3.036   4.483 -0.2756 -2.7246  1.2357
  186ANI     HC 2599   1.921   2.886   4.561 -1.7906  0.0878 -0.2592
  186ANI     HC 2600   1.735   2.959   4.715 -0.1680  0.9688  1.9090
  186ANI     HC 2601   1.739   3.201   4.793 -1.3534  0.5565 -1.5808
  186ANI     HC 2602   1.916   3.351   4.718 -0.5920 -0.7488 -0.1277
  186ANI     HN 2603   2.174   3.268   4.489 -0.6729 -2.0227  0.1916
  186ANI     HN 2604   2.123   3.388   4.576  2.1012  0.3046  0.2986
  187ANI     CN 2605   0.126   0.737   2.646 -0.0181  0.0278 -0.0475
  187ANI     CH 2606   0.063   0.619   2.604  0.2099  0.0997 -0.5913
  187ANI     CH 2607   0.145   0.514   2.562 -0.0915 -0.4609  0.2163
  187ANI     CH 2608   0.283   0.533   2.545 -0.2133  0.0880 -0.1753
  187ANI     CH 2609   0.342   0.652   2.589 -0.4202  0.0614  0.1815
  187ANI     CH 2610   0.265   0.752   2.649 -0.0697  0.5434 -0.1607
  187ANI     NH 2611   0.055   0.828   2.715  0.0602  0.1353 -0.1105
  187ANI     HC 2612  -0.043   0.609   2.622  0.6883 -1.1810  1.5664
  187ANI     HC 2613   0.098   0.420   2.537  2.9975 -2.0096  0.0008
  187ANI     HC 2614   0.341   0.448   2.513  0.3746  1.3091 -2.4013
  187ANI     HC 2615   0.450   0.660   2.590 -0.4140  0.2286 -0.8306
  187ANI     HC 2616   0.312   0.827   2.712  1.0728 -0.8509  0.6839
  187ANI     HN 2617  -0.044   0.814   2.719 -0.1176  1.7610  1.7923
  187ANI     HN 2618   0.066   0.926   2.692 -0.8506 -0.1668 -1.9398
  188ANI     CN 2619   4.461   1.450   2.086 -0.1945 -0.1274  1.0460
  188ANI     CH 2620   4.543   1.558   2.121 -0.2530  0.0638  0.5887
  188ANI     CH 2621   4.486   1.686   2.115  0.4551  0.3317 -0.7207
  188ANI     CH 2622   4.360   1.707   2.058  0.0510  0.3432  0.1787
  188ANI     CH 2623   4.286   1.596   2.015  0.2053  0.3507 -0.1090
  188ANI     CH 2624   4.330   1.465   2.040  0.1947  0.3857  0.0959
  188ANI     NH 2625   4.500   1.325   2.112 -0.0520 -0.2367  0.2974
  188ANI     HC 2626   4.645   1.544   2.155 -0.2673 -3.2951 -0.5567
  188ANI     HC 2627   4.531   1.778   2.150  1.5911  0.8982 -3.4750
  188ANI     HC 2628   4.324   1.808   2.044  0.1142  0.8116  3.1167
  188ANI     HC 2629   4.196   1.605   1.956  0.3890  0.4257 -0.3769
  188ANI     HC 2630   4.263   1.381   2.026 -0.1896  0.6520  0.3060
  188ANI     HN 2631   4.425   1.258   2.119 -1.9425  1.6585 -1.4986
  188ANI     HN 2632   4.551   1.316   2.199 -1.0326  0.8944  1.0112
  189ANI     CN 2633   2.861   5.988   1.325 -0.2653  0.4584 -0.3556
  189ANI     CH 2634   2.749   6.030   1.398 -0.0947 -0.1189  0.2463
  189ANI     CH 2635   2.771   6.135   1.488  0.1048  0.3187 -0.3112
  189ANI     CH 2636   2.896   6.191   1.516  0.1274 -0.1683  0.5866
  189ANI     CH 2637   3.003   6.140   1.441 -0.1297  0.1602 -0.0088
  189ANI     CH 2638   2.990   6.036   1.349 -0.2098  0.0885  0.0825
  189ANI     NH 2639   2.837   5.911   1.218 -0.3460 -0.4533  0.3070
  189ANI     HC 2640   2.649   5.994   1.377 -0.2768 -0.4421  1.6129
  189ANI     HC 2641   2.686   6.175   1.541  1.2560  2.6917 -0.1883
  189ANI     HC 2642   2.897   6.273   1.587 -0.4563  1.4193 -1.1875
  189ANI     HC 2643   3.102   6.180   1.453  1.0647 -2.2743 -1.4747
  189ANI     HC 2644   3.066   5.996   1.283 -0.9611 -0.6263 -0.3564
  189ANI     HN 2645   2.750   5.938   1.173  1.4335 -0.4318 -3.3188
  189ANI     HN 2646   2.907   5.930   1.148 -1.0521  0.0809 -0.2593
  190ANI     CN 2647   0.923   3.762   1.430 -0.4292 -0.1026 -0.1561
  190ANI     CH 2648   0.815   3.806   1.507 -0.1924  0.5186 -0.1757
  190ANI     CH 2649   0.710   3.882   1.454 -0.3538  0.2928 -0.1771
  190ANI     CH 2650   0.709   3.906   1.316  0.1287 -0.6806 -0.3543
  190ANI     CH 2651   0.816   3.864   1.236 -0.1630 -0.0036 -1.1050
  190ANI     CH 2652   0.924   3.796   1.294 -0.6930 -0.0309 -0.1390
  190ANI     NH 2653   1.015   3.676   1.475 -0.5503 -0.2511 -0.1922
  190ANI     HC 2654   0.814   3.778   1.611 -0.5861 -1.0898 -0.6041
  190ANI     HC 2655   0.623   3.907   1.513  0.4982  1.0449  0.7730
  190ANI     HC 2656   0.623   3.952   1.270  1.1696  0.0640 -1.5971
  190ANI     HC 2657   0.811   3.887   1.131  2.0765  0.9680 -1.0122
  190ANI     HC 2658   0.995   3.748   1.228 -1.2183 -0.3373 -0.4859
  190ANI     HN 2659   1.104   3.694   1.430 -0.6006 -0.1509 -0.2519
  190ANI     HN 2660   1.032   3.674   1.575  0.8349  0.4772 -0.3986
  191ANI     CN 2661   0.317   3.737   3.793  0.2810  0.3467 -0.2351
  191ANI     CH 2662   0.441   3.714   3.733  0.1814  0.0968 -0.3468
  191ANI     CH 2663   0.459   3.611   3.640 -0.3774 -0.0097 -0.3408
  191ANI     CH 2664   0.355   3.522   3.614 -0.6105  0.1392  0.0779
  191ANI     CH 2665   0.227   3.550   3.664 -0.7548 -0.4949  0.0701
  191ANI     CH 2666   0.209   3.659   3.751  0.5523 -0.0351 -0.2207
  191ANI     NH 2667   0.301   3.840   3.877 -0.0750  0.2065 -0.1269
  191ANI     HC 2668   0.519   3.786   3.752 -1.5583  2.3332 -1.4710
  191ANI     HC 2669   0.562   3.593   3.612 -0.0519  2.5570 -0.9063
  191ANI     HC 2670   0.362   3.434   3.552 -0.0221  1.0845 -1.2267
  191ANI     HC 2671   0.154   3.473   3.641 -0.6477 -0.1957 -1.3041
  191ANI     HC 2672   0.112   3.669   3.797  1.0973  3.5015  0.2307
  191ANI     HN 2673   0.215   3.846   3.929  0.0388  0.9831 -0.0154
  191ANI     HN 2674   0.384   3.848   3.934 -0.8826  0.6687  1.0148
  192ANI     CN 2675   5.804   0.047   0.953  0.0446  0.1854  0.3351
  192ANI     CH 2676   5.772  -0.074   1.016 -0.3233  0.2241  0.2197
  192ANI     CH 2677   5.774  -0.190   0.937  0.1809  0.2560  0.1859
  192ANI     CH 2678   5.808  -0.182   0.802 -0.0834 -0.4128  0.0739
  192ANI     CH 2679   5.835  -0.059   0.740 -0.1367 -0.4358  0.0033
  192ANI     CH 2680   5.841   0.056   0.819  0.0500 -0.6326  0.2758
  192ANI     NH 2681   5.805   0.159   1.027 -0.1721  0.1673  0.3651
  192ANI     HC 2682   5.742  -0.080   1.119  0.6552 -1.1180  0.4368
  192ANI     HC 2683   5.778  -0.289   0.982 -1.7630  0.7445  1.5128
  192ANI     HC 2684   5.826  -0.271   0.744  1.4100 -1.9249  2.7711
  192ANI     HC 2685   5.838  -0.049   0.632  0.0805  0.9796  0.1299
  192ANI     HC 2686   5.865   0.151   0.774 -2.4063 -1.5125 -3.0903
  192ANI     HN 2687   5.769   0.241   0.981 -1.7963  0.0083  1.3167
  192ANI     HN 2688   5.743   0.149   1.106 -0.2742 -0.7838  0.1770
  193ANI     CN 2689   4.656   0.658   4.406 -0.4854  0.1425 -0.3444
  193ANI     CH 2690   4.599   0.676   4.533 -0.4510 -0.0405 -0.3028
  193ANI     CH 2691   4.519   0.788   4.560 -0.8424 -0.4091  0.0725
  193ANI     CH 2692   4.494   0.874   4.453  0.4556  0.5125  0.4954
  193ANI     CH 2693   4.552   0.858   4.327 -0.4456  0.0323  0.1372
  193ANI     CH 2694   4.631   0.745   4.300  1.0730  1.0995  0.0574
  193ANI     NH 2695   4.741   0.557   4.384  0.1012  0.6543 -0.4349
  193ANI     HC 2696   4.613   0.611   4.618 -1.5738  0.8388  0.5621
  193ANI     HC 2697   4.483   0.800   4.661  0.0038  2.2032  0.1042
  193ANI     HC 2698   4.428   0.958   4.470  0.7119  0.5107  1.5434
  193ANI     HC 2699   4.512   0.922   4.250 -2.1405 -0.7049  0.3910
  193ANI     HC 2700   4.670   0.733   4.200  1.3428  1.4216  0.1227
  193ANI     HN 2701   4.799   0.563   4.301  1.2566 -1.4570  0.1627
  193ANI     HN 2702   4.784   0.504   4.459  0.0359  1.6794  0.3325
  194ANI     CN 2703   5.332   2.993   0.979 -0.0300 -0.2178 -0.1045
  194ANI     CH 2704   5.303   2.859   0.951 -0.0674 -0.2184 -0.0631
  194ANI     CH 2705   5.387   2.791   0.862  0.1498 -0.4133  0.2902
  194ANI     CH 2706   5.502   2.852   0.812 -0.0634 -0.0695  0.2223
  194ANI     CH 2707   5.532   2.985   0.845  0.4111 -0.0844 -0.1275
  194ANI     CH 2708   5.446   3.057   0.929  0.7403 -0.8278  0.8562
  194ANI     NH 2709   5.239   3.060   1.049 -0.0477 -0.1439 -0.1972
  194ANI     HC 2710   5.214   2.803   0.974 -1.4185  1.5520 -0.8736
  194ANI     HC 2711   5.358   2.689   0.845  0.1739 -0.3772  0.0372
  194ANI     HC 2712   5.559   2.791   0.743 -0.3263 -0.4169  0.3138
  194ANI     HC 2713   5.621   3.034   0.808 -0.3410  2.8423  1.7219
  194ANI     HC 2714   5.474   3.157   0.961 -1.1190 -0.7637  2.4145
  194ANI     HN 2715   5.191   2.985   1.097  1.2693 -0.5858  0.4581
  194ANI     HN 2716   5.290   3.116   1.116 -2.0988  0.7591  0.6355
  195ANI     CN 2717   0.703   1.207   3.219 -0.0255 -0.3508 -0.4120
  195ANI     CH 2718   0.822   1.269   3.260 -0.4599  0.1429  0.1097
  195ANI     CH 2719   0.824   1.409   3.271 -0.0956  0.1273  0.2351
  195ANI     CH 2720   0.710   1.483   3.238 -0.1871 -0.3409 -0.5318
  195ANI     CH 2721   0.590   1.419   3.205 -0.4143 -0.1897 -0.0169
  195ANI     CH 2722   0.588   1.280   3.189 -0.0951 -0.2167  0.1688
  195ANI     NH 2723   0.696   1.073   3.223 -0.1392 -0.3249  0.2733
  195ANI     HC 2724   0.908   1.211   3.288 -1.2990 -0.7138  0.9243
  195ANI     HC 2725   0.921   1.452   3.294 -0.3864  1.1416 -0.3945
  195ANI     HC 2726   0.722   1.590   3.237 -2.7357 -0.0426 -1.4532
  195ANI     HC 2727   0.500   1.477   3.189 -2.3422 -2.4971  2.0880
  195ANI     HC 2728   0.495   1.228   3.172 -0.0993 -0.9308  2.3232
  195ANI     HN 2729   0.740   1.021   3.297 -2.8494 -1.0700  1.4356
  195ANI     HN 2730   0.603   1.041   3.202 -0.5083 -0.6300  2.2677
  196ANI     CN 2731   4.203   5.155   1.469 -0.2167 -0.2017  0.1763
  196ANI     CH 2732   4.292   5.080   1.548  0.3761  0.2959 -0.0222
  196ANI     CH 2733   4.270   5.065   1.685  0.2751 -0.1387 -0.0861
  196ANI     CH 2734   4.156   5.125   1.741  0.3465  0.1324 -0.2252
  196ANI     CH 2735   4.068   5.197   1.660 -0.2097 -0.1687  0.1127
  196ANI     CH 2736   4.089   5.216   1.523  0.0447  0.2629  0.2104
  196ANI     NH 2737   4.214   5.175   1.338  0.0819  0.2888  0.2771
  196ANI     HC 2738   4.379   5.032   1.507  2.5568  2.2819  2.1346
  196ANI     HC 2739   4.335   5.002   1.743 -1.9046 -0.7679  1.7412
  196ANI     HC 2740   4.141   5.109   1.847 -1.8994  1.8178 -0.2539
  196ANI     HC 2741   3.984   5.244   1.711  0.5931  0.6733  0.6621
  196ANI     HC 2742   4.023   5.287   1.476 -0.3915 -0.8961 -0.9628
  196ANI     HN 2743   4.122   5.171   1.296  0.1528 -0.5921  0.1941
  196ANI     HN 2744   4.261   5.102   1.286  1.5584 -0.1581  2.1738
  197ANI     CN 2745   1.794   2.936   3.094 -0.1879 -0.3194  0.1419
  197ANI     CH 2746   1.814   3.071   3.128 -0.5396 -0.1992 -0.1314
  197ANI     CH 2747   1.836   3.113   3.260 -0.4631 -0.4258 -0.0724
  197ANI     CH 2748   1.850   3.013   3.357 -0.4412 -0.0808  0.2795
  197ANI     CH 2749   1.842   2.878   3.324 -0.3042 -0.0205 -0.0042
  197ANI     CH 2750   1.809   2.838   3.193 -0.6307 -0.3513  0.1772
  197ANI     NH 2751   1.789   2.894   2.967  0.0065  0.4035 -0.1082
  197ANI     HC 2752   1.801   3.138   3.044  0.1842 -0.5582 -0.5266
  197ANI     HC 2753   1.843   3.220   3.276 -1.0735 -0.1870 -1.2966
  197ANI     HC 2754   1.878   3.032   3.460  0.7267 -1.5813  0.2548
  197ANI     HC 2755   1.860   2.806   3.402  2.7186  0.1792 -0.4431
  197ANI     HC 2756   1.801   2.735   3.164 -0.3764 -0.0787 -0.8655
  197ANI     HN 2757   1.727   2.818   2.947  1.0592 -0.1263 -1.4245
  197ANI     HN 2758   1.752   2.966   2.907  0.6167  1.5398  0.8492
  198ANI     CN 2759   5.697   4.963   6.228 -0.1281  0.1191 -0.0237
  198ANI     CH 2760   5.559   4.938   6.228 -0.1280  0.1267 -0.1359
  198ANI     CH 2761   5.502   4.837   6.149  0.0998 -0.0704 -0.0492
  198ANI     CH 2762   5.585   4.751   6.076 -0.2110 -0.7244  0.3596
  198ANI     CH 2763   5.724   4.773   6.083 -0.3000 -0.1930  0.5079
  198ANI     CH 2764   5.781   4.878   6.156 -0.2075  0.5051 -0.5724
  198ANI     NH 2765   5.741   5.061   6.309  0.4137 -0.1641  0.0284
  198ANI     HC 2766   5.495   5.004   6.283 -0.0999  0.7576 -0.8444
  198ANI     HC 2767   5.396   4.823   6.157  0.4274 -2.5245  0.3308
  198ANI     HC 2768   5.547   4.667   6.020 -0.5775 -0.6662  0.5229
  198ANI     HC 2769   5.796   4.710   6.033  0.7090  1.3516  0.0042
  198ANI     HC 2770   5.888   4.888   6.166  0.0585 -0.3452 -2.3268
  198ANI     HN 2771   5.676   5.139   6.310 -0.1263 -0.5928 -0.8462
  198ANI     HN 2772   5.835   5.090   6.287  1.1223 -3.7367 -2.0985
  199ANI     CN 2773   5.000   0.846   5.432 -0.1954  0.0589  0.1849
  199ANI     CH 2774   4.924   0.734   5.395  0.0788 -0.0859  0.0485
  199ANI     CH 2775   4.809   0.748   5.317  0.4596  0.0523 -0.4875
  199ANI     CH 2776   4.782   0.869   5.252 -0.1844  0.0864 -0.1599
  199ANI     CH 2777   4.860   0.981   5.281 -0.1035 -0.0127 -0.0002
  199ANI     CH 2778   4.959   0.969   5.380 -0.2663  0.0287  0.1685
  199ANI     NH 2779   5.090   0.839   5.531  0.2838  0.0191 -0.2536
  199ANI     HC 2780   4.951   0.639   5.438 -0.4354 -0.2750 -0.0445
  199ANI     HC 2781   4.755   0.660   5.285 -2.4655  1.8948 -0.8902
  199ANI     HC 2782   4.694   0.867   5.188 -0.7659 -0.5280  0.6472
  199ANI     HC 2783   4.824   1.071   5.234  0.9801 -0.3244 -1.4583
  199ANI     HC 2784   5.011   1.058   5.414 -2.0452  0.2139  2.5411
  199ANI     HN 2785   5.166   0.902   5.509 -0.7082  1.2198 -0.2782
  199ANI     HN 2786   5.135   0.751   5.550 -2.5711 -1.7017 -1.3424
  200ANI     CN 2787   4.513   4.522   1.026  0.0117  0.0237 -0.2620
  200ANI     CH 2788   4.565   4.519   0.896  0.1915 -0.1559 -0.1855
  200ANI     CH 2789   4.670   4.607   0.870 -0.6989  0.8846 -0.2922
  200ANI     CH 2790   4.716   4.703   0.961  0.7764  0.3906 -0.5052
  200ANI     CH 2791   4.661   4.706   1.090 -0.2258 -0.1877 -0.9168
  200ANI     CH 2792   4.561   4.613   1.121  0.3068 -0.4423  0.0371
  200ANI     NH 2793   4.413   4.440   1.062 -0.3587  0.7448  0.3847
  200ANI     HC 2794   4.548   4.438   0.827 -1.4185  0.8206 -0.9585
  200ANI     HC 2795   4.713   4.614   0.771 -0.0024  1.0462  0.0221
  200ANI     HC 2796   4.794   4.773   0.933  0.5056  0.7991 -0.2298
  200ANI     HC 2797   4.684   4.788   1.156  0.0147 -0.3709 -0.7749
  200ANI     HC 2798   4.519   4.621   1.220 -1.8591  0.0622 -0.8850
  200ANI     HN 2799   4.437   4.343   1.071  1.2046  1.1992  1.1674
  200ANI     HN 2800   4.378   4.468   1.152  1.0181  1.1752  0.8011
  201ANI     CN 2801   1.968   4.293   2.706 -0.3362 -0.1847 -0.9661
  201ANI     CH 2802   1.934   4.347   2.831  0.4467  0.1872 -0.9151
  201ANI     CH 2803   1.882   4.477   2.835  0.1430  0.0369  0.0751
  201ANI     CH 2804   1.874   4.557   2.720  0.0162  0.2052  0.2003
  201ANI     CH 2805   1.931   4.509   2.602 -0.2064  0.2723  0.0664
  201ANI     CH 2806   1.966   4.374   2.592 -0.2266  0.3113 -0.6134
  201ANI     NH 2807   2.022   4.170   2.712 -0.5243 -0.1986  0.8638
  201ANI     HC 2808   1.951   4.289   2.920  1.0965 -0.4519 -1.4521
  201ANI     HC 2809   1.837   4.513   2.926  0.8988  1.0483  0.0554
  201ANI     HC 2810   1.832   4.656   2.731 -0.7914 -0.1563  0.4893
  201ANI     HC 2811   1.949   4.574   2.517  1.5537 -0.3793 -0.0776
  201ANI     HC 2812   1.990   4.330   2.497  0.6585  1.6512 -1.0345
  201ANI     HN 2813   2.017   4.118   2.625 -0.2785  0.2991  0.5504
  201ANI     HN 2814   1.992   4.113   2.790  1.0804 -2.9005 -0.4238
  202ANI     CN 2815   0.602   6.065   4.472 -0.3028  0.4623  0.3589
  202ANI     CH 2816   0.697   6.037   4.374  0.2860  0.2804  0.9779
  202ANI     CH 2817   0.732   5.903   4.353 -0.1464  0.2961  0.1239
  202ANI     CH 2818   0.660   5.797   4.409  0.2798  0.1371  0.3800
  202ANI     CH 2819   0.561   5.828   4.503  0.1016 -0.1466  0.2844
  202ANI     CH 2820   0.534   5.961   4.537  0.2608 -0.0674  0.0987
  202ANI     NH 2821   0.558   6.188   4.502 -0.3234  0.3194  0.9317
  202ANI     HC 2822   0.747   6.117   4.321  1.2109 -1.2678 -0.5402
  202ANI     HC 2823   0.818   5.880   4.292 -1.5733 -1.3643 -1.2951
  202ANI     HC 2824   0.694   5.697   4.387 -0.1360  0.2434 -0.8389
  202ANI     HC 2825   0.513   5.748   4.558 -0.3584 -0.4424 -0.5392
  202ANI     HC 2826   0.458   5.977   4.611  1.2650  0.2358  1.0698
  202ANI     HN 2827   0.548   6.201   4.601 -1.1452  1.5317  0.7042
  202ANI     HN 2828   0.600   6.266   4.453  0.6112 -0.2868  0.7560
  203ANI     CN 2829   2.777   5.958   3.677 -0.2483 -0.1807 -0.2961
  203ANI     CH 2830   2.771   5.885   3.796  0.4535 -0.0724 -0.1891
  203ANI     CH 2831   2.822   5.754   3.804  0.1541 -0.1676  0.1431
  203ANI     CH 2832   2.884   5.704   3.690 -0.3551 -0.1919 -0.1244
  203ANI     CH 2833   2.902   5.779   3.573  0.2315  0.1492  0.1780
  203ANI     CH 2834   2.844   5.907   3.565  0.8564  0.4283  0.0712
  203ANI     NH 2835   2.725   6.081   3.661 -0.1530 -0.0254  0.5530
  203ANI     HC 2836   2.722   5.935   3.878 -2.0959 -0.1309 -1.6181
  203ANI     HC 2837   2.806   5.699   3.896  0.1145  0.5589  0.5786
  203ANI     HC 2838   2.918   5.602   3.687 -2.6595 -0.9482 -2.4544
  203ANI     HC 2839   2.946   5.735   3.485  0.5344 -2.6143  1.6612
  203ANI     HC 2840   2.855   5.969   3.478 -0.7416 -1.7753 -1.7692
  203ANI     HN 2841   2.720   6.108   3.564 -0.5974 -0.6575  0.3925
  203ANI     HN 2842   2.629   6.075   3.693 -1.1837 -0.5331 -2.4753
  204ANI     CN 2843   5.694   0.611   1.897 -0.1049  0.0142 -0.0492
  204ANI     CH 2844   5.615   0.696   1.818 -0.1578 -0.0219 -0.0362
  204ANI     CH 2845   5.671   0.786   1.726  0.2251 -0.4399 -0.2117
  204ANI     CH 2846   5.810   0.801   1.720  0.1365  0.2489 -0.5103
  204ANI     CH 2847   5.888   0.719   1.803 -0.1402  0.0671 -0.4296
  204ANI     CH 2848   5.833   0.625   1.890 -0.1471  0.5241  0.0669
  204ANI     NH 2849   5.627   0.514   1.961 -0.3573 -0.1340 -0.5362
  204ANI     HC 2850   5.508   0.691   1.828 -0.0453 -0.7469  0.8250
  204ANI     HC 2851   5.602   0.842   1.665  0.3515  0.5876  0.5787
  204ANI     HC 2852   5.857   0.867   1.649  0.2030  0.7142 -0.0425
  204ANI     HC 2853   5.994   0.719   1.785 -0.0218  0.4817  0.2781
  204ANI     HC 2854   5.899   0.555   1.940 -0.6813  0.1163  0.2075
  204ANI     HN 2855   5.532   0.526   1.992 -0.4072 -0.6579 -0.4851
  204ANI     HN 2856   5.693   0.473   2.026  0.7321  0.8612 -1.0078
  205ANI     CN 2857   2.978   2.795   1.328  0.3650  0.2793 -0.6087
  205ANI     CH 2858   2.947   2.930   1.350  0.4591  0.2288 -0.1608
  205ANI     CH 2859   3.044   3.030   1.362  0.0858  0.4932  0.6827
  205ANI     CH 2860   3.178   2.989   1.369 -0.0129  0.1114  0.3711
  205ANI     CH 2861   3.209   2.853   1.357  0.0440  0.1039  0.5934
  205ANI     CH 2862   3.112   2.755   1.333  0.2849  0.0607 -0.2153
  205ANI     NH 2863   2.880   2.705   1.312  0.3616  0.1195  0.2685
  205ANI     HC 2864   2.842   2.957   1.355  0.7026  0.8696  1.7340
  205ANI     HC 2865   3.022   3.135   1.361  0.6287  0.6474  2.5884
  205ANI     HC 2866   3.250   3.069   1.364  0.1238  0.2060  2.8708
  205ANI     HC 2867   3.312   2.824   1.368  0.1791  0.9092  1.4579
  205ANI     HC 2868   3.146   2.654   1.313 -2.9711 -0.9731 -0.8604
  205ANI     HN 2869   2.920   2.642   1.244 -2.4182  0.6867 -2.0177
  205ANI     HN 2870   2.793   2.730   1.266  1.0694 -1.2767 -1.9497
  206ANI     CN 2871   5.484   1.642   3.757  0.3242  0.5166 -0.0260
  206ANI     CH 2872   5.391   1.729   3.699  0.1409  0.0861 -0.3837
  206ANI     CH 2873   5.303   1.803   3.779  0.4140  0.1104 -0.1002
  206ANI     CH 2874   5.309   1.793   3.918  0.1502  0.1489 -0.0860
  206ANI     CH 2875   5.401   1.706   3.978  0.5535  0.2891 -0.4998
  206ANI     CH 2876   5.483   1.628   3.897  0.7426  0.0433 -0.0708
  206ANI     NH 2877   5.562   1.559   3.686 -0.0554  0.1247  0.0151
  206ANI     HC 2878   5.398   1.741   3.592 -0.8431  1.5716 -0.2917
  206ANI     HC 2879   5.232   1.869   3.731 -0.9764 -0.7015  0.8216
  206ANI     HC 2880   5.243   1.849   3.983 -0.3827 -1.3550  0.6888
  206ANI     HC 2881   5.412   1.702   4.085  1.1390 -1.4038 -0.6122
  206ANI     HC 2882   5.541   1.555   3.951 -0.1409 -1.0497 -0.5782
  206ANI     HN 2883   5.593   1.603   3.601 -0.3474 -0.3199 -0.3256
  206ANI     HN 2884   5.643   1.545   3.744 -0.0767  2.7900  0.7632
  207ANI     CN 2885   2.875   5.664   1.631 -0.2011 -0.3469  0.5367
  207ANI     CH 2886   2.872   5.799   1.668 -0.2390 -0.2100  0.0397
  207ANI     CH 2887   2.751   5.855   1.710 -0.1494  0.0518 -0.0507
  207ANI     CH 2888   2.633   5.779   1.712 -0.2178  0.1266 -0.9385
  207ANI     CH 2889   2.634   5.645   1.671  0.1444 -0.0481 -0.3648
  207ANI     CH 2890   2.757   5.588   1.636  0.0033 -0.6867  0.1753
  207ANI     NH 2891   2.991   5.604   1.602 -0.3607 -0.2689 -0.2602
  207ANI     HC 2892   2.964   5.855   1.656  0.6136 -1.3608  1.0919
  207ANI     HC 2893   2.758   5.956   1.747  1.2368 -0.6382  1.6249
  207ANI     HC 2894   2.544   5.829   1.747  1.9735  2.1287  1.9972
  207ANI     HC 2895   2.542   5.589   1.666 -0.3495  0.7334 -0.1677
  207ANI     HC 2896   2.753   5.484   1.607 -2.4438  0.2750 -3.3248
  207ANI     HN 2897   3.080   5.651   1.597  0.0548 -0.9618  0.5440
  207ANI     HN 2898   2.988   5.535   1.528 -0.2185  0.4235 -0.9206
  208ANI     CN 2899   1.403   0.228   2.647 -0.1882  0.3853  0.1518
  208ANI     CH 2900   1.475   0.127   2.581 -0.6045 -0.0985  0.4356
  208ANI     CH 2901   1.536   0.025   2.655 -0.0187 -0.2571 -0.2604
  208ANI     CH 2902   1.506   0.009   2.791  0.0155 -0.1066 -0.2362
  208ANI     CH 2903   1.429   0.107   2.855  0.3213 -0.2484  0.3464
  208ANI     CH 2904   1.376   0.215   2.784  0.5016 -0.2359  0.2335
  208ANI     NH 2905   1.363   0.335   2.577 -0.5107  0.3048  0.2126
  208ANI     HC 2906   1.492   0.125   2.474 -0.5346  1.2431  0.4109
  208ANI     HC 2907   1.604  -0.039   2.600 -1.2828 -0.2421 -1.9157
  208ANI     HC 2908   1.540  -0.079   2.842 -1.1971 -0.0359  0.7215
  208ANI     HC 2909   1.406   0.104   2.961 -1.1043  1.3668  0.1176
  208ANI     HC 2910   1.329   0.294   2.840  0.2811 -0.3634  0.2279
  208ANI     HN 2911   1.437   0.395   2.546  1.3132 -2.1435 -0.3695
  208ANI     HN 2912   1.298   0.394   2.627  0.1366 -0.7651  2.3704
  209ANI     CN 2913   4.106   6.204   4.648  0.2518 -0.0031  0.3466
  209ANI     CH 2914   4.004   6.273   4.582  0.4475 -0.0832 -0.0410
  209ANI     CH 2915   4.038   6.358   4.476  0.1501  0.1223  0.0251
  209ANI     CH 2916   4.173   6.381   4.447  0.1112  0.3827  0.0475
  209ANI     CH 2917   4.275   6.311   4.514 -0.0620  0.1069  0.0224
  209ANI     CH 2918   4.241   6.223   4.618  0.1606 -0.3243 -0.2695
  209ANI     NH 2919   4.073   6.133   4.757 -0.7636 -0.0518  0.0149
  209ANI     HC 2920   3.899   6.260   4.604  1.1005 -1.3819  2.4545
  209ANI     HC 2921   3.965   6.420   4.427  1.1473 -0.4166 -2.2177
  209ANI     HC 2922   4.208   6.457   4.379 -2.0821  1.3652 -0.0061
  209ANI     HC 2923   4.374   6.334   4.479 -0.4608  1.1563 -0.4524
  209ANI     HC 2924   4.319   6.173   4.672 -0.3920 -0.6820  0.1969
  209ANI     HN 2925   3.996   6.079   4.719 -2.4636  1.3656  1.3985
  209ANI     HN 2926   4.144   6.069   4.791 -1.0875 -0.4057  0.0282
  210ANI     CN 2927   3.952   4.966   3.129  0.4034  0.8007 -0.0057
  210ANI     CH 2928   3.881   4.954   3.009  0.2605  0.5691  0.1043
  210ANI     CH 2929   3.797   5.054   2.959 -0.1235  0.2272  0.0557
  210ANI     CH 2930   3.778   5.172   3.032 -0.0213  0.5062 -0.3616
  210ANI     CH 2931   3.846   5.180   3.154 -0.3812 -0.1410 -0.1161
  210ANI     CH 2932   3.933   5.082   3.205 -0.1923  0.3576  0.5193
  210ANI     NH 2933   4.040   4.874   3.171  0.0038  0.3328 -0.2024
  210ANI     HC 2934   3.906   4.867   2.951  1.5454  1.7918 -1.1953
  210ANI     HC 2935   3.749   5.044   2.863 -0.2842 -0.5183  0.2086
  210ANI     HC 2936   3.708   5.246   2.997 -0.6865 -1.2555 -2.9178
  210ANI     HC 2937   3.842   5.270   3.213  0.2987 -0.1771 -0.0070
  210ANI     HC 2938   3.989   5.102   3.295  2.0153  0.3585 -0.8257
  210ANI     HN 2939   3.999   4.784   3.147  1.4299  0.2493 -2.4402
  210ANI     HN 2940   4.053   4.872   3.271 -2.4774 -2.0130  0.1517
  211ANI     CN 2941   2.590   0.082   2.624 -0.3399  0.4953  0.3643
  211ANI     CH 2942   2.624  -0.013   2.721  0.1367 -0.0533 -0.3361
  211ANI     CH 2943   2.567  -0.141   2.717  0.2572 -0.1026 -0.4575
  211ANI     CH 2944   2.458  -0.162   2.632 -0.2769  0.1942  0.1476
  211ANI     CH 2945   2.416  -0.064   2.541  0.1253 -0.1113 -0.3738
  211ANI     CH 2946   2.482   0.060   2.539  0.2965 -0.1988 -0.2710
  211ANI     NH 2947   2.653   0.200   2.623  0.1808  0.2197  0.0445
  211ANI     HC 2948   2.701   0.013   2.792 -0.5039  2.4882 -0.5375
  211ANI     HC 2949   2.596  -0.218   2.787  0.4051  1.3586  1.1128
  211ANI     HC 2950   2.413  -0.261   2.633  1.3615 -0.5715  2.0775
  211ANI     HC 2951   2.331  -0.078   2.476 -0.1710 -0.2293  0.0375
  211ANI     HC 2952   2.464   0.135   2.463  2.6529  0.3229 -0.3237
  211ANI     HN 2953   2.617   0.246   2.706  0.9764  0.7161  0.1205
  211ANI     HN 2954   2.606   0.245   2.546 -0.5687 -1.0735 -0.2574
  212ANI     CN 2955   6.250   2.534   4.194 -0.3413 -0.1824 -0.2090
  212ANI     CH 2956   6.229   2.663   4.143 -0.1550 -0.2676 -0.4995
  212ANI     CH 2957   6.101   2.702   4.104 -0.2569  0.1074  0.2083
  212ANI     CH 2958   5.997   2.608   4.107 -0.3904  0.2597  0.4166
  212ANI     CH 2959   6.020   2.478   4.153  0.3603 -0.1125 -0.9800
  212ANI     CH 2960   6.148   2.439   4.195 -0.0709 -0.4680  0.0164
  212ANI     NH 2961   6.377   2.498   4.216 -0.2524  0.3407  0.1474
  212ANI     HC 2962   6.314   2.730   4.144 -0.6726  0.4397 -1.9883
  212ANI     HC 2963   6.077   2.798   4.059 -0.4974 -0.2182 -0.3579
  212ANI     HC 2964   5.898   2.643   4.081 -0.1419  0.1396 -0.7119
  212ANI     HC 2965   5.944   2.402   4.145  2.2506 -1.9855 -1.4389
  212ANI     HC 2966   6.167   2.339   4.234 -0.5453 -0.1955  0.9611
  212ANI     HN 2967   6.443   2.571   4.239 -0.6812  0.5924  0.6120
  212ANI     HN 2968   6.391   2.426   4.285  0.0629  1.4303  1.2396
  213ANI     CN 2969   5.334   0.125   4.371 -0.0978 -0.3430 -0.0378
  213ANI     CH 2970   5.262   0.139   4.490 -0.0269  0.6188 -0.0981
  213ANI     CH 2971   5.136   0.083   4.513  0.1221  0.1940 -0.3026
  213ANI     CH 2972   5.080   0.007   4.409 -0.6877  0.9119 -0.4014
  213ANI     CH 2973   5.148  -0.010   4.288 -0.4776  0.8103 -0.2674
  213ANI     CH 2974   5.270   0.056   4.268  0.1819 -0.3695 -0.1955
  213ANI     NH 2975   5.447   0.192   4.346 -0.3353  0.3629  0.7581
  213ANI     HC 2976   5.306   0.194   4.572 -1.0314  1.0393  0.1654
  213ANI     HC 2977   5.078   0.092   4.603  0.0239 -0.8797 -0.2600
  213ANI     HC 2978   4.984  -0.042   4.413 -0.1143 -0.1713  0.3688
  213ANI     HC 2979   5.104  -0.064   4.206  0.8491 -1.0730  0.2275
  213ANI     HC 2980   5.307   0.051   4.167  0.9874 -0.0410  0.0842
  213ANI     HN 2981   5.496   0.153   4.267  0.0266  0.9730  0.6708
  213ANI     HN 2982   5.510   0.174   4.423 -0.5523 -1.1280  0.5968
  214ANI     CN 2983   5.679   1.834   5.704 -0.1440  0.2732 -0.2154
  214ANI     CH 2984   5.754   1.880   5.595  0.4676  0.4935  0.2924
  214ANI     CH 2985   5.685   1.932   5.485 -0.2049 -0.0047  0.4711
  214ANI     CH 2986   5.547   1.952   5.490 -0.2042  0.3529 -0.6309
  214ANI     CH 2987   5.474   1.907   5.601 -0.2725  0.1995 -0.7387
  214ANI     CH 2988   5.540   1.847   5.709 -0.0909  0.9556 -0.4220
  214ANI     NH 2989   5.740   1.770   5.805 -0.2717  0.6452  0.1022
  214ANI     HC 2990   5.860   1.860   5.594  0.8411  2.3378  1.4235
  214ANI     HC 2991   5.732   1.979   5.399 -0.1195 -1.8803 -0.5322
  214ANI     HC 2992   5.496   1.992   5.404  1.7432  1.5044 -1.2686
  214ANI     HC 2993   5.366   1.907   5.591 -0.4034 -0.1152  0.6047
  214ANI     HC 2994   5.485   1.797   5.788 -0.8195  0.3486 -1.2928
  214ANI     HN 2995   5.685   1.787   5.887 -0.4879 -1.0880  0.3326
  214ANI     HN 2996   5.839   1.790   5.816  0.0282 -0.5291 -0.3519
  215ANI     CN 2997   6.182   1.048   4.088  0.5132  0.8112 -0.2454
  215ANI     CH 2998   6.300   1.095   4.149  0.4589  0.3266  0.2333
  215ANI     CH 2999   6.424   1.055   4.099 -0.0540 -0.6013 -0.3186
  215ANI     CH 3000   6.440   0.966   3.992 -0.1249 -0.2518 -0.6257
  215ANI     CH 3001   6.324   0.916   3.932 -0.2552 -0.7614  0.0323
  215ANI     CH 3002   6.200   0.957   3.983  0.1092  0.7000 -0.2156
  215ANI     NH 3003   6.063   1.103   4.115 -0.0203 -0.5008  0.1225
  215ANI     HC 3004   6.307   1.161   4.234  2.9447 -1.0163  1.0998
  215ANI     HC 3005   6.507   1.086   4.160  0.2023  0.1985 -1.0637
  215ANI     HC 3006   6.536   0.932   3.957  0.3322 -0.4956  0.8040
  215ANI     HC 3007   6.327   0.849   3.848 -0.4172 -1.3636  0.5087
  215ANI     HC 3008   6.109   0.923   3.937  0.4696  1.2052 -1.3174
  215ANI     HN 3009   5.978   1.050   4.115 -1.1775  1.3023 -0.1979
  215ANI     HN 3010   6.067   1.149   4.205 -0.7185 -0.5325  0.1705
  216ANI     CN 3011   5.855   3.733   2.106  0.5027 -0.3081  0.3583
  216ANI     CH 3012   5.966   3.717   2.022 -0.0521  0.2712 -0.4907
  216ANI     CH 3013   6.091   3.752   2.076 -0.1925  0.1987 -0.1184
  216ANI     CH 3014   6.104   3.796   2.208 -0.1374 -0.3225  0.0519
  216ANI     CH 3015   5.992   3.818   2.289 -0.1315 -0.2929  0.0524
  216ANI     CH 3016   5.867   3.788   2.234 -0.2757 -0.6681  0.5855
  216ANI     NH 3017   5.734   3.704   2.058  0.4184 -0.1398  0.4689
  216ANI     HC 3018   5.980   3.685   1.920  3.1122 -0.7670  0.2180
  216ANI     HC 3019   6.177   3.736   2.014  0.9494  0.7168  1.3112
  216ANI     HC 3020   6.201   3.825   2.246  0.0615  0.2219 -0.8528
  216ANI     HC 3021   5.991   3.858   2.390 -0.3034  1.4582 -0.6144
  216ANI     HC 3022   5.774   3.807   2.286  0.1391 -0.0688  1.1185
  216ANI     HN 3023   5.658   3.692   2.124 -1.5708 -0.0176 -1.7301
  216ANI     HN 3024   5.735   3.617   2.007 -2.7983 -0.1791  0.3468
  217ANI     CN 3025   0.664   3.223   2.010 -0.5976 -0.4227 -0.6883
  217ANI     CH 3026   0.664   3.095   2.068  0.0430 -0.1009  0.0245
  217ANI     CH 3027   0.766   3.005   2.039  0.0089 -0.3575  0.6896
  217ANI     CH 3028   0.872   3.044   1.956 -0.2322 -0.1070  0.4988
  217ANI     CH 3029   0.887   3.179   1.921 -0.4238 -0.1271  0.3359
  217ANI     CH 3030   0.784   3.267   1.954 -0.6052 -0.0564 -0.4158
  217ANI     NH 3031   0.562   3.309   2.024  0.0726  0.3130 -0.2785
  217ANI     HC 3032   0.587   3.070   2.140  0.5760  2.3063  1.5149
  217ANI     HC 3033   0.765   2.904   2.078 -0.9118  0.0649  1.7634
  217ANI     HC 3034   0.942   2.966   1.930 -1.5578 -1.8340  2.0067
  217ANI     HC 3035   0.978   3.209   1.871 -1.5511  3.1894  0.1770
  217ANI     HC 3036   0.801   3.371   1.928  0.6601  0.4253  2.1757
  217ANI     HN 3037   0.477   3.254   2.025  1.6164 -2.1074  2.3277
  217ANI     HN 3038   0.543   3.377   1.952  0.2106 -0.2313 -0.8346
  218ANI     CN 3039   2.438   0.701   0.098 -0.1565  0.7495 -0.3975
  218ANI     CH 3040   2.320   0.688   0.023 -0.0606 -0.4503 -0.3458
  218ANI     CH 3041   2.314   0.704  -0.116  0.2461  0.5626 -0.2448
  218ANI     CH 3042   2.427   0.758  -0.178  0.1835  0.8964 -0.0712
  218ANI     CH 3043   2.543   0.787  -0.105  0.1453 -0.1297  0.3979
  218ANI     CH 3044   2.548   0.758   0.032  0.6283  0.2309  0.4575
  218ANI     NH 3045   2.443   0.677   0.229  0.6233 -0.2485 -0.6062
  218ANI     HC 3046   2.227   0.650   0.063  0.5887 -0.7102  0.9444
  218ANI     HC 3047   2.223   0.677  -0.169  0.0776  0.1550  0.2558
  218ANI     HC 3048   2.427   0.783  -0.283  1.0635 -1.3241 -0.6258
  218ANI     HC 3049   2.624   0.836  -0.156  0.7795 -1.4027  0.1666
  218ANI     HC 3050   2.639   0.780   0.086 -0.1051  2.3327  0.8858
  218ANI     HN 3051   2.475   0.763   0.272 -0.9301  0.3610 -0.6483
  218ANI     HN 3052   2.347   0.670   0.260  0.8590  0.0733  0.2232
  219ANI     CN 3053   3.492   2.856   4.449  0.3265 -0.1545  0.1227
  219ANI     CH 3054   3.515   2.942   4.557 -0.6023  0.0583  0.1552
  219ANI     CH 3055   3.592   2.899   4.665  0.0044  0.1944 -0.2211
  219ANI     CH 3056   3.647   2.770   4.666  0.3760  0.3503 -0.6616
  219ANI     CH 3057   3.622   2.684   4.558  1.0991  0.3521 -0.8362
  219ANI     CH 3058   3.535   2.723   4.455  0.5460 -0.1163 -0.5498
  219ANI     NH 3059   3.407   2.902   4.355 -0.1303  0.1250  0.6680
  219ANI     HC 3060   3.472   3.042   4.561  1.3153  0.8845  0.8140
  219ANI     HC 3061   3.603   2.954   4.757 -3.7926 -3.3913  2.5941
  219ANI     HC 3062   3.705   2.738   4.751  0.0660  1.9043  0.1434
  219ANI     HC 3063   3.658   2.584   4.571  3.1092  1.3291  1.4799
  219ANI     HC 3064   3.510   2.654   4.376  1.0225  0.0940 -0.8890
  219ANI     HN 3065   3.391   2.837   4.280  1.8225  0.2846  0.0761
  219ANI     HN 3066   3.315   2.921   4.391  0.0531  0.6644  0.8600
  220ANI     CN 3067   4.357   1.894   0.607  0.4808  0.2963  0.2303
  220ANI     CH 3068   4.250   1.982   0.626 -0.1380 -0.5053  0.5108
  220ANI     CH 3069   4.270   2.121   0.628  0.0053 -0.5239  0.3516
  220ANI     CH 3070   4.396   2.174   0.599 -0.1282 -0.2342  0.2962
  220ANI     CH 3071   4.504   2.088   0.576  0.2005  0.2289  0.0973
  220ANI     CH 3072   4.484   1.950   0.587  0.3985  0.1253 -0.8072
  220ANI     NH 3073   4.344   1.761   0.601 -0.2189  0.3669  0.0917
  220ANI     HC 3074   4.152   1.941   0.647  0.0306 -1.1634  0.0255
  220ANI     HC 3075   4.180   2.179   0.640  0.0481  0.2218 -2.5519
  220ANI     HC 3076   4.399   2.282   0.590 -0.4644 -0.2718 -0.2240
  220ANI     HC 3077   4.603   2.117   0.543 -0.3920  1.5789 -0.5121
  220ANI     HC 3078   4.572   1.892   0.564  1.1286  0.9926 -0.2481
  220ANI     HN 3079   4.414   1.689   0.614 -0.4600  0.0129 -0.5353
  220ANI     HN 3080   4.252   1.726   0.622 -0.5486  1.9227  1.3062
  221ANI     CN 3081   3.927   5.099   0.135  0.0760  0.5089  0.0965
  221ANI     CH 3082   4.016   5.099   0.026  0.0960 -0.2478  0.1101
  221ANI     CH 3083   4.012   5.205  -0.065  0.6749  0.0732  0.4521
  221ANI     CH 3084   3.910   5.300  -0.056  0.2009 -0.3305 -0.5308
  221ANI     CH 3085   3.817   5.293   0.049  0.3281  0.1168 -0.3884
  221ANI     CH 3086   3.818   5.186   0.139 -0.0352  0.3786 -0.0745
  221ANI     NH 3087   3.951   5.006   0.228  0.1168 -0.0429 -0.4639
  221ANI     HC 3088   4.094   5.024   0.027  1.4501  1.1376 -0.9713
  221ANI     HC 3089   4.100   5.216  -0.127  0.0046 -0.3764 -0.5942
  221ANI     HC 3090   3.907   5.389  -0.118 -1.3177  1.9435  2.6593
  221ANI     HC 3091   3.737   5.362   0.070  0.9277  1.5629 -2.5916
  221ANI     HC 3092   3.750   5.179   0.223  1.3484  1.9792  1.2075
  221ANI     HN 3093   3.975   4.917   0.185 -2.2910  0.4236 -2.9750
  221ANI     HN 3094   3.869   5.000   0.287 -0.5641  1.2533 -1.2450
  222ANI     CN 3095   0.282   1.590   5.861 -0.1461  0.1570  0.0324
  222ANI     CH 3096   0.416   1.551   5.867 -0.1808  0.1345  0.6727
  222ANI     CH 3097   0.457   1.487   5.985  0.7504 -0.7506 -0.1170
  222ANI     CH 3098   0.374   1.480   6.098  0.3920  0.0988 -0.3260
  222ANI     CH 3099   0.242   1.526   6.089  0.1893 -0.4769 -0.2634
  222ANI     CH 3100   0.192   1.575   5.968 -0.0960  0.0275  0.0587
  222ANI     NH 3101   0.235   1.644   5.748  0.2741 -0.3890 -0.4053
  222ANI     HC 3102   0.478   1.562   5.780 -0.5960 -1.2905  0.1703
  222ANI     HC 3103   0.559   1.455   6.003  0.9174 -1.0418 -1.5493
  222ANI     HC 3104   0.410   1.441   6.192 -1.3722 -1.9000 -0.4546
  222ANI     HC 3105   0.178   1.518   6.176  1.3532  0.0152  0.6500
  222ANI     HC 3106   0.087   1.600   5.965 -0.0566  0.0598 -1.7567
  222ANI     HN 3107   0.136   1.632   5.758  0.1645  0.8532  0.1791
  222ANI     HN 3108   0.271   1.587   5.673  0.1202 -1.7308  0.5384
  223ANI     CN 3109   4.894   1.114   0.644 -0.5090 -0.3311  0.1077
  223ANI     CH 3110   4.816   1.061   0.541 -0.2869  0.3716 -0.4302
  223ANI     CH 3111   4.676   1.069   0.554 -0.2669  0.1636 -0.0699
  223ANI     CH 3112   4.608   1.126   0.662 -0.2189 -0.1965  0.1511
  223ANI     CH 3113   4.689   1.182   0.761 -0.5976  0.5935  0.0132
  223ANI     CH 3114   4.829   1.179   0.750 -0.6252  0.0812 -0.2182
  223ANI     NH 3115   5.027   1.100   0.642 -0.4415  0.3304 -0.1025
  223ANI     HC 3116   4.863   1.012   0.457 -0.1414  2.7051 -1.7294
  223ANI     HC 3117   4.617   1.038   0.469 -0.2322 -2.9888  1.0004
  223ANI     HC 3118   4.501   1.135   0.675 -0.2947 -0.7243 -0.0999
  223ANI     HC 3119   4.637   1.236   0.838  0.6756  1.9461 -0.0387
  223ANI     HC 3120   4.885   1.232   0.826  1.9922 -2.0906 -0.5903
  223ANI     HN 3121   5.063   1.145   0.726 -1.1390  1.0839 -0.1932
  223ANI     HN 3122   5.045   1.001   0.649 -0.0514  0.4890  1.4216
  224ANI     CN 3123   0.906   4.959   5.732  0.0252 -0.2724 -0.0884
  224ANI     CH 3124   0.812   4.858   5.710 -0.2942  0.0397 -0.1478
  224ANI     CH 3125   0.710   4.833   5.802  0.3142 -0.2815  0.4371
  224ANI     CH 3126   0.703   4.904   5.923 -0.4045  0.3143  0.0492
  224ANI     CH 3127   0.790   5.013   5.938 -0.5402  0.3680  0.4593
  224ANI     CH 3128   0.889   5.042   5.844 -0.5924 -0.6333  0.0883
  224ANI     NH 3129   1.012   4.972   5.651 -0.1189 -0.0543 -0.2408
  224ANI     HC 3130   0.821   4.792   5.625  2.1945  0.2784 -0.0888
  224ANI     HC 3131   0.644   4.748   5.791 -1.1713  1.0593 -1.2339
  224ANI     HC 3132   0.621   4.881   5.990 -0.7145 -2.6055 -1.2271
  224ANI     HC 3133   0.773   5.075   6.025 -0.2317  1.8828 -0.5400
  224ANI     HC 3134   0.957   5.121   5.870  0.3715 -1.7065  0.8817
  224ANI     HN 3135   1.055   4.883   5.631 -1.1784 -1.3621  2.9586
  224ANI     HN 3136   1.087   5.034   5.677  1.9462 -2.2621 -0.7786
  225ANI     CN 3137   3.232   3.713   0.970  0.4353  0.0283  0.0428
  225ANI     CH 3138   3.154   3.719   0.854  0.4335  0.4010  0.0618
  225ANI     CH 3139   3.014   3.726   0.854  0.3707 -0.7120 -0.0662
  225ANI     CH 3140   2.955   3.721   0.980  0.8495  0.2078  0.2051
  225ANI     CH 3141   3.027   3.703   1.099  0.2058 -0.3421  0.5172
  225ANI     CH 3142   3.167   3.708   1.094  0.1875 -0.4900 -0.1111
  225ANI     NH 3143   3.366   3.718   0.962  0.4363 -0.6738 -0.4215
  225ANI     HC 3144   3.212   3.722   0.763  0.2176  0.5859 -0.0693
  225ANI     HC 3145   2.954   3.725   0.764  0.1171  0.2868  0.0809
  225ANI     HC 3146   2.848   3.733   0.992  0.5641  0.5457 -2.5541
  225ANI     HC 3147   2.981   3.714   1.196 -1.5213 -0.3490 -0.2824
  225ANI     HC 3148   3.221   3.704   1.187 -1.5721 -0.5733  0.9485
  225ANI     HN 3149   3.411   3.657   1.029 -1.9268 -2.3830 -0.3410
  225ANI     HN 3150   3.407   3.704   0.871  0.3515 -0.5225 -0.4829
  226ANI     CN 3151   1.665   4.109   3.748 -0.3222 -0.1941  0.1029
  226ANI     CH 3152   1.537   4.087   3.698 -0.5356  0.4690  0.3462
  226ANI     CH 3153   1.516   4.043   3.566 -0.2936  0.4590  0.3120
  226ANI     CH 3154   1.623   4.034   3.476 -0.1620  0.1056  0.5007
  226ANI     CH 3155   1.750   4.054   3.531  0.2595 -0.5634 -0.2251
  226ANI     CH 3156   1.775   4.089   3.664 -0.5283 -0.4111 -0.1133
  226ANI     NH 3157   1.684   4.140   3.877 -0.2489  1.0123 -0.1896
  226ANI     HC 3158   1.453   4.069   3.764 -0.6268 -1.6519 -0.3116
  226ANI     HC 3159   1.419   4.021   3.524  0.1435 -0.8322 -0.0318
  226ANI     HC 3160   1.609   4.021   3.370 -0.3584  2.6954  0.1772
  226ANI     HC 3161   1.835   4.046   3.464 -0.1974  1.3390 -1.0881
  226ANI     HC 3162   1.878   4.086   3.697 -0.3903 -0.7409 -0.5738
  226ANI     HN 3163   1.774   4.115   3.917 -0.4223  0.4039 -0.1732
  226ANI     HN 3164   1.615   4.100   3.939  0.0551 -1.6666 -1.5202
  227ANI     CN 3165   0.804   1.669   4.191  0.0517  0.1171 -0.0606
  227ANI     CH 3166   0.818   1.755   4.300  0.6741  0.3068 -0.2910
  227ANI     CH 3167   0.767   1.884   4.283 -0.1666  0.0272  0.0994
  227ANI     CH 3168   0.700   1.934   4.170  0.1208  0.0421 -0.0649
  227ANI     CH 3169   0.682   1.841   4.067 -0.3614 -0.0228  0.0743
  227ANI     CH 3170   0.735   1.712   4.077 -0.0852  0.0857  0.0093
  227ANI     NH 3171   0.851   1.544   4.197  0.4310  0.2358 -0.5728
  227ANI     HC 3172   0.851   1.737   4.402  0.5732  3.8226  0.4431
  227ANI     HC 3173   0.793   1.946   4.367  0.0755 -2.4461  1.8945
  227ANI     HC 3174   0.672   2.038   4.167 -0.9220 -0.2346 -0.0804
  227ANI     HC 3175   0.625   1.873   3.982  0.0363  0.3002 -0.0722
  227ANI     HC 3176   0.708   1.639   4.002 -0.6216  0.4540 -0.1532
  227ANI     HN 3177   0.906   1.521   4.278  2.7287  3.1174 -1.2693
  227ANI     HN 3178   0.906   1.523   4.115  0.5463 -2.4529  0.1486
  228ANI     CN 3179   2.542   5.485   5.083  0.2026  0.2906  0.2692
  228ANI     CH 3180   2.453   5.389   5.033  0.9011 -0.2796  0.1167
  228ANI     CH 3181   2.491   5.291   4.941  0.3085 -0.0071 -0.4196
  228ANI     CH 3182   2.622   5.292   4.891  0.3956 -0.8826 -0.2167
  228ANI     CH 3183   2.711   5.392   4.931 -0.0096 -0.3237 -0.7017
  228ANI     CH 3184   2.672   5.483   5.031 -0.1955 -0.4097 -0.6965
  228ANI     NH 3185   2.509   5.560   5.189 -0.2009  0.1010  0.2800
  228ANI     HC 3186   2.353   5.380   5.073  0.6833 -0.1263 -0.4007
  228ANI     HC 3187   2.410   5.228   4.908  1.7553 -2.4951  0.6077
  228ANI     HC 3188   2.664   5.227   4.815 -2.1380  0.0611 -2.4751
  228ANI     HC 3189   2.810   5.411   4.893 -0.0444  1.8917  0.2352
  228ANI     HC 3190   2.741   5.561   5.059  0.1298 -1.7625  2.3939
  228ANI     HN 3191   2.447   5.495   5.234  0.3075 -1.4505 -1.2236
  228ANI     HN 3192   2.583   5.600   5.246 -1.5928  1.2709  1.3140
  229ANI     CN 3193   5.969   0.312   5.780 -0.4636 -0.3780 -0.5967
  229ANI     CH 3194   6.092   0.324   5.846 -0.5118 -0.1296 -0.5474
  229ANI     CH 3195   6.211   0.306   5.773  0.0205  0.3687  0.1967
  229ANI     CH 3196   6.208   0.299   5.634  0.2094  0.0909  0.2074
  229ANI     CH 3197   6.085   0.297   5.568  0.1400 -0.6612  0.3571
  229ANI     CH 3198   5.965   0.299   5.641 -0.4530 -0.1710 -0.6169
  229ANI     NH 3199   5.853   0.325   5.846  0.2188  0.3810  0.4851
  229ANI     HC 3200   6.111   0.320   5.952 -0.8887 -0.5048 -0.4940
  229ANI     HC 3201   6.307   0.307   5.823  0.1706  1.4653 -0.1063
  229ANI     HC 3202   6.303   0.295   5.582  0.5913  0.1423  0.8952
  229ANI     HC 3203   6.075   0.290   5.460 -2.3090 -1.8929  0.6147
  229ANI     HC 3204   5.875   0.287   5.583 -0.4166  0.6843 -0.8595
  229ANI     HN 3205   5.873   0.311   5.944  1.9077  1.2509  0.2799
  229ANI     HN 3206   5.784   0.260   5.811 -0.6363  1.8941 -0.6816
  230ANI     CN 3207   4.381   4.967   1.151  0.4227 -0.4894 -0.6591
  230ANI     CH 3208   4.318   4.853   1.202  0.5150 -0.2988 -0.1191
  230ANI     CH 3209   4.180   4.841   1.187  0.3807  0.3249  0.5762
  230ANI     CH 3210   4.109   4.921   1.097 -0.1921 -0.5195  0.2694
  230ANI     CH 3211   4.181   5.022   1.031 -0.0462 -1.0114 -0.3297
  230ANI     CH 3212   4.316   5.048   1.057 -0.2983 -0.1488  0.1286
  230ANI     NH 3213   4.508   4.988   1.188  0.1662 -0.5196  0.2511
  230ANI     HC 3214   4.366   4.788   1.273 -1.5104 -0.8970  0.7328
  230ANI     HC 3215   4.121   4.764   1.235  2.3723 -1.8938 -0.4396
  230ANI     HC 3216   4.007   4.891   1.078 -0.4603  0.6338 -0.1566
  230ANI     HC 3217   4.137   5.076   0.949  1.7420  0.5515 -0.2763
  230ANI     HC 3218   4.365   5.127   1.001 -2.3292  1.7676  0.9704
  230ANI     HN 3219   4.511   5.081   1.226 -1.3947  0.1349 -1.1461
  230ANI     HN 3220   4.525   4.921   1.262  0.8453 -1.9496 -1.1741
  231ANI     CN 3221   1.500   4.253   5.636  0.0151  0.2217 -0.4725
  231ANI     CH 3222   1.581   4.157   5.700  0.3046  0.5683 -0.3188
  231ANI     CH 3223   1.623   4.044   5.631 -0.2365  0.2219 -0.0894
  231ANI     CH 3224   1.585   4.022   5.498  0.1722 -0.1239 -0.1536
  231ANI     CH 3225   1.507   4.122   5.438 -0.1463 -0.2288  0.0866
  231ANI     CH 3226   1.459   4.237   5.503 -0.1466  0.0488 -0.4026
  231ANI     NH 3227   1.450   4.356   5.705  0.1209  0.0629 -0.1548
  231ANI     HC 3228   1.603   4.178   5.804 -0.0964 -1.0646  0.0973
  231ANI     HC 3229   1.681   3.967   5.680 -0.3389  0.7615  0.8858
  231ANI     HC 3230   1.607   3.936   5.437 -0.0482  0.3643 -0.9393
  231ANI     HC 3231   1.469   4.103   5.339 -1.0371 -2.4951  0.8450
  231ANI     HC 3232   1.405   4.314   5.451 -0.7312 -0.3205 -0.3482
  231ANI     HN 3233   1.392   4.412   5.645  1.6813  0.6510 -1.1563
  231ANI     HN 3234   1.416   4.338   5.798 -2.9850  0.1791 -1.2244
  232ANI     CN 3235   2.840   4.447   2.376  0.0846  0.4094  0.0740
  232ANI     CH 3236   2.748   4.485   2.276  0.0060 -0.0694 -0.0336
  232ANI     CH 3237   2.765   4.607   2.210 -0.0145 -0.4524 -0.7427
  232ANI     CH 3238   2.881   4.683   2.224 -0.2590 -0.2960  0.4304
  232ANI     CH 3239   2.977   4.643   2.318  0.5213 -0.3972 -0.4027
  232ANI     CH 3240   2.953   4.527   2.393  0.3354  0.0260  0.1951
  232ANI     NH 3241   2.822   4.331   2.439  0.0568  0.1731 -0.3663
  232ANI     HC 3242   2.659   4.428   2.254 -0.1833  0.1738  0.1118
  232ANI     HC 3243   2.691   4.634   2.135 -1.9658  0.5455  1.4783
  232ANI     HC 3244   2.898   4.761   2.152  1.5313 -2.0845 -1.1678
  232ANI     HC 3245   3.069   4.698   2.335 -0.5977  0.5411  2.9700
  232ANI     HC 3246   3.030   4.490   2.460  0.9054 -0.4802 -0.7383
  232ANI     HN 3247   2.761   4.268   2.389 -1.7152  1.0163  0.6909
  232ANI     HN 3248   2.908   4.277   2.443 -0.7357 -1.1880 -1.1925
  233ANI     CN 3249   5.054   3.798   0.403 -0.2126  0.1582 -0.3772
  233ANI     CH 3250   5.061   3.926   0.347  0.4668  0.2782 -0.0261
  233ANI     CH 3251   4.942   3.985   0.304  0.1452  0.0594  0.5562
  233ANI     CH 3252   4.821   3.914   0.298 -0.0738  0.5183 -0.5204
  233ANI     CH 3253   4.817   3.781   0.343  0.2545  0.7626  0.2255
  233ANI     CH 3254   4.935   3.725   0.393  0.0670 -0.2843 -0.5025
  233ANI     NH 3255   5.164   3.738   0.451 -0.3904  0.2480  0.1420
  233ANI     HC 3256   5.156   3.976   0.336  1.4926 -1.4842  0.6920
  233ANI     HC 3257   4.957   4.091   0.286  0.5072 -0.2214 -0.7949
  233ANI     HC 3258   4.733   3.950   0.247  0.8140  0.0185 -2.4794
  233ANI     HC 3259   4.721   3.736   0.324  0.3501  1.4835 -2.0620
  233ANI     HC 3260   4.925   3.623   0.426  1.6308 -0.7734 -1.4978
  233ANI     HN 3261   5.170   3.647   0.408 -2.1401 -0.1546  0.6896
  233ANI     HN 3262   5.244   3.796   0.430  0.9857 -1.0938  1.5188
  234ANI     CN 3263   4.695   5.014   1.479 -0.2765 -0.3541 -0.1676
  234ANI     CH 3264   4.788   5.043   1.378 -0.0416 -0.6989 -0.0503
  234ANI     CH 3265   4.858   4.945   1.307  0.0214 -0.1389 -0.7720
  234ANI     CH 3266   4.851   4.814   1.357  0.0902  0.1575  0.0205
  234ANI     CH 3267   4.762   4.786   1.462 -0.3048 -0.1841 -0.4053
  234ANI     CH 3268   4.686   4.883   1.528  0.0132 -0.2758  0.0950
  234ANI     NH 3269   4.624   5.104   1.548  0.1761 -0.3720  0.3210
  234ANI     HC 3270   4.807   5.145   1.348  3.0909 -1.5151 -1.0650
  234ANI     HC 3271   4.936   4.955   1.233  1.2906 -0.5257  0.4980
  234ANI     HC 3272   4.914   4.740   1.311 -1.0372 -1.4621  1.0276
  234ANI     HC 3273   4.743   4.685   1.494 -0.9406 -0.2535 -0.9804
  234ANI     HC 3274   4.622   4.863   1.612 -0.9041 -0.4048 -0.6313
  234ANI     HN 3275   4.679   5.187   1.568 -1.6369  0.3107  2.6278
  234ANI     HN 3276   4.594   5.077   1.641  0.9280 -0.9483  0.3984
  235ANI     CN 3277   1.951   5.699   3.666  0.0998  0.2430  0.6403
  235ANI     CH 3278   2.063   5.775   3.628 -0.1395  0.5427  0.5385
  235ANI     CH 3279   2.137   5.841   3.726  0.7645  0.4600 -0.0845
  235ANI     CH 3280   2.093   5.834   3.859  0.1778 -0.3993 -0.3183
  235ANI     CH 3281   1.983   5.756   3.897 -0.2680  0.2886 -0.1741
  235ANI     CH 3282   1.908   5.690   3.799 -0.8103  0.1328  0.3419
  235ANI     NH 3283   1.882   5.628   3.576  0.8556 -0.4214  0.5767
  235ANI     HC 3284   2.090   5.773   3.523 -2.7889 -0.2630 -0.1779
  235ANI     HC 3285   2.228   5.894   3.704  1.1938  1.3045  3.4249
  235ANI     HC 3286   2.162   5.886   3.923  0.4446 -3.7909  2.2611
  235ANI     HC 3287   1.956   5.749   4.001  0.4406  1.3966  0.1029
  235ANI     HC 3288   1.830   5.625   3.835  1.2423 -2.2555  0.6297
  235ANI     HN 3289   1.908   5.660   3.484 -3.0173  1.6596  0.0906
  235ANI     HN 3290   1.784   5.642   3.597  0.5462  0.6453 -1.4768
  236ANI     CN 3291   0.681   3.955   5.103  0.5832 -0.3729  0.2156
  236ANI     CH 3292   0.627   3.828   5.127  0.0155 -0.3079 -0.7097
  236ANI     CH 3293   0.588   3.788   5.255  0.2259  0.3400 -0.4408
  236ANI     CH 3294   0.611   3.877   5.360 -0.1900 -0.1428  0.0635
  236ANI     CH 3295   0.665   4.005   5.341 -0.4796 -0.0903 -0.4209
  236ANI     CH 3296   0.694   4.044   5.210 -0.0698  0.2583 -0.2247
  236ANI     NH 3297   0.709   3.985   4.976  0.1190  0.1047  0.2268
  236ANI     HC 3298   0.606   3.767   5.040 -2.2349 -1.7416  0.8007
  236ANI     HC 3299   0.536   3.695   5.274  2.4318 -0.8635 -0.1431
  236ANI     HC 3300   0.592   3.848   5.462  0.2475  0.2554  0.2588
  236ANI     HC 3301   0.689   4.063   5.429  0.3360  0.8913 -1.2822
  236ANI     HC 3302   0.733   4.143   5.188  0.3578  0.4266  1.1702
  236ANI     HN 3303   0.766   4.062   4.945 -1.1304  0.7374 -0.5789
  236ANI     HN 3304   0.736   3.907   4.918  0.1812  1.3737 -1.4994
  237ANI     CN 3305   5.863   5.070   1.557  0.2430  0.0692 -0.0494
  237ANI     CH 3306   5.962   5.030   1.466 -0.0790 -0.5259 -0.1344
  237ANI     CH 3307   6.058   5.126   1.434 -0.6807  0.0798 -0.1221
  237ANI     CH 3308   6.072   5.250   1.498  0.2894 -0.2342  0.2671
  237ANI     CH 3309   5.970   5.286   1.587  0.2842 -0.0858  0.2020
  237ANI     CH 3310   5.869   5.195   1.621  0.0794  0.0603 -0.0162
  237ANI     NH 3311   5.761   4.989   1.585  0.6005 -0.2562  0.3080
  237ANI     HC 3312   5.980   4.931   1.427  1.1295 -0.0648 -0.7648
  237ANI     HC 3313   6.126   5.101   1.353 -1.2537  1.7793 -1.1720
  237ANI     HC 3314   6.157   5.312   1.472  1.8256 -1.5403  1.9915
  237ANI     HC 3315   5.987   5.364   1.659 -0.2532  0.4848 -0.2799
  237ANI     HC 3316   5.803   5.232   1.698  0.8524  1.2563  0.0940
  237ANI     HN 3317   5.724   4.993   1.679 -0.2480 -0.3137 -0.0215
  237ANI     HN 3318   5.763   4.890   1.562 -0.4980 -0.2524  0.1875
  238ANI     CN 3319   5.178   2.542   3.063  0.0444  0.0434  0.0724
  238ANI     CH 3320   5.096   2.431   3.086 -0.2970  0.3750  0.4645
  238ANI     CH 3321   5.124   2.343   3.191 -0.0674  0.1805  0.2407
  238ANI     CH 3322   5.229   2.375   3.278 -0.1228  0.1110  0.3342
  238ANI     CH 3323   5.303   2.493   3.265  0.5619 -0.3496  0.0463
  238ANI     CH 3324   5.281   2.574   3.152  0.3715 -0.5770 -0.0792
  238ANI     NH 3325   5.153   2.610   2.949  0.3089  0.2082  0.1128
  238ANI     HC 3326   5.016   2.408   3.018 -0.6453 -1.1641  1.3748
  238ANI     HC 3327   5.066   2.254   3.209 -2.8298  1.7911 -0.4953
  238ANI     HC 3328   5.253   2.314   3.364 -2.6942 -2.4943 -0.7405
  238ANI     HC 3329   5.377   2.507   3.342 -2.5008  0.2281  3.0161
  238ANI     HC 3330   5.344   2.661   3.145 -1.8850  1.2038  1.1458
  238ANI     HN 3331   5.182   2.706   2.950  0.2974  0.2297 -1.3795
  238ANI     HN 3332   5.055   2.607   2.927  0.4204 -1.5813 -0.2763
  239ANI     CN 3333   4.965   1.202   5.703  0.0223  0.1392 -0.2757
  239ANI     CH 3334   4.968   1.336   5.744  0.4278 -0.3443  1.2873
  239ANI     CH 3335   4.861   1.390   5.816  0.1240  0.3419  0.3389
  239ANI     CH 3336   4.747   1.314   5.847  0.3828 -0.2299 -0.1206
  239ANI     CH 3337   4.734   1.188   5.786  0.5856 -0.1914 -0.2428
  239ANI     CH 3338   4.840   1.139   5.709  0.1621 -0.1911 -0.8280
  239ANI     NH 3339   5.078   1.157   5.648  0.5088  0.2817  0.6126
  239ANI     HC 3340   5.060   1.392   5.747  0.3691 -0.3178  4.0231
  239ANI     HC 3341   4.866   1.490   5.858 -2.1694  0.7836 -0.3451
  239ANI     HC 3342   4.667   1.353   5.908 -1.1345 -0.2752 -2.0337
  239ANI     HC 3343   4.645   1.127   5.790  0.4824 -0.3197 -3.0770
  239ANI     HC 3344   4.825   1.040   5.667  0.4790  0.2085 -1.8881
  239ANI     HN 3345   5.058   1.074   5.595  1.7752 -0.0360  0.6184
  239ANI     HN 3346   5.125   1.225   5.590  1.5598 -0.4124  0.6357
  240ANI     CN 3347   4.695   4.445   2.109 -0.0732  0.1888 -0.2988
  240ANI     CH 3348   4.746   4.330   2.048 -0.2682  0.1311 -0.3561
  240ANI     CH 3349   4.668   4.257   1.958 -0.0085 -0.9316  0.2789
  240ANI     CH 3350   4.538   4.300   1.928  0.2555 -0.3227  0.0248
  240ANI     CH 3351   4.486   4.412   1.994 -0.1910 -0.0272 -0.8189
  240ANI     CH 3352   4.568   4.492   2.075 -0.3839 -0.5223 -0.1319
  240ANI     NH 3353   4.774   4.515   2.192  0.2829  0.4414 -0.8502
  240ANI     HC 3354   4.844   4.293   2.074 -0.7629  0.0775  1.4950
  240ANI     HC 3355   4.713   4.168   1.915  1.0824  0.5121 -1.6261
  240ANI     HC 3356   4.470   4.241   1.869  0.1933 -0.7023  0.4819
  240ANI     HC 3357   4.386   4.449   1.976 -0.0398  0.7742 -0.0369
  240ANI     HC 3358   4.521   4.579   2.120  1.4743  1.1528 -1.3697
  240ANI     HN 3359   4.838   4.455   2.242 -0.0281 -0.9182 -2.0404
  240ANI     HN 3360   4.719   4.562   2.263 -1.0942 -0.8806 -1.0124
  241ANI     CN 3361   2.153   6.131   2.082 -0.6883 -0.0153  0.3954
  241ANI     CH 3362   2.233   6.021   2.048 -0.1274  0.7434 -0.7541
  241ANI     CH 3363   2.282   6.011   1.917  0.4357  0.1884 -0.5063
  241ANI     CH 3364   2.258   6.110   1.820 -0.1007  0.2929 -0.2689
  241ANI     CH 3365   2.177   6.217   1.860 -0.5327  0.0429 -0.4676
  241ANI     CH 3366   2.132   6.235   1.991  0.6410 -0.1203 -0.0398
  241ANI     NH 3367   2.091   6.135   2.201 -0.1157  0.5289  0.6730
  241ANI     HC 3368   2.255   5.943   2.119  1.5116  1.2204 -0.7187
  241ANI     HC 3369   2.335   5.921   1.891 -0.3344 -0.3506 -0.2488
  241ANI     HC 3370   2.296   6.089   1.722  0.7448  0.9498 -0.0820
  241ANI     HC 3371   2.149   6.286   1.782 -1.1853  0.7095  0.3488
  241ANI     HC 3372   2.062   6.315   2.009  0.8433 -0.1931  1.1312
  241ANI     HN 3373   2.105   6.044   2.243 -1.9862  0.0845  0.3407
  241ANI     HN 3374   1.994   6.150   2.179  0.4131  2.2786 -0.6233
  242ANI     CN 3375   2.402   5.697   2.716  0.0294 -0.8080  0.0697
  242ANI     CH 3376   2.428   5.666   2.850  0.0966  0.0187  0.2500
  242ANI     CH 3377   2.560   5.668   2.897  0.2214 -0.5879 -0.0683
  242ANI     CH 3378   2.664   5.705   2.811 -0.4073  0.5477 -0.3448
  242ANI     CH 3379   2.637   5.749   2.681 -0.0989  0.1878 -0.5285
  242ANI     CH 3380   2.507   5.738   2.632 -0.3888  0.4940  0.1652
  242ANI     NH 3381   2.275   5.722   2.682 -0.1053 -0.3837  0.8841
  242ANI     HC 3382   2.347   5.649   2.920 -0.5902 -1.7207 -0.9381
  242ANI     HC 3383   2.586   5.654   3.001  0.3193  2.1237  0.3212
  242ANI     HC 3384   2.764   5.713   2.851 -1.5280  1.9899  2.3316
  242ANI     HC 3385   2.712   5.772   2.607  0.5955 -1.9510 -0.5517
  242ANI     HC 3386   2.464   5.776   2.540 -1.4100 -2.6134 -0.7422
  242ANI     HN 3387   2.219   5.655   2.732 -1.0536 -0.4930 -0.3142
  242ANI     HN 3388   2.247   5.703   2.587  1.7423  0.1962  0.1992
  243ANI     CN 3389   1.877   4.341   6.034 -0.3472 -0.3429 -0.1599
  243ANI     CH 3390   1.835   4.251   5.936  0.3620 -0.5908 -0.2412
  243ANI     CH 3391   1.811   4.118   5.974  0.5960 -0.5930 -0.1009
  243ANI     CH 3392   1.825   4.073   6.106 -0.5384  0.1505  0.2903
  243ANI     CH 3393   1.880   4.162   6.198  0.4071  0.4117 -0.5085
  243ANI     CH 3394   1.904   4.296   6.164 -0.1791  0.6999  0.1769
  243ANI     NH 3395   1.922   4.463   6.001 -1.1682 -0.1179 -0.4616
  243ANI     HC 3396   1.834   4.280   5.832  1.7313 -1.8253 -0.6114
  243ANI     HC 3397   1.789   4.047   5.896  0.4871 -0.2491 -0.3832
  243ANI     HC 3398   1.806   3.971   6.136  0.6324 -0.4136 -0.7931
  243ANI     HC 3399   1.916   4.120   6.291 -0.1701  0.0502 -0.4466
  243ANI     HC 3400   1.944   4.358   6.242  0.2518  0.2757  0.3004
  243ANI     HN 3401   1.872   4.491   5.918 -0.5392  0.6876 -0.5736
  243ANI     HN 3402   1.923   4.540   6.067  1.4861 -0.1588 -0.4104
  244ANI     CN 3403   5.282   2.115   1.654 -0.4530  0.2120 -0.0368
  244ANI     CH 3404   5.143   2.098   1.651 -0.4824  0.4662 -0.1602
  244ANI     CH 3405   5.092   1.988   1.581  0.2533  0.2836 -0.4163
  244ANI     CH 3406   5.173   1.901   1.508  0.4232  0.1936 -0.1203
  244ANI     CH 3407   5.312   1.915   1.516  0.4332  0.0056  0.0485
  244ANI     CH 3408   5.365   2.024   1.586 -0.2597  0.4527 -0.1252
  244ANI     NH 3409   5.343   2.205   1.732  0.3242 -0.0185 -0.3704
  244ANI     HC 3410   5.081   2.160   1.714 -2.3820 -0.1777 -1.3546
  244ANI     HC 3411   4.988   1.961   1.588 -0.0140  0.8543 -2.0144
  244ANI     HC 3412   5.125   1.812   1.470 -0.4493  0.7450 -0.3079
  244ANI     HC 3413   5.382   1.851   1.463  1.1223  1.0439 -0.3130
  244ANI     HC 3414   5.472   2.039   1.581 -0.5096  2.6280  0.3979
  244ANI     HN 3415   5.444   2.212   1.734  0.3044  0.6645 -1.1415
  244ANI     HN 3416   5.301   2.228   1.821  1.3052  0.2983  0.0239
  245ANI     CN 3417   5.431   5.342   1.608  0.1197  0.2956 -0.1046
  245ANI     CH 3418   5.298   5.359   1.648  0.0910 -0.4076  0.1085
  245ANI     CH 3419   5.250   5.491   1.657  0.2928 -0.3239 -0.0366
  245ANI     CH 3420   5.327   5.605   1.630  0.0824 -0.0170  0.6572
  245ANI     CH 3421   5.463   5.586   1.600 -0.1903 -0.3013 -0.4058
  245ANI     CH 3422   5.510   5.455   1.585  0.7922 -0.0498  0.4740
  245ANI     NH 3423   5.495   5.224   1.608 -0.5571 -0.0744  0.1469
  245ANI     HC 3424   5.238   5.271   1.662  0.6986 -1.2131 -2.2025
  245ANI     HC 3425   5.144   5.501   1.674  0.7815  0.4767  2.7406
  245ANI     HC 3426   5.299   5.707   1.648 -1.0623 -0.3770  0.9744
  245ANI     HC 3427   5.524   5.671   1.573 -2.6533  2.0969  1.2900
  245ANI     HC 3428   5.611   5.424   1.562  0.8463 -0.4004  1.1724
  245ANI     HN 3429   5.591   5.224   1.576 -0.3037  0.0162  0.8902
  245ANI     HN 3430   5.449   5.142   1.573  1.6392 -1.1244 -0.3632
  246ANI     CN 3431   1.909   5.690   0.888  0.3544  0.1529 -0.5445
  246ANI     CH 3432   1.986   5.807   0.897  0.4082  0.0843 -0.1145
  246ANI     CH 3433   2.092   5.812   0.989 -0.0770  0.0175  0.4525
  246ANI     CH 3434   2.121   5.702   1.070  0.1197 -0.0949  0.2283
  246ANI     CH 3435   2.043   5.585   1.064 -0.0541  0.0200  0.2629
  246ANI     CH 3436   1.940   5.580   0.969  0.0089  0.5799  0.1647
  246ANI     NH 3437   1.809   5.674   0.801 -0.2056 -0.2852  0.1807
  246ANI     HC 3438   1.967   5.897   0.841  2.3971 -0.3680 -1.5506
  246ANI     HC 3439   2.151   5.901   1.000  1.5295 -1.1417  1.2645
  246ANI     HC 3440   2.207   5.703   1.135  1.2788  2.3184 -1.2604
  246ANI     HC 3441   2.064   5.506   1.135  1.7119 -0.1997 -0.4658
  246ANI     HC 3442   1.889   5.486   0.959  1.8241 -0.5463  1.1878
  246ANI     HN 3443   1.751   5.592   0.796  0.2110 -0.6104  0.6386
  246ANI     HN 3444   1.793   5.743   0.729  0.1808 -0.1143  0.2614
  247ANI     CN 3445   0.935   6.048   4.044 -0.2576  0.0040 -0.3447
  247ANI     CH 3446   0.809   6.105   4.065 -0.2509 -0.0759 -0.0864
  247ANI     CH 3447   0.693   6.043   4.019 -0.3451  0.0473 -0.0145
  247ANI     CH 3448   0.707   5.922   3.951  0.1955  0.0556  0.0834
  247ANI     CH 3449   0.830   5.859   3.928  0.0109 -0.4052  0.3643
  247ANI     CH 3450   0.943   5.929   3.971  0.0264  0.4179 -0.9983
  247ANI     NH 3451   1.049   6.101   4.092 -0.2843 -0.3200  0.0776
  247ANI     HC 3452   0.796   6.193   4.127  1.7491 -0.3477  0.7685
  247ANI     HC 3453   0.593   6.083   4.027 -0.9016 -1.1595 -0.7814
  247ANI     HC 3454   0.617   5.873   3.915 -0.7224  3.4163 -2.4449
  247ANI     HC 3455   0.824   5.761   3.883 -0.3442  0.0177 -0.5078
  247ANI     HC 3456   1.035   5.873   3.961 -1.4018 -2.5452  1.5513
  247ANI     HN 3457   1.131   6.067   4.044 -0.4793  0.4012 -0.7885
  247ANI     HN 3458   1.064   6.087   4.190  1.3641 -1.7797 -0.3487
  248ANI     CN 3459   4.194   0.921   3.295  0.2377 -0.5175  0.0762
  248ANI     CH 3460   4.131   0.853   3.190  0.1374 -0.4527  0.0938
  248ANI     CH 3461   4.158   0.896   3.060 -0.0742 -0.1472  0.1525
  248ANI     CH 3462   4.229   1.014   3.034 -0.3702  0.0113  0.0593
  248ANI     CH 3463   4.284   1.084   3.142 -0.0804  0.1814 -0.1968
  248ANI     CH 3464   4.271   1.035   3.273  0.1399 -0.5540 -0.4522
  248ANI     NH 3465   4.190   0.870   3.419  0.0701 -0.9210 -0.0912
  248ANI     HC 3466   4.079   0.759   3.207 -1.3468  0.4611  0.6769
  248ANI     HC 3467   4.116   0.833   2.983 -1.6512  1.5732 -0.4494
  248ANI     HC 3468   4.255   1.043   2.933  1.6567 -1.0540  0.2616
  248ANI     HC 3469   4.353   1.162   3.112 -0.6513  1.3282  1.3448
  248ANI     HC 3470   4.331   1.081   3.350  0.3371 -3.0242  0.9164
  248ANI     HN 3471   4.259   0.911   3.481  1.3699 -0.1495 -1.9940
  248ANI     HN 3472   4.196   0.770   3.412  2.8172 -0.6504 -3.0458
  249ANI     CN 3473   4.098   5.429   2.862 -0.3485  0.2252  0.6897
  249ANI     CH 3474   4.102   5.296   2.907  0.2630  0.0190  0.0341
  249ANI     CH 3475   4.203   5.256   2.995 -0.3630  0.6694  1.0643
  249ANI     CH 3476   4.309   5.341   3.029 -0.1904  0.5833  0.7368
  249ANI     CH 3477   4.310   5.468   2.970 -0.4236  0.2373 -0.0181
  249ANI     CH 3478   4.210   5.510   2.882 -0.0556  0.1153 -0.4994
  249ANI     NH 3479   4.004   5.481   2.782 -0.1556  0.3764  0.5602
  249ANI     HC 3480   4.019   5.232   2.880  1.3696 -1.1122 -0.6828
  249ANI     HC 3481   4.208   5.159   3.044  2.2189  0.3060  0.1570
  249ANI     HC 3482   4.391   5.308   3.091 -1.3414 -0.1554  1.8884
  249ANI     HC 3483   4.398   5.529   2.985  1.2194 -2.0063 -0.2871
  249ANI     HC 3484   4.223   5.611   2.846 -1.1886  0.8347  1.0231
  249ANI     HN 3485   3.916   5.436   2.804 -0.3397  2.0692  3.6013
  249ANI     HN 3486   3.983   5.577   2.805 -0.5315  0.0903  1.4712
  250ANI     CN 3487   5.204   2.687   6.206 -0.1650 -0.0414  0.2831
  250ANI     CH 3488   5.202   2.547   6.210  0.5038 -0.0735 -0.2648
  250ANI     CH 3489   5.108   2.472   6.138 -0.6007  0.5933  0.4556
  250ANI     CH 3490   5.021   2.537   6.050 -0.2681 -0.2207 -0.4874
  250ANI     CH 3491   5.036   2.674   6.026  0.3833 -0.2825 -0.4339
  250ANI     CH 3492   5.129   2.745   6.103 -0.3008 -0.1797  0.3057
  250ANI     NH 3493   5.294   2.758   6.276 -0.1436 -0.0421  0.2573
  250ANI     HC 3494   5.270   2.505   6.283  1.9134  2.0202 -0.3425
  250ANI     HC 3495   5.094   2.366   6.151  0.2621  0.3971 -0.1400
  250ANI     HC 3496   4.953   2.474   5.995  0.2468 -0.2518 -1.0875
  250ANI     HC 3497   4.977   2.727   5.952  1.2942  0.7681 -0.4157
  250ANI     HC 3498   5.150   2.849   6.084  0.8518 -0.5861 -0.6954
  250ANI     HN 3499   5.303   2.727   6.372  1.7406  1.5108  0.6106
  250ANI     HN 3500   5.262   2.853   6.291 -0.6763 -0.2700  0.5897
  251ANI     CN 3501   2.760   2.896   4.212 -0.9558  0.5818 -0.3332
  251ANI     CH 3502   2.812   2.969   4.104 -0.2922  0.1802 -0.2838
  251ANI     CH 3503   2.895   3.078   4.132 -0.0991  0.0132 -0.2082
  251ANI     CH 3504   2.930   3.111   4.264 -0.0205  0.0225 -0.2312
  251ANI     CH 3505   2.892   3.026   4.369  0.1512  0.0852 -0.1174
  251ANI     CH 3506   2.813   2.914   4.340 -0.2317  0.4824 -0.6132
  251ANI     NH 3507   2.681   2.789   4.199 -0.3257  0.0546  0.1596
  251ANI     HC 3508   2.793   2.936   4.003 -3.6299  0.1913  0.2806
  251ANI     HC 3509   2.930   3.136   4.048 -2.9423 -0.9200 -2.0981
  251ANI     HC 3510   3.001   3.190   4.285  0.9050 -0.2731 -2.1312
  251ANI     HC 3511   2.919   3.042   4.472 -0.4791 -0.3780  0.1218
  251ANI     HC 3512   2.799   2.838   4.416 -2.0012 -0.3293 -1.7144
  251ANI     HN 3513   2.590   2.825   4.174  0.1546  1.9640  1.0829
  251ANI     HN 3514   2.677   2.745   4.290  3.4355  0.3695  0.5549
  252ANI     CN 3515   4.332   1.959   3.633 -0.1757 -0.3181 -0.3211
  252ANI     CH 3516   4.442   1.986   3.550  0.0944 -0.0375  0.1274
  252ANI     CH 3517   4.480   1.901   3.446  0.3543  0.1761  0.0488
  252ANI     CH 3518   4.401   1.788   3.423  0.0403  0.4428 -0.1816
  252ANI     CH 3519   4.297   1.757   3.511  0.4633 -0.1116  0.1210
  252ANI     CH 3520   4.261   1.839   3.618 -0.4599 -0.1705 -0.1388
  252ANI     NH 3521   4.297   2.042   3.732 -0.4009 -0.4276 -0.3087
  252ANI     HC 3522   4.494   2.077   3.577  1.3523 -0.2963 -1.4096
  252ANI     HC 3523   4.567   1.928   3.387  0.4446 -2.4125 -1.0595
  252ANI     HC 3524   4.422   1.734   3.332  1.7589  2.0924 -0.7902
  252ANI     HC 3525   4.236   1.672   3.484 -0.1300 -0.8297  3.5509
  252ANI     HC 3526   4.178   1.808   3.679  0.2509  0.1990  1.0335
  252ANI     HN 3527   4.266   2.127   3.686  1.2919  1.2642  1.6191
  252ANI     HN 3528   4.223   1.994   3.781  1.9461 -1.7019  2.1113
  253ANI     CN 3529   2.197   1.325   6.138 -0.1873  0.1552 -0.0945
  253ANI     CH 3530   2.261   1.350   6.259 -0.4219  0.5236 -0.0444
  253ANI     CH 3531   2.188   1.352   6.379 -0.2152 -0.4187  0.0985
  253ANI     CH 3532   2.050   1.330   6.380 -0.3438  0.3749  0.3004
  253ANI     CH 3533   1.992   1.285   6.260  0.0739 -0.9175  0.5683
  253ANI     CH 3534   2.062   1.287   6.139 -0.1614  0.0786  0.4415
  253ANI     NH 3535   2.265   1.342   6.023 -0.2175 -0.1991 -0.1647
  253ANI     HC 3536   2.368   1.367   6.262 -0.6580  2.4730 -1.4938
  253ANI     HC 3537   2.242   1.375   6.470  0.6622 -2.5365  0.1513
  253ANI     HC 3538   1.997   1.338   6.473 -0.4466  3.8666 -0.0144
  253ANI     HC 3539   1.886   1.269   6.263 -0.0805  0.0939  0.9348
  253ANI     HC 3540   2.003   1.278   6.049  0.3072  0.9387  0.0374
  253ANI     HN 3541   2.265   1.277   5.947 -0.1924 -0.1402 -0.2154
  253ANI     HN 3542   2.358   1.380   6.031 -0.8421  1.1325  1.2138
  254ANI     CN 3543   2.444   1.751   1.519  0.3036  0.0923  0.4364
  254ANI     CH 3544   2.482   1.752   1.384  0.1592 -0.4178  0.3912
  254ANI     CH 3545   2.617   1.775   1.353  0.1649 -0.4778  0.3710
  254ANI     CH 3546   2.707   1.811   1.454  0.0428  0.8189  0.0185
  254ANI     CH 3547   2.666   1.809   1.588 -0.5442  0.3869 -0.1673
  254ANI     CH 3548   2.534   1.778   1.623 -0.2094  0.1281  0.8718
  254ANI     NH 3549   2.316   1.726   1.548  0.1955  0.1559  0.0152
  254ANI     HC 3550   2.413   1.734   1.304  0.2213 -0.3677  0.3266
  254ANI     HC 3551   2.645   1.764   1.249 -1.4262 -1.5771  0.0410
  254ANI     HC 3552   2.812   1.817   1.430 -0.5504 -0.2070 -3.0379
  254ANI     HC 3553   2.730   1.839   1.670  0.1777  0.6860 -0.8335
  254ANI     HC 3554   2.497   1.773   1.724 -0.1975 -2.7939  0.7837
  254ANI     HN 3555   2.267   1.650   1.503  0.1356 -0.3463  0.9276
  254ANI     HN 3556   2.291   1.722   1.646 -0.4292  1.6296 -0.0735
  255ANI     CN 3557   2.892   2.389   0.469 -0.1602  0.0061  0.7342
  255ANI     CH 3558   2.766   2.342   0.428  0.1008 -0.2029  0.1762
  255ANI     CH 3559   2.712   2.378   0.304 -0.1065  0.0961  0.3524
  255ANI     CH 3560   2.788   2.457   0.217  0.1297 -0.2023  0.2874
  255ANI     CH 3561   2.914   2.502   0.256  0.2917 -0.6571  0.2889
  255ANI     CH 3562   2.963   2.475   0.385  0.1855 -0.6823  0.3240
  255ANI     NH 3563   2.948   2.338   0.579  0.4435 -0.4734  0.2057
  255ANI     HC 3564   2.711   2.276   0.493  3.7595 -2.1560  1.4401
  255ANI     HC 3565   2.613   2.341   0.283 -0.4480  0.9745  0.3990
  255ANI     HC 3566   2.741   2.488   0.124  0.8136  2.6781  0.8562
  255ANI     HC 3567   2.958   2.571   0.187 -2.0937 -1.6039 -2.2617
  255ANI     HC 3568   3.057   2.518   0.418 -1.6997  0.9724  3.7641
  255ANI     HN 3569   3.048   2.350   0.581  0.4169 -0.2483  0.2771
  255ANI     HN 3570   2.918   2.243   0.598 -1.3193 -0.3589 -1.8242
  256ANI     CN 3571   1.091   4.596   3.583 -0.0536  0.4962 -0.1869
  256ANI     CH 3572   1.168   4.481   3.563 -0.0396  0.4336  0.2270
  256ANI     CH 3573   1.287   4.456   3.633 -0.1881  0.2474  0.4169
  256ANI     CH 3574   1.324   4.553   3.727  0.1360 -0.2996  0.8533
  256ANI     CH 3575   1.255   4.674   3.740 -0.1565 -0.4378  0.5807
  256ANI     CH 3576   1.138   4.698   3.667  0.3343  0.1817 -0.0195
  256ANI     NH 3577   0.976   4.597   3.514 -0.2909 -0.6532  0.1838
  256ANI     HC 3578   1.133   4.399   3.503 -1.0921  0.9880  0.0719
  256ANI     HC 3579   1.345   4.366   3.619  1.2429  0.8078  2.6391
  256ANI     HC 3580   1.414   4.538   3.786  1.7535 -0.2627 -1.5223
  256ANI     HC 3581   1.300   4.749   3.803 -1.0656  0.1531  0.5315
  256ANI     HC 3582   1.081   4.790   3.671  1.3196  0.7103  3.7333
  256ANI     HN 3583   0.954   4.695   3.503  1.3998 -0.4222 -1.3695
  256ANI     HN 3584   0.994   4.561   3.421  1.3115  2.2730 -0.6841
  257ANI     CN 3585   0.254   5.424   1.758  0.4107 -0.2114  0.0778
  257ANI     CH 3586   0.134   5.397   1.825  0.0655 -0.0671 -0.4747
  257ANI     CH 3587   0.035   5.493   1.847 -0.1796 -0.4801  0.2358
  257ANI     CH 3588   0.067   5.624   1.811 -0.1350 -0.6147 -0.2160
  257ANI     CH 3589   0.191   5.658   1.754 -0.6083 -0.3759 -1.1128
  257ANI     CH 3590   0.284   5.557   1.725  0.0917 -0.1118  0.1864
  257ANI     NH 3591   0.341   5.328   1.726  0.1991 -0.3271 -0.1487
  257ANI     HC 3592   0.119   5.302   1.874 -4.5803  0.3439 -0.9334
  257ANI     HC 3593  -0.056   5.469   1.900 -0.4506 -0.8651 -0.3937
  257ANI     HC 3594   0.002   5.707   1.831  0.2235 -0.1176 -1.0549
  257ANI     HC 3595   0.213   5.759   1.725 -0.7019  0.2646  1.0123
  257ANI     HC 3596   0.380   5.579   1.680  1.3309  0.3333  2.9817
  257ANI     HN 3597   0.437   5.339   1.757 -0.1220  0.4900  0.5584
  257ANI     HN 3598   0.323   5.229   1.741  3.5776 -1.2370 -1.6163
  258ANI     CN 3599   6.259   4.248   0.060  0.0171  0.3305  0.1807
  258ANI     CH 3600   6.374   4.240   0.140  0.0910  0.9000  0.1344
  258ANI     CH 3601   6.366   4.208   0.276  0.5087  0.0805 -0.0304
  258ANI     CH 3602   6.240   4.185   0.333  0.4764 -0.6789 -0.3892
  258ANI     CH 3603   6.125   4.207   0.257  0.4852  0.1703 -0.1634
  258ANI     CH 3604   6.133   4.237   0.121 -0.1474  0.6294 -0.1062
  258ANI     NH 3605   6.265   4.287  -0.068 -0.4317  0.0823  0.0827
  258ANI     HC 3606   6.471   4.251   0.094  1.7441  0.5541  3.4155
  258ANI     HC 3607   6.454   4.200   0.338  0.8062 -1.8056 -0.6513
  258ANI     HC 3608   6.227   4.153   0.435  0.0627  3.2172  0.8737
  258ANI     HC 3609   6.024   4.186   0.292  0.6197 -0.3331 -0.0792
  258ANI     HC 3610   6.041   4.250   0.066 -0.2930 -1.2917 -0.3457
  258ANI     HN 3611   6.332   4.363  -0.074 -0.3242 -0.1672 -2.1451
  258ANI     HN 3612   6.179   4.328  -0.103 -0.0367  2.1349  1.4251
  259ANI     CN 3613   6.264   3.137   3.948 -0.4375 -0.4420  0.3023
  259ANI     CH 3614   6.203   3.231   3.864  0.3675 -0.4632 -0.3165
  259ANI     CH 3615   6.242   3.365   3.872  0.0741 -0.4008  0.0910
  259ANI     CH 3616   6.352   3.399   3.951  0.3030 -0.4203 -0.2158
  259ANI     CH 3617   6.411   3.305   4.037 -0.1228 -0.2660  0.2468
  259ANI     CH 3618   6.366   3.172   4.038 -0.4095 -0.1700  0.1655
  259ANI     NH 3619   6.222   3.010   3.942 -0.7282 -0.3261 -0.1322
  259ANI     HC 3620   6.128   3.195   3.795 -1.7889 -0.5368  1.9988
  259ANI     HC 3621   6.190   3.438   3.811 -0.6422 -2.3664 -1.7136
  259ANI     HC 3622   6.394   3.499   3.950 -1.1473  0.1948 -0.8922
  259ANI     HC 3623   6.496   3.337   4.094 -0.2342 -0.9514  0.8094
  259ANI     HC 3624   6.407   3.094   4.099  0.8722 -0.5506 -1.1441
  259ANI     HN 3625   6.309   2.962   3.922 -2.0067 -2.2970 -1.0790
  259ANI     HN 3626   6.154   2.985   3.872 -2.6540  0.9338  1.2302
  260ANI     CN 3627   3.413   0.251   5.268 -0.0296  0.0330  0.0253
  260ANI     CH 3628   3.549   0.239   5.236  0.0006 -0.1690  0.2230
  260ANI     CH 3629   3.592   0.265   5.105  0.0263  0.2606  0.3144
  260ANI     CH 3630   3.508   0.333   5.016  0.0821 -0.6716 -0.4597
  260ANI     CH 3631   3.373   0.352   5.049  0.2967  0.0739 -0.0034
  260ANI     CH 3632   3.326   0.298   5.169  0.1082  0.1029 -0.0632
  260ANI     NH 3633   3.366   0.230   5.392  0.2693 -0.2909  0.0821
  260ANI     HC 3634   3.625   0.212   5.307 -1.5331 -2.6260  0.9761
  260ANI     HC 3635   3.698   0.268   5.089  0.1333  2.4562  1.2447
  260ANI     HC 3636   3.548   0.352   4.917 -0.1400  0.2338 -0.3824
  260ANI     HC 3637   3.308   0.394   4.973  0.1126 -0.8325 -0.3520
  260ANI     HC 3638   3.222   0.318   5.191 -0.2051 -0.8269 -0.7037
  260ANI     HN 3639   3.306   0.307   5.417 -0.3960 -1.4777  2.2787
  260ANI     HN 3640   3.433   0.233   5.468  0.1215  1.7403  0.1530
  261ANI     CN 3641   0.095   2.932   2.505 -0.1956  0.5657  0.1263
  261ANI     CH 3642   0.127   2.808   2.562 -0.5691  0.1954 -0.4696
  261ANI     CH 3643   0.132   2.691   2.485 -0.0155  0.0329 -0.1877
  261ANI     CH 3644   0.087   2.701   2.353  0.4958  0.2267 -0.3480
  261ANI     CH 3645   0.046   2.822   2.296  0.1440  0.2153 -0.1124
  261ANI     CH 3646   0.058   2.940   2.371  0.7052  0.1859 -0.1527
  261ANI     NH 3647   0.118   3.046   2.571 -0.0951  0.4583  0.2788
  261ANI     HC 3648   0.159   2.806   2.665  0.9912  1.3115 -0.9229
  261ANI     HC 3649   0.173   2.600   2.527 -0.3180  0.1949  0.4623
  261ANI     HC 3650   0.081   2.611   2.292 -1.0789  0.4911 -0.6005
  261ANI     HC 3651   0.021   2.826   2.192  0.8498 -1.7652 -0.3789
  261ANI     HC 3652   0.042   3.037   2.326 -0.4641 -0.1576 -0.5091
  261ANI     HN 3653   0.180   3.032   2.649  0.4712  0.8950 -0.0791
  261ANI     HN 3654   0.147   3.121   2.509 -1.8528  0.4510 -0.5683
  262ANI     CN 3655   5.189   2.694   1.577  0.2601  0.6119 -0.1108
  262ANI     CH 3656   5.270   2.584   1.550 -0.0668  0.3456 -0.0084
  262ANI     CH 3657   5.351   2.578   1.435 -0.4727 -0.4468 -0.2574
  262ANI     CH 3658   5.335   2.680   1.341  0.2596  0.0379  0.1432
  262ANI     CH 3659   5.259   2.795   1.366  0.5807  0.3398 -0.2650
  262ANI     CH 3660   5.179   2.795   1.481 -0.0269  0.0415 -0.6829
  262ANI     NH 3661   5.132   2.711   1.697  0.2825  0.8490 -0.1322
  262ANI     HC 3662   5.262   2.495   1.610 -0.9453  0.0813 -0.5047
  262ANI     HC 3663   5.391   2.482   1.408  1.3569  0.4351 -0.7435
  262ANI     HC 3664   5.386   2.673   1.246  1.2471  0.9331  0.5928
  262ANI     HC 3665   5.256   2.875   1.293  0.5484  1.9025  1.4033
  262ANI     HC 3666   5.118   2.881   1.506 -0.8237 -1.2728  2.0282
  262ANI     HN 3667   5.037   2.747   1.698 -0.5674 -1.3141  0.0112
  262ANI     HN 3668   5.125   2.628   1.755  0.5064  0.4455 -0.6795
  263ANI     CN 3669   4.693   4.279   2.705  0.0639  0.0405 -0.2578
  263ANI     CH 3670   4.560   4.315   2.732  0.1572  0.3180 -0.1742
  263ANI     CH 3671   4.464   4.310   2.630 -0.1221  0.0009  0.1023
  263ANI     CH 3672   4.498   4.286   2.496  0.5550  0.6881  0.1431
  263ANI     CH 3673   4.628   4.242   2.473 -0.0494 -0.8885 -0.2804
  263ANI     CH 3674   4.724   4.238   2.575 -0.1360 -0.3610 -0.1804
  263ANI     NH 3675   4.792   4.276   2.796 -0.3948 -0.5170  0.2276
  263ANI     HC 3676   4.540   4.333   2.836  2.6546 -0.2325  0.4438
  263ANI     HC 3677   4.360   4.336   2.642  0.2698  0.7192  2.2065
  263ANI     HC 3678   4.422   4.297   2.420  0.0705 -0.9073  0.3729
  263ANI     HC 3679   4.657   4.209   2.374 -0.4538 -1.0705 -0.3379
  263ANI     HC 3680   4.823   4.204   2.549  0.1438 -0.2830  0.7507
  263ANI     HN 3681   4.868   4.213   2.776  0.4347  0.7047 -0.5487
  263ANI     HN 3682   4.759   4.248   2.887 -4.1703 -0.9330 -1.1465
  264ANI     CN 3683   3.731   2.266   5.193 -0.1237  0.0323  0.4086
  264ANI     CH 3684   3.863   2.280   5.238 -0.4544 -0.5852  1.5975
  264ANI     CH 3685   3.922   2.404   5.265 -0.6099 -0.3643  0.9239
  264ANI     CH 3686   3.853   2.518   5.221 -0.3258 -0.4784  0.1667
  264ANI     CH 3687   3.729   2.508   5.158 -0.0126  0.1562 -0.5618
  264ANI     CH 3688   3.666   2.383   5.151  0.3859 -0.0408 -0.5780
  264ANI     NH 3689   3.669   2.148   5.209 -0.0239 -0.1588 -0.6238
  264ANI     HC 3690   3.929   2.200   5.266 -0.4532 -1.1437  0.0429
  264ANI     HC 3691   4.018   2.400   5.314 -1.1368 -2.8132  1.8384
  264ANI     HC 3692   3.902   2.613   5.233 -1.0023 -0.2345  0.9469
  264ANI     HC 3693   3.683   2.592   5.108  2.3113  2.3589  0.8943
  264ANI     HC 3694   3.569   2.363   5.109 -0.0900  0.3104  0.3316
  264ANI     HN 3695   3.732   2.069   5.210  0.7089  0.3929  2.8628
  264ANI     HN 3696   3.607   2.143   5.129  0.8231  1.2802 -1.3960
  265ANI     CN 3697   4.296   1.768   4.781  0.2767 -0.3370 -0.1620
  265ANI     CH 3698   4.279   1.753   4.643  0.2111  0.1600 -0.2081
  265ANI     CH 3699   4.317   1.856   4.556 -0.0158  0.1615 -0.3079
  265ANI     CH 3700   4.379   1.966   4.618  0.3845 -0.0895 -0.2539
  265ANI     CH 3701   4.407   1.980   4.754  0.3044 -0.3918 -0.2076
  265ANI     CH 3702   4.366   1.875   4.838  0.5589 -0.4942 -0.2088
  265ANI     NH 3703   4.260   1.677   4.873 -0.5447  0.0350 -0.1129
  265ANI     HC 3704   4.225   1.669   4.601 -0.1381 -0.5343  1.5905
  265ANI     HC 3705   4.297   1.863   4.451  2.7728 -2.1061 -1.0665
  265ANI     HC 3706   4.403   2.044   4.547  0.0552  1.7158  1.5517
  265ANI     HC 3707   4.448   2.075   4.783 -1.1020  0.1735  0.0009
  265ANI     HC 3708   4.390   1.881   4.943  0.5859 -0.2221 -0.2303
  265ANI     HN 3709   4.187   1.614   4.844 -2.2883  1.1905  1.6618
  265ANI     HN 3710   4.223   1.723   4.955  1.3890  1.0317  0.2378
  266ANI     CN 3711   5.228   1.533   2.844 -0.0424  0.0684 -0.1412
  266ANI     CH 3712   5.330   1.461   2.781 -0.3241 -0.2888 -0.1926
  266ANI     CH 3713   5.306   1.365   2.682 -0.0792 -0.3020 -0.2403
  266ANI     CH 3714   5.176   1.339   2.637 -0.2230 -0.1518  0.0839
  266ANI     CH 3715   5.070   1.406   2.700 -0.2865  0.1963 -0.3926
  266ANI     CH 3716   5.099   1.496   2.803  0.0309 -0.0294 -0.2853
  266ANI     NH 3717   5.247   1.632   2.932 -0.6395  0.6798 -0.6877
  266ANI     HC 3718   5.436   1.474   2.797 -0.3860  0.2514 -0.1891
  266ANI     HC 3719   5.389   1.311   2.640 -0.1689 -3.4062  3.2778
  266ANI     HC 3720   5.163   1.259   2.565  1.1887 -1.1610  0.9322
  266ANI     HC 3721   4.967   1.382   2.681  0.1261 -0.7806 -1.4559
  266ANI     HC 3722   5.019   1.545   2.856 -1.8361 -1.4911 -1.6559
  266ANI     HN 3723   5.179   1.645   3.006  0.3094  0.0684  0.3132
  266ANI     HN 3724   5.341   1.631   2.967 -0.9384  0.6879  0.1488
  267ANI     CN 3725   1.197   3.910   2.296  0.3743 -0.2818  0.5532
  267ANI     CH 3726   1.278   4.024   2.308 -0.5882  0.3788  0.8922
  267ANI     CH 3727   1.412   4.011   2.345 -0.3704 -0.4484 -0.1444
  267ANI     CH 3728   1.469   3.886   2.371  0.3623 -0.1621 -0.3488
  267ANI     CH 3729   1.391   3.771   2.353  0.0691 -0.2380  1.2776
  267ANI     CH 3730   1.255   3.786   2.324  0.3643 -0.4685 -0.2690
  267ANI     NH 3731   1.072   3.922   2.250  0.5423 -0.0530  0.1512
  267ANI     HC 3732   1.227   4.116   2.288  0.7228  0.3887 -2.7191
  267ANI     HC 3733   1.473   4.099   2.363  0.5516 -1.3313  1.1902
  267ANI     HC 3734   1.574   3.879   2.395  0.5196  0.4903 -0.8467
  267ANI     HC 3735   1.433   3.671   2.351 -0.3110 -0.4050 -2.8819
  267ANI     HC 3736   1.195   3.696   2.313 -1.2658  0.3655  1.5385
  267ANI     HN 3737   1.013   3.970   2.317  2.3510  1.0178  1.0169
  267ANI     HN 3738   1.046   3.825   2.264  1.5612 -0.5490 -1.4138
  268ANI     CN 3739   3.242   2.078   0.683  0.3254 -0.6660 -0.6203
  268ANI     CH 3740   3.263   2.028   0.812 -0.5259 -0.5561 -0.4345
  268ANI     CH 3741   3.388   2.043   0.873 -0.2505 -0.4198 -1.0336
  268ANI     CH 3742   3.492   2.108   0.804  0.4715 -0.0406  0.3902
  268ANI     CH 3743   3.470   2.154   0.674 -0.1856 -0.5663  0.3108
  268ANI     CH 3744   3.344   2.143   0.614  0.2152 -0.4282 -0.5607
  268ANI     NH 3745   3.118   2.062   0.633 -0.1367 -0.5549  0.4638
  268ANI     HC 3746   3.181   1.985   0.869  1.3760  0.1530  2.9996
  268ANI     HC 3747   3.413   2.019   0.975  1.0321  0.0070 -1.2411
  268ANI     HC 3748   3.592   2.122   0.841  0.6068  2.2446 -0.7677
  268ANI     HC 3749   3.553   2.207   0.630 -2.0032  1.4566 -0.7448
  268ANI     HC 3750   3.323   2.176   0.513 -4.4503  4.9493  1.8827
  268ANI     HN 3751   3.082   1.970   0.653 -1.4612  0.3219  2.1900
  268ANI     HN 3752   3.103   2.091   0.537  0.8153  0.6188  0.6580
  269ANI     CN 3753   2.637   4.771   6.044 -0.4300  0.4999 -0.6218
  269ANI     CH 3754   2.677   4.901   6.079  0.1679  0.2246 -0.2735
  269ANI     CH 3755   2.568   4.989   6.084  0.2744  0.3257  0.2665
  269ANI     CH 3756   2.434   4.952   6.072  0.4722 -0.4970  0.5495
  269ANI     CH 3757   2.402   4.818   6.047 -0.0575 -0.1561 -0.6413
  269ANI     CH 3758   2.506   4.724   6.036 -0.1717 -0.3992  0.2839
  269ANI     NH 3759   2.738   4.683   6.040  0.1651  1.1393  0.0418
  269ANI     HC 3760   2.779   4.937   6.081  0.0071  0.8206 -2.1686
  269ANI     HC 3761   2.590   5.093   6.104  0.1081  0.1583  1.3378
  269ANI     HC 3762   2.356   5.026   6.066 -0.0271 -1.0091  0.6418
  269ANI     HC 3763   2.303   4.779   6.029  0.2568 -1.0240 -0.4933
  269ANI     HC 3764   2.477   4.623   6.009 -1.3019 -0.4241  1.5252
  269ANI     HN 3765   2.706   4.601   6.090 -2.3007  0.9366 -1.7368
  269ANI     HN 3766   2.816   4.720   6.091  1.7349 -2.1259  0.1203
  270ANI     CN 3767   0.255   2.830   3.941 -0.4670 -0.1098  0.9332
  270ANI     CH 3768   0.318   2.948   3.982 -0.0197 -0.0146 -0.0199
  270ANI     CH 3769   0.414   2.939   4.083 -0.0284  0.3179  0.0208
  270ANI     CH 3770   0.441   2.819   4.151 -0.2361 -0.0786 -0.5924
  270ANI     CH 3771   0.375   2.702   4.113 -0.0000 -0.4934  0.2782
  270ANI     CH 3772   0.282   2.710   4.009 -0.3852 -0.2584  0.6384
  270ANI     NH 3773   0.162   2.833   3.845  0.5555 -0.4596 -0.0742
  270ANI     HC 3774   0.309   3.040   3.925 -2.7102 -0.4763 -0.4102
  270ANI     HC 3775   0.465   3.030   4.112  0.5756 -0.0038 -0.0208
  270ANI     HC 3776   0.517   2.822   4.228 -0.3388 -1.8024 -0.4032
  270ANI     HC 3777   0.389   2.603   4.156  0.8412 -0.7205 -0.5123
  270ANI     HC 3778   0.230   2.618   3.988 -1.6235  0.6747 -0.4339
  270ANI     HN 3779   0.196   2.869   3.757 -0.1673  1.0893  0.2615
  270ANI     HN 3780   0.144   2.736   3.825  1.0660 -0.4226 -0.7687
  271ANI     CN 3781   1.698   1.448   0.240 -0.0180 -0.3055 -0.2601
  271ANI     CH 3782   1.602   1.507   0.324 -0.1564  0.0392 -0.6575
  271ANI     CH 3783   1.499   1.428   0.376  0.2697  0.3479  0.6901
  271ANI     CH 3784   1.485   1.293   0.339  0.6046  0.3671  0.4874
  271ANI     CH 3785   1.585   1.228   0.265 -0.3859 -0.2228 -0.3372
  271ANI     CH 3786   1.684   1.312   0.212 -0.0821 -0.3557  0.0170
  271ANI     NH 3787   1.797   1.523   0.191  0.3879 -0.2934  0.5743
  271ANI     HC 3788   1.600   1.613   0.344 -1.5377 -0.1088  0.0384
  271ANI     HC 3789   1.428   1.477   0.440  1.6182  0.6775  1.9360
  271ANI     HC 3790   1.400   1.241   0.380  0.3669 -0.6941 -1.3068
  271ANI     HC 3791   1.578   1.126   0.231 -0.9698 -0.3963  0.2884
  271ANI     HC 3792   1.743   1.255   0.142  0.4494  0.4140 -0.1643
  271ANI     HN 3793   1.822   1.515   0.094 -2.9570 -1.3373 -0.2666
  271ANI     HN 3794   1.766   1.619   0.203 -1.6150 -0.8162 -0.2633
  272ANI     CN 3795   0.459   4.316   5.064 -0.2676 -0.2372 -0.1922
  272ANI     CH 3796   0.412   4.444   5.096 -0.3880 -0.1960 -0.5245
  272ANI     CH 3797   0.284   4.467   5.148  0.1725  0.3111  0.6451
  272ANI     CH 3798   0.200   4.356   5.160 -0.1209  0.4266 -0.3454
  272ANI     CH 3799   0.240   4.227   5.123 -1.0652  0.1796 -0.5424
  272ANI     CH 3800   0.369   4.209   5.071 -0.6015  0.0922  0.6183
  272ANI     NH 3801   0.586   4.301   5.025 -0.2363 -0.8285  0.1360
  272ANI     HC 3802   0.481   4.526   5.081  0.0417 -0.4943 -0.1956
  272ANI     HC 3803   0.251   4.565   5.181 -0.9696 -0.0720  0.6616
  272ANI     HC 3804   0.102   4.370   5.203 -0.2409 -0.8693 -0.1733
  272ANI     HC 3805   0.170   4.147   5.140 -1.6089  1.2837  2.7240
  272ANI     HC 3806   0.402   4.112   5.036 -0.6661  0.0185  0.7644
  272ANI     HN 3807   0.621   4.207   5.039 -1.0647 -1.0974  0.4433
  272ANI     HN 3808   0.648   4.358   5.081 -2.9879  1.5510  0.8629
  273ANI     CN 3809   4.088   4.313   5.779 -0.1522 -0.0874 -0.2582
  273ANI     CH 3810   3.976   4.393   5.803 -0.0229 -0.0121  0.1014
  273ANI     CH 3811   3.923   4.393   5.933 -0.0947  0.4122  0.0721
  273ANI     CH 3812   3.974   4.310   6.033 -0.0412 -0.3043 -0.5420
  273ANI     CH 3813   4.085   4.230   6.006 -0.0927 -0.4659 -0.2749
  273ANI     CH 3814   4.145   4.234   5.880  0.2488  0.4251 -0.0838
  273ANI     NH 3815   4.147   4.306   5.659  0.3375 -0.6408  0.0156
  273ANI     HC 3816   3.924   4.447   5.725 -0.3892  1.6546  1.4747
  273ANI     HC 3817   3.831   4.446   5.955 -2.1011 -2.9749  0.2259
  273ANI     HC 3818   3.935   4.305   6.134  0.4631 -0.2689 -0.3420
  273ANI     HC 3819   4.124   4.171   6.088  1.8964  0.1466 -0.7641
  273ANI     HC 3820   4.229   4.173   5.854  0.7166  0.6799  0.8097
  273ANI     HN 3821   4.084   4.268   5.590  0.9291  0.6347 -1.2547
  273ANI     HN 3822   4.217   4.233   5.658  2.0951  1.0384 -0.8806
  274ANI     CN 3823   1.576   1.951   1.949 -0.0105  0.4560 -0.0419
  274ANI     CH 3824   1.666   2.054   1.979  0.5910  0.0284 -0.3756
  274ANI     CH 3825   1.635   2.189   1.963  0.1293 -0.0459 -0.1014
  274ANI     CH 3826   1.510   2.225   1.911 -0.0747 -0.4444  0.1216
  274ANI     CH 3827   1.420   2.122   1.880 -0.4743 -0.1229  0.2162
  274ANI     CH 3828   1.454   1.987   1.892 -0.1701 -0.0691 -0.0361
  274ANI     NH 3829   1.609   1.821   1.961  0.0501  0.4219 -0.5912
  274ANI     HC 3830   1.768   2.030   2.006  1.0919 -0.5558 -2.6755
  274ANI     HC 3831   1.714   2.263   1.963  0.1870 -0.1084 -0.0636
  274ANI     HC 3832   1.489   2.326   1.881  1.4277 -0.2101 -0.1573
  274ANI     HC 3833   1.326   2.147   1.831  0.0485  0.2518 -0.5999
  274ANI     HC 3834   1.381   1.909   1.876  0.2033 -0.5528  0.6104
  274ANI     HN 3835   1.607   1.795   2.058 -0.0307  3.3876  0.2603
  274ANI     HN 3836   1.535   1.769   1.917  0.5974 -0.7181 -0.1639
  275ANI     CN 3837   3.819   0.601   1.650 -0.1897  0.0293 -0.4348
  275ANI     CH 3838   3.919   0.658   1.570  0.1715  0.4085  0.2765
  275ANI     CH 3839   4.052   0.626   1.600  0.1378 -0.2710 -0.2860
  275ANI     CH 3840   4.083   0.555   1.716  0.3109  0.5936  0.2025
  275ANI     CH 3841   3.980   0.492   1.788  0.3423 -0.1354 -0.3843
  275ANI     CH 3842   3.845   0.513   1.756  0.4186 -0.0904 -0.6817
  275ANI     NH 3843   3.697   0.648   1.622 -0.2472 -0.1098 -0.4202
  275ANI     HC 3844   3.898   0.702   1.474  0.7968 -0.4967 -0.2804
  275ANI     HC 3845   4.128   0.660   1.531  0.8172 -1.3174 -0.0675
  275ANI     HC 3846   4.186   0.533   1.741  0.5214  0.6117 -0.6451
  275ANI     HC 3847   4.007   0.430   1.872  1.1152  0.0433 -0.4986
  275ANI     HC 3848   3.767   0.478   1.822  0.5517  0.8337 -0.0121
  275ANI     HN 3849   3.637   0.573   1.652 -0.3163 -0.6405 -1.8127
  275ANI     HN 3850   3.680   0.673   1.525 -0.5960  0.2194 -0.2752
  276ANI     CN 3851   5.069   2.064   5.501  0.3675 -0.3035  0.3627
  276ANI     CH 3852   5.185   2.128   5.456  0.2210 -0.3324 -0.0676
  276ANI     CH 3853   5.235   2.240   5.524 -0.1275 -0.0254 -0.3191
  276ANI     CH 3854   5.171   2.293   5.637  0.5178  0.3493 -0.1248
  276ANI     CH 3855   5.054   2.228   5.679  0.8046 -0.3154 -0.3339
  276ANI     CH 3856   5.004   2.115   5.614  0.2077 -0.4363  0.3312
  276ANI     NH 3857   5.020   1.963   5.427  0.2408 -0.0992  0.1628
  276ANI     HC 3858   5.236   2.091   5.368  2.7842 -0.4420  1.4011
  276ANI     HC 3859   5.326   2.289   5.491  0.8021 -0.3573  1.6853
  276ANI     HC 3860   5.204   2.384   5.684  1.6562 -0.3646  0.4772
  276ANI     HC 3861   4.999   2.268   5.763 -1.2075  0.2482 -1.9015
  276ANI     HC 3862   4.915   2.069   5.654 -0.4682  1.2550  0.8453
  276ANI     HN 3863   5.074   1.894   5.377  0.9209 -0.4105  1.2979
  276ANI     HN 3864   4.931   1.928   5.459 -0.6460  1.5568 -0.4523
  277ANI     CN 3865   4.662   2.777   5.763 -0.8905 -0.4501 -0.4850
  277ANI     CH 3866   4.592   2.894   5.731 -0.8070 -0.2913 -0.0987
  277ANI     CH 3867   4.545   2.978   5.832 -0.7870 -0.2025 -0.1622
  277ANI     CH 3868   4.562   2.941   5.966 -0.1677  0.4729 -0.0494
  277ANI     CH 3869   4.627   2.822   6.001 -0.4976  0.2073 -0.3384
  277ANI     CH 3870   4.685   2.746   5.898  0.2350  0.8126 -0.3772
  277ANI     NH 3871   4.703   2.696   5.665  0.5634 -0.1568 -0.1367
  277ANI     HC 3872   4.575   2.920   5.627 -0.3082  1.2942  0.1969
  277ANI     HC 3873   4.497   3.067   5.795  3.7269  1.5435 -2.1122
  277ANI     HC 3874   4.520   3.006   6.041 -2.1565 -1.6090  0.7007
  277ANI     HC 3875   4.631   2.798   6.106  0.9171  0.0665 -0.4099
  277ANI     HC 3876   4.733   2.652   5.919  0.3130  0.7497 -0.8351
  277ANI     HN 3877   4.794   2.656   5.683  0.8237  0.2872 -0.4529
  277ANI     HN 3878   4.708   2.742   5.575 -0.1684 -0.5985 -0.4130
  278ANI     CN 3879   3.424   5.143   5.000  0.0055  0.3613  0.1019
  278ANI     CH 3880   3.475   5.238   5.089  0.1530  0.1662  0.2249
  278ANI     CH 3881   3.449   5.227   5.227 -0.2078  0.3235  0.1697
  278ANI     CH 3882   3.369   5.127   5.282  0.5698 -0.5802 -0.3336
  278ANI     CH 3883   3.312   5.040   5.188 -0.8149 -0.0853  0.0378
  278ANI     CH 3884   3.338   5.045   5.050  0.3729  0.1208  0.2603
  278ANI     NH 3885   3.437   5.163   4.868  0.1997  0.1434  0.0886
  278ANI     HC 3886   3.514   5.335   5.062  1.0101 -0.5492 -1.1642
  278ANI     HC 3887   3.480   5.307   5.293 -0.7102  0.1168  0.6561
  278ANI     HC 3888   3.339   5.126   5.386  2.2345  1.7302  0.2098
  278ANI     HC 3889   3.240   4.969   5.225  0.8744  0.0755  3.8166
  278ANI     HC 3890   3.286   4.984   4.978 -1.6282  1.1399  0.7886
  278ANI     HN 3891   3.347   5.157   4.822  0.5571 -1.0738 -0.4655
  278ANI     HN 3892   3.489   5.247   4.848  1.6337 -1.0168 -1.2672
  279ANI     CN 3893   0.752   4.666   2.677  0.6025  0.1499  0.3624
  279ANI     CH 3894   0.835   4.631   2.785  0.7490 -0.9439 -0.0947
  279ANI     CH 3895   0.907   4.734   2.847 -0.0850 -0.1959 -0.3518
  279ANI     CH 3896   0.900   4.868   2.805 -0.0071 -0.0831 -0.0041
  279ANI     CH 3897   0.821   4.897   2.693 -0.0760 -0.2974 -0.0124
  279ANI     CH 3898   0.750   4.797   2.627 -0.4863 -0.0075 -0.0097
  279ANI     NH 3899   0.680   4.565   2.626 -0.1271  0.7378  0.2154
  279ANI     HC 3900   0.835   4.527   2.813  3.2211 -1.2867 -1.2525
  279ANI     HC 3901   0.983   4.710   2.919 -1.3070 -0.9454  0.7081
  279ANI     HC 3902   0.947   4.942   2.868  0.7500 -0.6539  0.1221
  279ANI     HC 3903   0.816   5.002   2.668 -2.4193 -0.1074  1.1369
  279ANI     HC 3904   0.681   4.822   2.548 -0.0859 -1.6315 -0.8991
  279ANI     HN 3905   0.638   4.574   2.535 -1.9901 -1.6620  0.7962
  279ANI     HN 3906   0.716   4.474   2.652 -1.5952  0.0726 -0.0824
  280ANI     CN 3907   2.295   2.366   3.004 -0.4129 -0.3191 -0.7455
  280ANI     CH 3908   2.372   2.417   2.898  0.2717 -0.5608 -0.3655
  280ANI     CH 3909   2.350   2.552   2.865 -0.2723 -0.4867  0.2695
  280ANI     CH 3910   2.265   2.633   2.940  0.5153  0.4423  0.1645
  280ANI     CH 3911   2.195   2.576   3.047  0.4254  0.4954  0.1340
  280ANI     CH 3912   2.212   2.443   3.087  0.0895  0.1961 -0.7141
  280ANI     NH 3913   2.308   2.239   3.041 -0.2163 -0.1325 -0.1741
  280ANI     HC 3914   2.437   2.359   2.835 -0.1285  0.9106 -2.1725
  280ANI     HC 3915   2.395   2.598   2.778  1.1256 -3.1738 -0.5161
  280ANI     HC 3916   2.254   2.738   2.919  1.5267  0.8916  1.7659
  280ANI     HC 3917   2.130   2.632   3.113 -0.0855 -1.6564  1.5244
  280ANI     HC 3918   2.166   2.396   3.172 -1.3581  0.3307 -1.4106
  280ANI     HN 3919   2.354   2.191   2.965  0.3997  0.1846 -0.0024
  280ANI     HN 3920   2.225   2.187   3.065 -0.5849  0.8157  0.6036
  281ANI     CN 3921   0.049   3.791   0.204  0.7304  0.4033 -0.1900
  281ANI     CH 3922   0.084   3.657   0.180  0.0408  0.1878 -0.0304
  281ANI     CH 3923   0.111   3.610   0.051 -0.1913 -0.2469  0.0801
  281ANI     CH 3924   0.128   3.706  -0.049  0.1488 -0.1943  0.1847
  281ANI     CH 3925   0.089   3.839  -0.030 -0.7378 -0.4208  0.0069
  281ANI     CH 3926   0.046   3.880   0.096 -0.4021  0.4268 -0.1442
  281ANI     NH 3927   0.007   3.823   0.327  0.0724 -0.4025 -0.2000
  281ANI     HC 3928   0.089   3.587   0.262  0.2905 -0.8821 -0.9588
  281ANI     HC 3929   0.127   3.505   0.034 -1.3242 -0.2134 -1.2100
  281ANI     HC 3930   0.163   3.677  -0.147 -0.1941  3.3839 -1.0597
  281ANI     HC 3931   0.087   3.909  -0.113  1.8543  0.6761  0.7876
  281ANI     HC 3932   0.022   3.983   0.116 -0.9160  0.0812  1.0941
  281ANI     HN 3933   0.067   3.790   0.401  2.6896  1.8406 -1.2591
  281ANI     HN 3934   0.010   3.923   0.323  0.8094 -0.4959 -2.6994
  282ANI     CN 3935   0.466   0.024   6.202  0.0906  0.3490 -0.1824
  282ANI     CH 3936   0.562   0.122   6.229 -0.3740  0.7374  0.0642
  282ANI     CH 3937   0.607   0.145   6.360  0.0641 -0.0208  0.0511
  282ANI     CH 3938   0.562   0.073   6.471 -0.0922  0.4858  0.3170
  282ANI     CH 3939   0.459  -0.017   6.441 -0.0803  0.4796  0.2941
  282ANI     CH 3940   0.411  -0.044   6.312  0.1372  0.8313  0.1394
  282ANI     NH 3941   0.428  -0.003   6.076 -0.3450  0.0829  0.0005
  282ANI     HC 3942   0.594   0.185   6.148 -0.5173 -1.1508 -1.4914
  282ANI     HC 3943   0.683   0.220   6.375  0.3042 -0.2124 -0.2096
  282ANI     HC 3944   0.596   0.101   6.569  3.4776  0.6097 -0.9041
  282ANI     HC 3945   0.408  -0.057   6.527  0.2638  0.9966  0.7404
  282ANI     HC 3946   0.325  -0.109   6.308  1.9758 -1.7128  1.1712
  282ANI     HN 3947   0.349  -0.065   6.073 -1.2489  1.1671  0.9730
  282ANI     HN 3948   0.511  -0.046   6.038 -0.6110  2.4649 -3.4924
  283ANI     CN 3949   4.705   3.561   5.772 -0.4611  0.1523 -0.2088
  283ANI     CH 3950   4.766   3.566   5.647 -0.8421  0.9218 -0.3639
  283ANI     CH 3951   4.848   3.674   5.613  0.3531  0.0737 -0.2117
  283ANI     CH 3952   4.867   3.779   5.704  0.3998 -0.3070  0.2190
  283ANI     CH 3953   4.804   3.774   5.828 -0.0345 -0.2156  0.0044
  283ANI     CH 3954   4.724   3.665   5.864  0.1848 -0.3166  0.1958
  283ANI     NH 3955   4.605   3.475   5.798  0.0086 -0.2063  0.4577
  283ANI     HC 3956   4.746   3.493   5.570  1.5526 -0.1077 -0.0530
  283ANI     HC 3957   4.883   3.691   5.512 -1.4407  0.7221 -0.7354
  283ANI     HC 3958   4.935   3.856   5.669 -1.6254  0.8810 -1.2099
  283ANI     HC 3959   4.834   3.845   5.903 -0.0295 -1.1391  0.8973
  283ANI     HC 3960   4.675   3.663   5.960 -1.1345  1.2875 -0.4233
  283ANI     HN 3961   4.514   3.513   5.820 -0.3830 -1.3761  0.8766
  283ANI     HN 3962   4.589   3.409   5.723 -0.8774 -1.9234  2.1115
  284ANI     CN 3963   0.532   1.600   2.111 -0.2014 -0.0056 -0.0886
  284ANI     CH 3964   0.473   1.726   2.131  0.3054  0.2349 -0.1161
  284ANI     CH 3965   0.408   1.795   2.029 -0.3610  0.1762  0.2665
  284ANI     CH 3966   0.386   1.729   1.907 -0.5341  0.2145  0.2773
  284ANI     CH 3967   0.434   1.599   1.892 -0.3802  0.2721  0.2743
  284ANI     CH 3968   0.509   1.533   1.991  0.2909  0.1819 -0.2875
  284ANI     NH 3969   0.591   1.539   2.215  0.4825  0.2384 -0.3312
  284ANI     HC 3970   0.492   1.772   2.227  0.3106  1.1625 -0.5593
  284ANI     HC 3971   0.373   1.896   2.045  0.1835  0.5332 -0.7747
  284ANI     HC 3972   0.344   1.778   1.820  1.9496  1.9909  0.0375
  284ANI     HC 3973   0.415   1.536   1.806  0.3306 -0.6294  0.7728
  284ANI     HC 3974   0.546   1.433   1.974 -4.2175 -1.4406 -1.3946
  284ANI     HN 3975   0.532   1.463   2.246 -0.1481  1.4357  1.4681
  284ANI     HN 3976   0.598   1.608   2.288  1.0729  1.8987 -1.9078
  285ANI     CN 3977   2.988   5.356   0.080 -0.0199 -0.4192 -0.1220
  285ANI     CH 3978   2.872   5.426   0.117  0.1130 -0.1584 -0.1958
  285ANI     CH 3979   2.753   5.353   0.103 -0.0556  0.0724  0.0252
  285ANI     CH 3980   2.751   5.225   0.047 -0.2451  0.1557 -0.1597
  285ANI     CH 3981   2.871   5.159   0.017 -0.1884  0.1951 -0.0186
  285ANI     CH 3982   2.993   5.225   0.032  0.1648 -0.4713  0.0415
  285ANI     NH 3983   3.106   5.416   0.098 -0.3152 -0.0205  0.5201
  285ANI     HC 3984   2.877   5.526   0.157 -1.3198  0.3948 -1.3476
  285ANI     HC 3985   2.657   5.392   0.132 -0.7895 -1.9593  0.4126
  285ANI     HC 3986   2.658   5.169   0.048  1.2882 -2.4986 -0.2073
  285ANI     HC 3987   2.854   5.059  -0.020  1.0911  0.5304 -1.5504
  285ANI     HC 3988   3.090   5.181   0.014  0.7288  0.8230 -0.1342
  285ANI     HN 3989   3.173   5.355   0.143 -0.6479 -0.3880  0.5184
  285ANI     HN 3990   3.090   5.488   0.167  0.6448 -0.8269  1.6010
  286ANI     CN 3991   2.003   5.852   1.763  0.7650  0.3438 -0.2080
  286ANI     CH 3992   1.950   5.890   1.886  0.0421  0.2835 -0.4972
  286ANI     CH 3993   1.970   5.799   1.991 -0.3600  0.2555 -0.4413
  286ANI     CH 3994   2.032   5.675   1.974  0.0102  0.3753  0.0223
  286ANI     CH 3995   2.082   5.645   1.847  0.0963 -0.0662  0.1594
  286ANI     CH 3996   2.070   5.731   1.737  0.1919 -0.0523  0.1599
  286ANI     NH 3997   1.983   5.937   1.661  0.7551  0.6640  0.0616
  286ANI     HC 3998   1.905   5.986   1.909  1.4472  1.2984 -1.9000
  286ANI     HC 3999   1.915   5.825   2.080  0.6689  2.1444 -0.3363
  286ANI     HC 4000   2.025   5.597   2.049  3.0436 -1.5525 -1.5897
  286ANI     HC 4001   2.115   5.543   1.830 -0.1408 -0.6381  2.8868
  286ANI     HC 4002   2.089   5.707   1.634 -0.4323  0.7474 -0.1517
  286ANI     HN 4003   2.034   5.918   1.576 -1.0145 -1.2230 -0.6494
  286ANI     HN 4004   1.979   6.034   1.687  0.4088  0.9000 -0.8651
  287ANI     CN 4005   5.172   1.063   0.287  0.0085  0.2509 -0.0944
  287ANI     CH 4006   5.168   1.018   0.155 -0.1140  0.1601 -0.0601
  287ANI     CH 4007   5.258   0.922   0.107  0.1081  0.2620  0.1572
  287ANI     CH 4008   5.359   0.870   0.190  0.1752  0.1702  0.0173
  287ANI     CH 4009   5.356   0.906   0.325  0.4022 -0.0753  0.0884
  287ANI     CH 4010   5.265   1.002   0.371  0.3343  0.1554 -0.5248
  287ANI     NH 4011   5.088   1.151   0.344  0.3010  0.2051  0.4032
  287ANI     HC 4012   5.104   1.059   0.078  0.0426 -0.0185 -0.2872
  287ANI     HC 4013   5.260   0.909   0.000  0.7618  0.3924  0.1490
  287ANI     HC 4014   5.430   0.798   0.152  0.8710  0.1852  1.2585
  287ANI     HC 4015   5.426   0.864   0.396 -1.2036 -1.8863  0.6212
  287ANI     HC 4016   5.270   1.031   0.475  0.9021  2.3566 -1.1361
  287ANI     HN 4017   5.085   1.165   0.444  0.1874  0.7672  0.3210
  287ANI     HN 4018   4.995   1.141   0.307  0.6463  1.6920 -0.8859
  288ANI     CN 4019   0.761   0.059   5.756 -0.5102 -0.2154 -0.1643
  288ANI     CH 4020   0.799  -0.064   5.699 -0.0108 -0.1475  0.0240
  288ANI     CH 4021   0.821  -0.173   5.784 -0.0063  0.0898  0.3289
  288ANI     CH 4022   0.788  -0.162   5.920  0.0904  0.3811  0.3280
  288ANI     CH 4023   0.756  -0.037   5.975 -0.2040  0.3026  0.3377
  288ANI     CH 4024   0.740   0.076   5.893  0.0061  0.0076 -0.1115
  288ANI     NH 4025   0.746   0.167   5.678 -0.1902 -0.1600 -0.1492
  288ANI     HC 4026   0.823  -0.071   5.594  1.3595  0.7261  0.2670
  288ANI     HC 4027   0.854  -0.268   5.745  0.9623  0.7028 -0.3435
  288ANI     HC 4028   0.811  -0.250   5.979  0.2232  0.9089  1.0794
  288ANI     HC 4029   0.752  -0.030   6.082  0.8235 -0.8345  0.4634
  288ANI     HC 4030   0.722   0.175   5.932 -1.5852  0.0619 -0.9410
  288ANI     HN 4031   0.724   0.152   5.580 -0.7104 -0.9396  0.0859
  288ANI     HN 4032   0.678   0.230   5.717  1.1183  2.9337 -2.6371
  289ANI     CN 4033   4.239   2.419   1.599 -0.1012 -0.0034 -0.5906
  289ANI     CH 4034   4.370   2.396   1.642 -0.5675 -0.5437  0.5538
  289ANI     CH 4035   4.438   2.274   1.631  0.3673  0.0598 -0.5397
  289ANI     CH 4036   4.361   2.160   1.599 -0.4735  0.2425  0.7920
  289ANI     CH 4037   4.230   2.178   1.556 -0.2407  0.1834  0.0565
  289ANI     CH 4038   4.169   2.305   1.559 -0.6791 -0.0365  0.5003
  289ANI     NH 4039   4.172   2.534   1.617  0.3549  0.1781 -0.0545
  289ANI     HC 4040   4.416   2.490   1.670 -2.4384  0.3701  0.6104
  289ANI     HC 4041   4.545   2.274   1.643  0.5050 -0.8022 -1.6253
  289ANI     HC 4042   4.411   2.065   1.607 -1.1936 -0.2870 -0.8884
  289ANI     HC 4043   4.163   2.100   1.523  0.4694  0.1843 -1.4195
  289ANI     HC 4044   4.066   2.311   1.527 -0.6762  0.5953  0.6161
  289ANI     HN 4045   4.243   2.605   1.625  0.6139 -0.1778  0.8527
  289ANI     HN 4046   4.118   2.567   1.539 -2.1242  2.1763  2.4147
  290ANI     CN 4047   2.665   2.711   5.483 -0.0848 -0.1600 -0.1710
  290ANI     CH 4048   2.726   2.606   5.552 -0.4831 -0.4581 -0.2750
  290ANI     CH 4049   2.860   2.611   5.594 -0.4430  0.5074 -0.5219
  290ANI     CH 4050   2.938   2.724   5.569  0.4043  0.0365 -0.0086
  290ANI     CH 4051   2.877   2.832   5.504  0.2095  0.1545  0.3733
  290ANI     CH 4052   2.743   2.826   5.464  0.2282 -0.2754  0.3701
  290ANI     NH 4053   2.542   2.695   5.434 -0.1802  0.3543 -0.1038
  290ANI     HC 4054   2.666   2.517   5.567 -0.3307 -0.1527  2.4411
  290ANI     HC 4055   2.905   2.529   5.648 -3.5800  0.1930  1.7402
  290ANI     HC 4056   3.044   2.730   5.588  0.2589 -1.0189  1.1645
  290ANI     HC 4057   2.922   2.924   5.471 -1.9821  1.5665  1.1860
  290ANI     HC 4058   2.699   2.906   5.405  1.0933 -0.6795 -0.8363
  290ANI     HN 4059   2.556   2.724   5.338  0.3070 -1.6478 -0.6523
  290ANI     HN 4060   2.500   2.603   5.435 -0.2967  0.4028  3.2743
  291ANI     CN 4061   5.640   5.105   2.836  0.1896 -0.0704  0.4087
  291ANI     CH 4062   5.625   4.974   2.788  0.2884 -0.0470  0.3111
  291ANI     CH 4063   5.723   4.918   2.705  0.1913 -0.4523  0.4673
  291ANI     CH 4064   5.833   4.997   2.667 -0.0694 -0.1836  0.2654
  291ANI     CH 4065   5.847   5.129   2.712 -0.4145 -0.0078 -0.1482
  291ANI     CH 4066   5.747   5.184   2.792 -0.0747  0.1538  0.1643
  291ANI     NH 4067   5.550   5.155   2.921 -0.1262  0.2019 -0.0806
  291ANI     HC 4068   5.543   4.908   2.811  0.3587 -0.4899 -0.6745
  291ANI     HC 4069   5.722   4.822   2.655  0.6032 -0.9608  1.4245
  291ANI     HC 4070   5.911   4.964   2.600  0.5149 -0.0178  0.8555
  291ANI     HC 4071   5.925   5.198   2.684 -2.4125  1.9842 -0.9064
  291ANI     HC 4072   5.758   5.287   2.823 -2.6254  0.2155  0.9935
  291ANI     HN 4073   5.472   5.103   2.958  0.1183 -0.2845 -0.2492
  291ANI     HN 4074   5.557   5.250   2.954  0.4032 -0.6128  2.2673
  292ANI     CN 4075   6.175   5.050   2.317 -0.0853  0.1589 -0.1024
  292ANI     CH 4076   6.179   5.181   2.269 -0.6796  0.1943 -0.0570
  292ANI     CH 4077   6.179   5.287   2.360 -0.2595  0.1653 -0.0256
  292ANI     CH 4078   6.153   5.264   2.496  0.0429  0.0098  0.0058
  292ANI     CH 4079   6.147   5.133   2.543  0.6521 -0.0832 -0.1704
  292ANI     CH 4080   6.151   5.026   2.453 -0.8018 -0.0642 -0.2648
  292ANI     NH 4081   6.172   4.948   2.231  0.4309 -0.0301  0.1011
  292ANI     HC 4082   6.193   5.190   2.162 -1.2374 -0.3283 -0.1761
  292ANI     HC 4083   6.186   5.385   2.314 -4.5313  0.1988 -0.8073
  292ANI     HC 4084   6.161   5.349   2.562  0.1279  1.1547 -1.4568
  292ANI     HC 4085   6.153   5.105   2.648  0.7415  1.6799  0.3019
  292ANI     HC 4086   6.146   4.924   2.489 -0.4690 -0.4141 -1.1831
  292ANI     HN 4087   6.115   4.869   2.259 -0.2548  0.3886 -0.0803
  292ANI     HN 4088   6.172   4.966   2.131 -1.1473 -0.8053 -0.0664
  293ANI     CN 4089   4.142   3.822   2.916  0.6227 -0.3549 -0.3760
  293ANI     CH 4090   4.130   3.686   2.889  0.2214 -0.4533  0.2734
  293ANI     CH 4091   4.048   3.642   2.783 -0.2104  0.1566  0.3564
  293ANI     CH 4092   3.965   3.736   2.721  0.0771 -0.0865 -0.4037
  293ANI     CH 4093   3.967   3.871   2.758  0.1325 -0.2230  0.1097
  293ANI     CH 4094   4.056   3.916   2.855  0.0949 -0.4320  0.2405
  293ANI     NH 4095   4.232   3.872   3.001  0.2657 -0.5318  0.1094
  293ANI     HC 4096   4.197   3.610   2.927 -0.2384 -0.2653  1.4649
  293ANI     HC 4097   4.042   3.539   2.753  0.6737 -0.0053  0.6982
  293ANI     HC 4098   3.894   3.693   2.652 -1.3228 -0.5484  1.2897
  293ANI     HC 4099   3.904   3.938   2.699 -1.0751 -2.7802 -1.6069
  293ANI     HC 4100   4.045   4.017   2.890  0.3476 -0.4170  0.2814
  293ANI     HN 4101   4.289   3.949   2.969  1.0661 -1.5913 -1.0933
  293ANI     HN 4102   4.294   3.811   3.053 -0.5822 -0.7937  0.8112
  294ANI     CN 4103   1.708   5.160   4.450 -0.6051  0.3286 -0.2436
  294ANI     CH 4104   1.582   5.153   4.510 -0.7341  0.8894 -0.4460
  294ANI     CH 4105   1.484   5.071   4.452 -0.2938  0.1508 -0.1536
  294ANI     CH 4106   1.512   5.009   4.330  0.5393  0.3374 -0.0574
  294ANI     CH 4107   1.638   5.022   4.270  0.3498 -0.1854 -0.5633
  294ANI     CH 4108   1.741   5.092   4.332 -0.0921 -0.2250  0.2191
  294ANI     NH 4109   1.804   5.230   4.512 -0.6935  0.0856  0.1703
  294ANI     HC 4110   1.562   5.202   4.604 -0.4585 -0.0057  0.0897
  294ANI     HC 4111   1.400   5.054   4.518  0.6560 -1.5277  0.6557
  294ANI     HC 4112   1.432   4.955   4.281  1.8242 -0.4168 -1.3538
  294ANI     HC 4113   1.652   4.983   4.170 -1.4371  0.0817 -0.9334
  294ANI     HC 4114   1.841   5.107   4.292  0.3271 -0.6676  1.0801
  294ANI     HN 4115   1.769   5.269   4.598 -3.7635 -0.0469 -0.9387
  294ANI     HN 4116   1.878   5.165   4.537 -0.9675  0.0499  0.8957
  295ANI     CN 4117   5.232   3.166   3.074  0.7356 -0.0393 -0.1217
  295ANI     CH 4118   5.189   3.299   3.059  0.4620 -0.1048  0.0839
  295ANI     CH 4119   5.278   3.407   3.058 -0.0967  0.3562  0.2668
  295ANI     CH 4120   5.414   3.377   3.066 -0.1605 -0.0346 -0.0763
  295ANI     CH 4121   5.455   3.243   3.068  0.2178  0.0773 -0.4097
  295ANI     CH 4122   5.368   3.134   3.078  0.6818 -0.2566  0.0180
  295ANI     NH 4123   5.145   3.065   3.066  0.9453 -0.1921 -0.4912
  295ANI     HC 4124   5.084   3.323   3.057  0.9490  2.2884  1.0708
  295ANI     HC 4125   5.233   3.505   3.048 -2.0797 -0.4948  0.6025
  295ANI     HC 4126   5.492   3.452   3.068  1.5663 -1.8084  1.8473
  295ANI     HC 4127   5.552   3.199   3.083  0.8118  1.5145  0.1329
  295ANI     HC 4128   5.412   3.036   3.078 -0.6329 -0.8488  1.4352
  295ANI     HN 4129   5.179   2.984   3.016  1.2430 -1.6210  1.9164
  295ANI     HN 4130   5.065   3.110   3.025  2.1143  2.3725 -0.0448
  296ANI     CN 4131   0.227   4.744   0.797 -0.0572  0.1095 -0.0064
  296ANI     CH 4132   0.337   4.695   0.726 -0.1931 -0.0777 -0.0859
  296ANI     CH 4133   0.442   4.630   0.791 -0.1391  0.2483  0.1504
  296ANI     CH 4134   0.437   4.617   0.931  0.0757  0.0246  0.1379
  296ANI     CH 4135   0.327   4.661   1.005  0.1404  0.5525 -0.0810
  296ANI     CH 4136   0.226   4.729   0.936 -0.4794 -0.3387 -0.0573
  296ANI     NH 4137   0.116   4.780   0.732  0.1954  0.0988 -0.4431
  296ANI     HC 4138   0.339   4.691   0.618  0.9787 -2.6008 -0.0107
  296ANI     HC 4139   0.525   4.584   0.739  0.4434 -1.0476  2.1474
  296ANI     HC 4140   0.514   4.562   0.983 -0.4157 -3.6190 -2.7083
  296ANI     HC 4141   0.325   4.658   1.113 -0.4109  1.2904 -0.0595
  296ANI     HC 4142   0.136   4.755   0.990 -0.5659  0.3743 -0.5417
  296ANI     HN 4143   0.025   4.792   0.774 -0.7809  2.7007 -3.0985
  296ANI     HN 4144   0.104   4.738   0.640 -0.8904  0.2009 -0.3515
  297ANI     CN 4145   0.407   2.585   3.251  0.1532 -0.2483 -0.1444
  297ANI     CH 4146   0.464   2.600   3.378  0.1712  0.5834 -0.2488
  297ANI     CH 4147   0.383   2.606   3.493  0.1635 -0.7063 -0.1817
  297ANI     CH 4148   0.244   2.608   3.477  0.1892  0.1564 -0.2856
  297ANI     CH 4149   0.188   2.589   3.350 -0.0607 -0.0195 -0.1486
  297ANI     CH 4150   0.268   2.582   3.235  0.1323  0.0808 -0.0199
  297ANI     NH 4151   0.493   2.563   3.150  0.2709 -0.1727 -0.0619
  297ANI     HC 4152   0.571   2.588   3.385  0.0215  0.2754  1.8309
  297ANI     HC 4153   0.424   2.611   3.593 -2.2629 -3.2971  1.0264
  297ANI     HC 4154   0.176   2.622   3.559  0.0028 -1.1978 -0.2116
  297ANI     HC 4155   0.081   2.596   3.338  0.0257 -0.5972 -1.3944
  297ANI     HC 4156   0.229   2.582   3.134 -1.7369 -2.4205  0.6504
  297ANI     HN 4157   0.454   2.532   3.061  0.6033 -1.0596  0.0963
  297ANI     HN 4158   0.555   2.490   3.181 -1.0726 -0.3675  2.2988
  298ANI     CN 4159   2.739   2.831   5.100 -0.2471  0.0612  0.0475
  298ANI     CH 4160   2.812   2.946   5.072  0.6991 -0.4245  0.4871
  298ANI     CH 4161   2.942   2.935   5.020  0.4927  0.1268 -0.1665
  298ANI     CH 4162   3.001   2.808   5.013  0.7205  0.2151  0.1298
  298ANI     CH 4163   2.934   2.695   5.060  0.5057  0.2405 -0.1127
  298ANI     CH 4164   2.804   2.707   5.109  0.2293  0.2447 -0.8478
  298ANI     NH 4165   2.607   2.831   5.123 -0.3902 -0.5219 -0.7564
  298ANI     HC 4166   2.757   3.039   5.080  1.4514  0.0320  0.4357
  298ANI     HC 4167   2.996   3.026   4.999 -1.0979  0.6854 -1.9600
  298ANI     HC 4168   3.101   2.802   4.973  0.3549 -0.9433 -0.6285
  298ANI     HC 4169   2.989   2.603   5.045  1.1329  0.0951  2.7199
  298ANI     HC 4170   2.752   2.619   5.143 -1.0368  0.9659 -0.8742
  298ANI     HN 4171   2.565   2.915   5.162 -1.0258 -1.1831  0.0046
  298ANI     HN 4172   2.552   2.825   5.038  0.5419 -1.1514 -1.3165
  299ANI     CN 4173   2.216   6.269   6.013 -0.8572  0.1262 -0.0679
  299ANI     CH 4174   2.259   6.401   5.992  0.3034 -0.1999  0.1977
  299ANI     CH 4175   2.241   6.502   6.086  0.5809 -0.0906  0.1322
  299ANI     CH 4176   2.196   6.473   6.215  0.0816 -0.0412 -0.0302
  299ANI     CH 4177   2.169   6.339   6.247 -0.4844  0.0847  0.0125
  299ANI     CH 4178   2.178   6.244   6.145 -0.5994  0.0869  0.0014
  299ANI     NH 4179   2.227   6.170   5.924 -0.2657  0.3751 -0.2755
  299ANI     HC 4180   2.295   6.432   5.895 -2.0423 -0.0171 -0.6517
  299ANI     HC 4181   2.271   6.601   6.055 -1.3841  0.0922 -1.2673
  299ANI     HC 4182   2.201   6.547   6.294 -0.0385 -1.7431  1.6053
  299ANI     HC 4183   2.134   6.315   6.347  1.7586  0.0094  0.7957
  299ANI     HC 4184   2.151   6.146   6.182  0.4648 -0.7971 -1.5147
  299ANI     HN 4185   2.270   6.091   5.971 -3.4895 -1.1737  0.2249
  299ANI     HN 4186   2.282   6.185   5.840  0.8416 -0.5590  0.2660
  300ANI     CN 4187   6.174   1.160   5.495 -0.1720  0.3440 -0.3731
  300ANI     CH 4188   6.287   1.128   5.418  0.2107  0.1657  0.2596
  300ANI     CH 4189   6.362   1.012   5.440 -0.4935 -0.3919 -0.2568
  300ANI     CH 4190   6.328   0.938   5.553  0.2596  0.0873  0.2886
  300ANI     CH 4191   6.228   0.978   5.642  0.0145  0.1276 -0.0018
  300ANI     CH 4192   6.146   1.088   5.612  0.1699  0.1230 -0.4287
  300ANI     NH 4193   6.093   1.261   5.460 -0.9465 -0.1401  0.0148
  300ANI     HC 4194   6.317   1.188   5.333 -1.3097 -0.7420 -0.9510
  300ANI     HC 4195   6.440   0.993   5.368 -0.6864  0.3425 -0.6645
  300ANI     HC 4196   6.374   0.843   5.578  0.5888 -0.4940 -2.3388
  300ANI     HC 4197   6.208   0.910   5.724 -1.4247  0.2440 -0.2455
  300ANI     HC 4198   6.064   1.104   5.679  0.5617  0.3813 -0.0094
  300ANI     HN 4199   6.073   1.279   5.363  1.5523  0.2945 -0.4377
  300ANI     HN 4200   6.004   1.268   5.508 -0.9561 -0.6001  0.0695
  301ANI     CN 4201   2.943   2.104   3.729  0.1841 -0.4477 -0.0019
  301ANI     CH 4202   2.996   2.211   3.803 -1.1893  0.6288 -0.5621
  301ANI     CH 4203   3.064   2.184   3.923 -0.8128  0.4088 -0.8231
  301ANI     CH 4204   3.085   2.052   3.963  0.3193  0.4687 -1.1956
  301ANI     CH 4205   3.029   1.946   3.891  0.1232 -0.2713  0.0361
  301ANI     CH 4206   2.959   1.972   3.773 -0.1848 -0.4301  0.1818
  301ANI     NH 4207   2.891   2.127   3.608  0.0559 -0.0464  0.1280
  301ANI     HC 4208   2.981   2.315   3.779 -1.6903  0.2942 -1.7184
  301ANI     HC 4209   3.109   2.264   3.979 -0.1008  0.1061 -0.9680
  301ANI     HC 4210   3.138   2.038   4.056  0.9355 -0.2109 -1.6470
  301ANI     HC 4211   3.028   1.843   3.926  2.8158 -0.0561  0.8648
  301ANI     HC 4212   2.919   1.889   3.716 -1.1116 -0.2131  0.5078
  301ANI     HN 4213   2.866   2.224   3.596  0.9101  0.0568 -0.8878
  301ANI     HN 4214   2.800   2.086   3.593  0.9789 -2.4149  0.6685
  302ANI     CN 4215   4.600   2.964   0.249  0.2102 -0.5498 -0.4274
  302ANI     CH 4216   4.491   2.975   0.336  0.4155  0.1980 -0.2608
  302ANI     CH 4217   4.363   2.986   0.281  0.1286 -0.3675  0.2791
  302ANI     CH 4218   4.343   2.976   0.142  0.1396 -0.2296  0.2673
  302ANI     CH 4219   4.455   2.965   0.058  0.1532 -0.8749  0.3643
  302ANI     CH 4220   4.584   2.954   0.111  0.5593 -0.2588 -0.4893
  302ANI     NH 4221   4.725   2.947   0.297  0.1529 -0.0986 -0.1147
  302ANI     HC 4222   4.493   2.982   0.444 -1.4104 -0.7803 -0.1399
  302ANI     HC 4223   4.282   3.015   0.346  0.4410  1.0327  0.0624
  302ANI     HC 4224   4.243   2.996   0.109  0.4374  0.7753 -0.0389
  302ANI     HC 4225   4.441   2.961  -0.049 -0.8093 -1.6262  0.5099
  302ANI     HC 4226   4.662   2.948   0.036 -0.4655 -0.5491 -1.5427
  302ANI     HN 4227   4.731   2.947   0.397 -0.6775  0.0632 -0.0623
  302ANI     HN 4228   4.753   2.855   0.268 -3.6471 -1.7833  1.3016
  303ANI     CN 4229   1.292   2.205   1.395 -0.3627  0.2254 -0.1581
  303ANI     CH 4230   1.204   2.297   1.338 -0.0823  0.4617 -0.2058
  303ANI     CH 4231   1.182   2.419   1.404 -0.1128  0.0204  0.6022
  303ANI     CH 4232   1.242   2.450   1.527  0.1707  0.6464  0.3073
  303ANI     CH 4233   1.328   2.355   1.583 -0.4492 -0.2087 -0.1681
  303ANI     CH 4234   1.349   2.232   1.520 -0.5994 -0.3626  0.0813
  303ANI     NH 4235   1.331   2.091   1.336 -0.2967  0.0808  0.1582
  303ANI     HC 4236   1.164   2.278   1.240  2.7800 -2.5428 -0.8469
  303ANI     HC 4237   1.113   2.492   1.363  0.6714 -0.3650 -1.4919
  303ANI     HC 4238   1.209   2.541   1.574 -0.0155  0.4480  0.5582
  303ANI     HC 4239   1.365   2.383   1.681 -1.8169  1.3513 -0.0776
  303ANI     HC 4240   1.419   2.168   1.572 -1.4267 -2.3580 -1.2077
  303ANI     HN 4241   1.399   2.029   1.376  0.6030  2.1803  1.9672
  303ANI     HN 4242   1.277   2.053   1.259  0.3368 -1.8881  0.6632
  304ANI     CN 4243   4.396   4.722   3.535 -0.4290  0.0679  0.1555
  304ANI     CH 4244   4.452   4.617   3.609  0.4436  0.3956 -0.0347
  304ANI     CH 4245   4.479   4.491   3.556  0.2605  0.2745  0.1645
  304ANI     CH 4246   4.466   4.477   3.418 -0.6456  0.3143  0.2399
  304ANI     CH 4247   4.420   4.581   3.337 -0.6206 -0.0318 -0.2249
  304ANI     CH 4248   4.391   4.705   3.396  0.1921 -0.0092  0.1374
  304ANI     NH 4249   4.381   4.845   3.586  0.1458  0.1772  0.0636
  304ANI     HC 4250   4.456   4.628   3.717 -0.7477 -2.3162  0.3263
  304ANI     HC 4251   4.515   4.409   3.618  0.4995  0.5639  0.4119
  304ANI     HC 4252   4.495   4.384   3.372 -0.1499  1.0572 -0.9787
  304ANI     HC 4253   4.398   4.575   3.232 -2.4694  1.9909  0.0109
  304ANI     HC 4254   4.351   4.785   3.335 -1.2806  0.5672  1.7833
  304ANI     HN 4255   4.382   4.856   3.686  0.4547 -0.5203  0.1415
  304ANI     HN 4256   4.452   4.906   3.548  1.1112 -1.4181 -0.7718
  305ANI     CN 4257   1.478   2.375   5.699  0.3378 -0.0105 -0.1806
  305ANI     CH 4258   1.526   2.386   5.830 -0.3327 -0.6916  0.1270
  305ANI     CH 4259   1.663   2.367   5.847 -0.3720 -0.9980  0.1100
  305ANI     CH 4260   1.751   2.348   5.739  0.0875  0.7527  0.1671
  305ANI     CH 4261   1.698   2.340   5.610  0.0467 -0.5629  0.2564
  305ANI     CH 4262   1.562   2.361   5.587  0.2072 -0.0614 -0.2718
  305ANI     NH 4263   1.351   2.410   5.672  0.2784 -0.1091 -0.0305
  305ANI     HC 4264   1.459   2.403   5.913 -1.2071  0.5031 -0.7983
  305ANI     HC 4265   1.696   2.370   5.950  3.3364  1.1090 -1.0444
  305ANI     HC 4266   1.857   2.351   5.758  0.0762 -0.2847  0.3917
  305ANI     HC 4267   1.761   2.325   5.523  0.6770  1.5470  0.3181
  305ANI     HC 4268   1.520   2.366   5.488  0.6484 -1.0771 -0.5194
  305ANI     HN 4269   1.310   2.353   5.599  1.2232  0.8944 -1.3802
  305ANI     HN 4270   1.296   2.396   5.755 -1.6562  2.4562 -0.8086
  306ANI     CN 4271   1.598   1.757   5.831 -0.0392  0.1516  0.9214
  306ANI     CH 4272   1.687   1.838   5.759 -0.2178 -0.0939  0.4200
  306ANI     CH 4273   1.655   1.972   5.730  0.0086 -0.0757  0.2528
  306ANI     CH 4274   1.524   2.012   5.759  0.0350  0.0557  0.1869
  306ANI     CH 4275   1.432   1.934   5.829 -0.2342  0.5730  0.4100
  306ANI     CH 4276   1.470   1.804   5.863 -0.1607  0.4829 -0.0147
  306ANI     NH 4277   1.654   1.645   5.878  0.0052 -0.2731 -0.1310
  306ANI     HC 4278   1.787   1.807   5.732  0.6123  2.1025  0.8711
  306ANI     HC 4279   1.714   2.035   5.666 -0.2624 -1.0101 -0.9253
  306ANI     HC 4280   1.506   2.115   5.730 -0.2506  0.4895  1.8575
  306ANI     HC 4281   1.327   1.955   5.843 -1.0162 -1.5269 -2.0274
  306ANI     HC 4282   1.401   1.736   5.911  0.9467 -1.1852 -0.7139
  306ANI     HN 4283   1.637   1.615   5.973 -0.8025  1.4238  0.2841
  306ANI     HN 4284   1.742   1.618   5.836  0.5328  0.0999  0.7245
  307ANI     CN 4285   5.685   1.529   4.330 -0.1434  0.5478  0.9673
  307ANI     CH 4286   5.558   1.588   4.323 -0.1433  0.4474  0.0561
  307ANI     CH 4287   5.531   1.696   4.408 -0.0715  0.3780  0.1669
  307ANI     CH 4288   5.627   1.739   4.500 -0.0405  0.0089  0.3087
  307ANI     CH 4289   5.747   1.668   4.514 -0.2286 -0.2465  0.6055
  307ANI     CH 4290   5.777   1.561   4.430  0.5407  0.0556  0.4946
  307ANI     NH 4291   5.715   1.431   4.243 -0.2451  0.7755  0.6748
  307ANI     HC 4292   5.491   1.551   4.246  0.2951  0.8856 -0.5425
  307ANI     HC 4293   5.431   1.735   4.400 -1.1694 -2.1556  0.9127
  307ANI     HC 4294   5.617   1.826   4.563  1.8567 -0.7829  1.7465
  307ANI     HC 4295   5.816   1.709   4.586  2.2755  0.1315 -1.9374
  307ANI     HC 4296   5.874   1.514   4.439  0.5842 -0.0424 -0.3857
  307ANI     HN 4297   5.815   1.419   4.233 -0.7657 -2.1245 -1.5882
  307ANI     HN 4298   5.685   1.428   4.146  0.4255  1.5995  0.4275
  308ANI     CN 4299   1.604   1.703   3.696  0.1071 -0.3982  0.0595
  308ANI     CH 4300   1.582   1.802   3.793  0.1967 -0.2802 -0.0412
  308ANI     CH 4301   1.500   1.770   3.902 -0.5015 -0.5919 -0.6543
  308ANI     CH 4302   1.442   1.643   3.912 -0.4144 -0.5719  0.0707
  308ANI     CH 4303   1.460   1.545   3.814  0.2718 -0.7145  0.3385
  308ANI     CH 4304   1.539   1.579   3.704 -0.5006 -0.0847 -0.0186
  308ANI     NH 4305   1.684   1.727   3.591 -0.7508  0.6466 -0.3610
  308ANI     HC 4306   1.626   1.900   3.794  0.7075 -0.5043 -0.3277
  308ANI     HC 4307   1.502   1.848   3.976 -0.6126  1.5813 -2.8636
  308ANI     HC 4308   1.377   1.624   3.997  0.4821 -0.7522  0.7224
  308ANI     HC 4309   1.411   1.449   3.827 -2.1131  0.3956 -0.3332
  308ANI     HC 4310   1.554   1.504   3.628  2.5666 -0.1571  0.6008
  308ANI     HN 4311   1.706   1.645   3.536 -0.6348  0.2955  0.1987
  308ANI     HN 4312   1.770   1.775   3.612 -1.2897  1.4121  0.1385
  309ANI     CN 4313   1.347   0.668   3.312 -0.1013  0.3021  0.0518
  309ANI     CH 4314   1.250   0.749   3.252 -0.2373  0.3233  0.3030
  309ANI     CH 4315   1.138   0.692   3.189  0.2484 -0.3843  0.0765
  309ANI     CH 4316   1.120   0.553   3.186 -0.5795 -0.2712 -0.1957
  309ANI     CH 4317   1.219   0.472   3.243 -0.3969  0.1923  0.1575
  309ANI     CH 4318   1.330   0.529   3.305  0.1043  0.3133 -0.8335
  309ANI     NH 4319   1.457   0.723   3.366  0.1487  0.0947 -0.2386
  309ANI     HC 4320   1.273   0.854   3.250  0.2004  0.2239  0.0340
  309ANI     HC 4321   1.072   0.754   3.130 -0.9212  0.2045  1.9792
  309ANI     HC 4322   1.046   0.500   3.129 -1.3574  1.7994 -1.1713
  309ANI     HC 4323   1.214   0.365   3.228 -3.1769  0.1598  1.0359
  309ANI     HC 4324   1.408   0.472   3.354 -0.0731  0.5300 -0.2871
  309ANI     HN 4325   1.427   0.785   3.440  0.3149 -0.0187 -0.0751
  309ANI     HN 4326   1.515   0.649   3.403 -0.2662 -0.7393 -1.2395
  310ANI     CN 4327   1.942   5.367   2.526  0.3299 -0.2751  0.2850
  310ANI     CH 4328   1.897   5.435   2.639 -0.2809  0.1180 -0.1884
  310ANI     CH 4329   1.984   5.447   2.748  0.3720  0.5492 -0.7577
  310ANI     CH 4330   2.118   5.406   2.739  0.1515 -0.2731 -0.3604
  310ANI     CH 4331   2.157   5.328   2.630  0.4616 -0.0295 -0.4269
  310ANI     CH 4332   2.065   5.300   2.527  0.2952 -0.3522 -0.1937
  310ANI     NH 4333   1.856   5.359   2.424  0.0326  0.0993  0.5059
  310ANI     HC 4334   1.796   5.473   2.640  0.3297  1.7677  0.7028
  310ANI     HC 4335   1.943   5.496   2.835 -0.2973  0.8235 -1.2274
  310ANI     HC 4336   2.186   5.424   2.821 -1.2694  0.4615  0.6847
  310ANI     HC 4337   2.257   5.289   2.629  0.4083 -0.2246  0.8466
  310ANI     HC 4338   2.092   5.248   2.436 -1.9545  0.9938 -1.6687
  310ANI     HN 4339   1.890   5.308   2.343  1.6849  2.3154 -0.2327
  310ANI     HN 4340   1.803   5.436   2.387 -0.2119 -0.0768  0.4835
  311ANI     CN 4341   3.912   4.564   2.809  0.3687  0.0701 -0.5194
  311ANI     CH 4342   3.948   4.433   2.842  0.0915  0.1792  0.2298
  311ANI     CH 4343   4.082   4.397   2.860 -0.0293 -0.2441  0.2867
  311ANI     CH 4344   4.180   4.492   2.831 -0.2376 -0.2433 -0.4458
  311ANI     CH 4345   4.145   4.623   2.795  0.2722 -0.0491 -0.2360
  311ANI     CH 4346   4.011   4.660   2.785  0.3317  0.2301 -0.0246
  311ANI     NH 4347   3.782   4.596   2.795  0.1698 -0.6609 -0.3982
  311ANI     HC 4348   3.870   4.360   2.857  2.2692 -2.1190  0.7350
  311ANI     HC 4349   4.119   4.305   2.903 -0.1495 -0.0411  0.8182
  311ANI     HC 4350   4.284   4.475   2.855 -0.7056 -1.0320  1.1336
  311ANI     HC 4351   4.222   4.696   2.775  0.2129 -0.1290 -0.7747
  311ANI     HC 4352   3.983   4.760   2.756 -0.3484 -0.1279 -0.6075
  311ANI     HN 4353   3.712   4.524   2.804 -1.1515  1.0007  3.0497
  311ANI     HN 4354   3.761   4.686   2.835  0.2230 -1.1158  0.6606
  312ANI     CN 4355   4.178   0.070   2.880  0.3687  0.2632 -0.0878
  312ANI     CH 4356   4.097  -0.044   2.864  0.3347  0.2191  0.3725
  312ANI     CH 4357   4.049  -0.107   2.979 -0.5432  0.5221  0.1732
  312ANI     CH 4358   4.066  -0.050   3.106  0.4032 -0.0143  0.2944
  312ANI     CH 4359   4.142   0.067   3.117 -0.5381  0.6074  0.3357
  312ANI     CH 4360   4.198   0.130   3.005 -0.0873 -0.0975  0.1597
  312ANI     NH 4361   4.232   0.127   2.772  0.0648  0.9255  0.1034
  312ANI     HC 4362   4.079  -0.094   2.770  0.4129 -2.6820  1.8651
  312ANI     HC 4363   3.997  -0.200   2.963  2.1443 -0.7337 -1.6501
  312ANI     HC 4364   4.022  -0.093   3.195  0.2058  0.5851  0.4870
  312ANI     HC 4365   4.156   0.111   3.215  0.9323 -2.4699  1.6165
  312ANI     HC 4366   4.264   0.213   3.023  3.7923 -3.1300  0.7297
  312ANI     HN 4367   4.249   0.067   2.692  0.3440 -0.9922  1.5587
  312ANI     HN 4368   4.318   0.168   2.805 -0.1421  0.0572  1.7626
  313ANI     CN 4369   4.381   1.930   0.132  0.0443  0.2298  0.2476
  313ANI     CH 4370   4.483   1.978   0.048 -0.5802  0.4782 -0.3665
  313ANI     CH 4371   4.453   2.004  -0.086 -0.2493  0.4277 -0.4489
  313ANI     CH 4372   4.323   1.983  -0.133  0.0421  0.0090 -1.0698
  313ANI     CH 4373   4.222   1.937  -0.049  0.9943 -0.0745  0.0354
  313ANI     CH 4374   4.251   1.909   0.085  0.1650 -0.3456  0.1637
  313ANI     NH 4375   4.415   1.904   0.259  0.0520  0.0572  0.2106
  313ANI     HC 4376   4.582   1.988   0.089 -1.0831  1.2659  0.6868
  313ANI     HC 4377   4.526   2.051  -0.150  0.1578  1.8483  1.0332
  313ANI     HC 4378   4.287   1.996  -0.234  0.4766 -0.5373 -1.2974
  313ANI     HC 4379   4.125   1.909  -0.088  0.8076  0.5191  0.0758
  313ANI     HC 4380   4.178   1.863   0.150  0.3946 -0.1980  0.5302
  313ANI     HN 4381   4.487   1.968   0.291  0.0872  0.3534 -0.4594
  313ANI     HN 4382   4.343   1.894   0.329 -1.0178  0.6952 -0.7831
  314ANI     CN 4383   3.368   4.830   1.417 -0.1381  0.0783 -0.3809
  314ANI     CH 4384   3.281   4.928   1.468 -0.0047 -0.1402  0.2626
  314ANI     CH 4385   3.144   4.904   1.478  0.1113 -0.6248  0.7410
  314ANI     CH 4386   3.090   4.780   1.443 -0.4636 -0.0733 -0.3778
  314ANI     CH 4387   3.176   4.684   1.385  0.0009  0.5499 -0.7297
  314ANI     CH 4388   3.310   4.716   1.361  0.3796 -0.4070  0.0687
  314ANI     NH 4389   3.498   4.860   1.412 -0.1295  0.1416  0.1783
  314ANI     HC 4390   3.326   5.018   1.509  0.5431  1.0318 -2.7979
  314ANI     HC 4391   3.086   4.986   1.518 -0.3949 -0.4095 -0.3995
  314ANI     HC 4392   2.985   4.758   1.446 -0.4944  0.2570  1.0274
  314ANI     HC 4393   3.142   4.589   1.349 -0.7257  0.6458 -0.3268
  314ANI     HC 4394   3.371   4.632   1.331  0.6528  0.4716 -1.9533
  314ANI     HN 4395   3.509   4.947   1.462  1.8632 -1.0944  1.9676
  314ANI     HN 4396   3.549   4.793   1.467 -1.3917 -0.5842  0.4642
  315ANI     CN 4397   0.629   4.140   3.213 -0.1225  0.0516 -0.3436
  315ANI     CH 4398   0.646   4.003   3.186  0.1802 -0.0029  0.1039
  315ANI     CH 4399   0.620   3.908   3.285 -0.0417 -0.1692 -0.1121
  315ANI     CH 4400   0.604   3.949   3.418  0.0193  0.3405 -0.2608
  315ANI     CH 4401   0.598   4.086   3.447  0.1445  0.1805  0.5368
  315ANI     CH 4402   0.608   4.182   3.345 -0.1384 -0.5280 -0.1607
  315ANI     NH 4403   0.650   4.220   3.108  0.1224  0.2221 -0.1669
  315ANI     HC 4404   0.667   3.967   3.086 -0.2606 -1.4913  0.5496
  315ANI     HC 4405   0.619   3.806   3.250  0.6791 -1.0670  2.3380
  315ANI     HC 4406   0.595   3.883   3.503 -3.0172  0.1750 -0.6511
  315ANI     HC 4407   0.580   4.111   3.551  0.1177 -2.6147  1.2351
  315ANI     HC 4408   0.597   4.282   3.384 -2.0061 -0.5076 -0.7057
  315ANI     HN 4409   0.645   4.171   3.019  0.1409 -0.9913  0.4851
  315ANI     HN 4410   0.609   4.312   3.108  3.2154  1.6564  0.9035
  316ANI     CN 4411   5.280   4.857   4.834 -0.7973  0.4015  0.4598
  316ANI     CH 4412   5.381   4.837   4.928 -0.4280  0.4610  0.0769
  316ANI     CH 4413   5.431   4.707   4.937 -0.7126  0.3598  0.2154
  316ANI     CH 4414   5.373   4.600   4.867 -0.1777  0.4012 -0.2975
  316ANI     CH 4415   5.264   4.624   4.783 -0.5001 -0.0850 -0.0271
  316ANI     CH 4416   5.221   4.755   4.758  0.3568  0.1812 -0.1512
  316ANI     NH 4417   5.239   4.981   4.802  0.2800  0.5753 -0.2505
  316ANI     HC 4418   5.432   4.908   4.992 -0.7157 -0.4272  1.3118
  316ANI     HC 4419   5.512   4.689   5.006 -0.3608 -0.5901 -0.4285
  316ANI     HC 4420   5.427   4.507   4.881 -0.9919  0.1741  1.5897
  316ANI     HC 4421   5.219   4.541   4.731 -0.5169 -0.2305  0.2227
  316ANI     HC 4422   5.141   4.780   4.689  1.1212 -0.0447 -1.1215
  316ANI     HN 4423   5.162   4.989   4.737  1.1351  0.7842 -1.2559
  316ANI     HN 4424   5.202   5.025   4.885  0.0399 -0.1513  0.0328
  317ANI     CN 4425   4.026   4.237   2.306 -0.7657 -0.2212 -0.0100
  317ANI     CH 4426   3.967   4.257   2.432 -0.1440  0.3263  0.1968
  317ANI     CH 4427   4.026   4.207   2.548  0.4994  0.2265 -0.1664
  317ANI     CH 4428   4.147   4.137   2.539  0.2319 -0.2981  0.1982
  317ANI     CH 4429   4.211   4.120   2.415 -0.2041 -0.4067 -0.0132
  317ANI     CH 4430   4.149   4.171   2.301 -0.5511  0.1428  0.4170
  317ANI     NH 4431   3.972   4.289   2.195 -0.0202 -0.5548 -0.5317
  317ANI     HC 4432   3.866   4.293   2.437  0.4521  2.1364 -0.4384
  317ANI     HC 4433   3.980   4.209   2.646  1.1615  0.3283  0.1470
  317ANI     HC 4434   4.184   4.103   2.634  0.4916 -1.2610 -0.2445
  317ANI     HC 4435   4.311   4.081   2.403 -0.0537  0.4925 -1.7806
  317ANI     HC 4436   4.200   4.169   2.206  0.1180  0.9192  0.7526
  317ANI     HN 4437   3.874   4.284   2.220 -0.2578  0.2860 -1.2402
  317ANI     HN 4438   3.991   4.222   2.121  0.3555  0.6501 -1.5407
  318ANI     CN 4439   4.417   1.377   6.124 -0.4743  0.1575 -0.4140
  318ANI     CH 4440   4.507   1.480   6.157  0.0278 -0.5018  0.2889
  318ANI     CH 4441   4.453   1.582   6.235  0.1914  0.1566 -0.4504
  318ANI     CH 4442   4.319   1.587   6.276  0.3512 -0.3421  0.1411
  318ANI     CH 4443   4.232   1.484   6.238  0.2459 -0.0402 -0.4437
  318ANI     CH 4444   4.280   1.381   6.157 -0.5065 -0.3675 -0.4868
  318ANI     NH 4445   4.463   1.261   6.078  0.3123  0.3980 -0.2424
  318ANI     HC 4446   4.613   1.472   6.139  0.0427  0.4052 -0.0442
  318ANI     HC 4447   4.519   1.659   6.273 -0.9412  1.1384 -0.4338
  318ANI     HC 4448   4.284   1.670   6.335  2.2756  2.5356 -2.6157
  318ANI     HC 4449   4.132   1.467   6.276  0.9116 -1.2855  0.7799
  318ANI     HC 4450   4.217   1.298   6.128  1.8217 -2.7949  1.0909
  318ANI     HN 4451   4.418   1.179   6.116  1.2920  0.0413  0.1557
  318ANI     HN 4452   4.561   1.246   6.096  0.5469  1.5279 -0.5790
  319ANI     CN 4453   3.590   4.300   2.765  0.1214 -0.3101  0.0352
  319ANI     CH 4454   3.621   4.191   2.847 -0.2246 -0.1049  0.4423
  319ANI     CH 4455   3.660   4.069   2.790 -0.0056  0.0820  0.1939
  319ANI     CH 4456   3.670   4.053   2.651 -0.3742 -0.5702  0.2389
  319ANI     CH 4457   3.646   4.165   2.570  0.5864 -0.1998  0.4550
  319ANI     CH 4458   3.607   4.287   2.626  0.1552 -0.1344  0.0223
  319ANI     NH 4459   3.555   4.417   2.820  0.2249 -0.0449 -0.4590
  319ANI     HC 4460   3.617   4.201   2.954  0.2999 -0.0707  0.4611
  319ANI     HC 4461   3.687   3.981   2.846 -1.7557 -1.0229 -0.6578
  319ANI     HC 4462   3.705   3.961   2.608  0.7254 -1.4798  2.9622
  319ANI     HC 4463   3.656   4.153   2.463  1.8001  0.6724  0.4574
  319ANI     HC 4464   3.596   4.368   2.556  2.0645 -1.9756 -2.5107
  319ANI     HN 4465   3.455   4.428   2.809  0.1408  0.9640  1.1842
  319ANI     HN 4466   3.554   4.410   2.921 -0.2417 -1.9861 -0.5641
  320ANI     CN 4467   4.797   2.839   2.565  0.0036 -0.2213 -0.1410
  320ANI     CH 4468   4.886   2.769   2.648 -0.1313 -0.2163  0.0066
  320ANI     CH 4469   4.919   2.634   2.629 -0.2932 -0.1472 -0.7755
  320ANI     CH 4470   4.878   2.570   2.512 -0.4405 -0.4834 -0.5418
  320ANI     CH 4471   4.798   2.642   2.422 -1.1071 -0.0049  0.4230
  320ANI     CH 4472   4.760   2.774   2.447 -0.8534  0.1669 -0.0856
  320ANI     NH 4473   4.748   2.957   2.604 -0.0215 -0.4999  0.6817
  320ANI     HC 4474   4.930   2.819   2.733 -0.8381  1.3120 -0.4977
  320ANI     HC 4475   4.982   2.586   2.702  0.0794  1.5220  0.0388
  320ANI     HC 4476   4.907   2.469   2.490  1.3957 -0.2955  0.9498
  320ANI     HC 4477   4.788   2.601   2.322  1.3959 -0.3396  0.2780
  320ANI     HC 4478   4.692   2.817   2.374 -1.2380  1.1460  0.8289
  320ANI     HN 4479   4.676   2.991   2.542  1.5202 -0.0466 -0.8988
  320ANI     HN 4480   4.816   3.030   2.621  0.7284 -1.4064  1.7011
  321ANI     CN 4481   1.248   3.087   3.149  0.0564  0.5618 -0.0656
  321ANI     CH 4482   1.346   3.095   3.049 -0.5162 -0.0289 -0.6807
  321ANI     CH 4483   1.438   2.992   3.022  0.3970  0.3644  0.8588
  321ANI     CH 4484   1.426   2.875   3.098 -0.0343  0.1599  0.4817
  321ANI     CH 4485   1.335   2.866   3.204 -0.3694  0.2482  0.2003
  321ANI     CH 4486   1.242   2.969   3.225 -0.2410  0.4559 -0.2524
  321ANI     NH 4487   1.172   3.191   3.185 -0.5831  0.0755  0.0016
  321ANI     HC 4488   1.342   3.190   2.999 -1.9341  0.4257  0.2807
  321ANI     HC 4489   1.514   3.004   2.947  0.8237  0.6993  1.3364
  321ANI     HC 4490   1.498   2.795   3.090 -0.8422 -0.4868 -0.3454
  321ANI     HC 4491   1.326   2.776   3.262  1.1697  0.0484  0.1404
  321ANI     HC 4492   1.156   2.952   3.288 -1.0974 -1.3460 -1.8653
  321ANI     HN 4493   1.194   3.288   3.163  2.3902 -0.5953 -0.1916
  321ANI     HN 4494   1.114   3.187   3.268  0.4926  2.7768  0.9491
  322ANI     CN 4495   2.327   4.630   0.227 -0.3425 -0.4996  0.2134
  322ANI     CH 4496   2.191   4.597   0.235 -0.5475  0.2710 -0.0841
  322ANI     CH 4497   2.120   4.552   0.123 -0.4253 -0.0162 -0.0480
  322ANI     CH 4498   2.183   4.551  -0.001 -0.2548  0.3669  0.0331
  322ANI     CH 4499   2.323   4.565  -0.006 -0.2148  0.0045  0.0931
  322ANI     CH 4500   2.395   4.606   0.107 -0.2714 -0.1479  0.1836
  322ANI     NH 4501   2.397   4.676   0.331 -0.3367  0.5071 -0.2324
  322ANI     HC 4502   2.153   4.604   0.336 -0.5670 -1.1882  0.0207
  322ANI     HC 4503   2.012   4.541   0.123 -0.2923 -1.4223 -1.6751
  322ANI     HC 4504   2.133   4.530  -0.095  0.4746  1.2344 -0.5631
  322ANI     HC 4505   2.379   4.566  -0.099  1.0346  2.5243  0.8345
  322ANI     HC 4506   2.496   4.641   0.097 -0.6423  0.9201  0.1494
  322ANI     HN 4507   2.341   4.743   0.382 -1.0150  0.8362 -1.3929
  322ANI     HN 4508   2.489   4.714   0.315  0.2044 -1.4027 -1.7897
  323ANI     CN 4509   2.023   3.627   4.998 -0.8174  0.5956  0.8787
  323ANI     CH 4510   2.088   3.572   5.108  0.0095  0.6596  0.4286
  323ANI     CH 4511   2.026   3.476   5.190  0.4283 -0.2685 -0.3330
  323ANI     CH 4512   1.905   3.422   5.147  0.0519  0.4383 -0.1569
  323ANI     CH 4513   1.848   3.468   5.027  0.1216 -0.3432 -0.4894
  323ANI     CH 4514   1.901   3.576   4.954  0.2113 -0.5439 -0.7220
  323ANI     NH 4515   2.073   3.740   4.945  0.0113 -0.3099 -0.3212
  323ANI     HC 4516   2.180   3.613   5.148  0.7999 -2.1097  1.5919
  323ANI     HC 4517   2.066   3.451   5.287 -2.2073 -1.1406  0.5475
  323ANI     HC 4518   1.846   3.356   5.208 -0.5499  0.0207 -1.1700
  323ANI     HC 4519   1.753   3.426   4.997 -2.1725  3.3245  1.2785
  323ANI     HC 4520   1.841   3.613   4.872 -0.8075 -0.0786  0.2113
  323ANI     HN 4521   1.997   3.807   4.945 -0.7815 -1.1462  2.1649
  323ANI     HN 4522   2.141   3.789   5.002 -0.2071 -1.8410  1.3074
  324ANI     CN 4523   0.667   1.616   1.037 -0.2205  0.1910 -0.3147
  324ANI     CH 4524   0.554   1.545   1.079 -0.0674  0.1254 -0.0081
  324ANI     CH 4525   0.562   1.405   1.086  0.4035  0.1609  0.1636
  324ANI     CH 4526   0.681   1.339   1.052  0.3372  0.2907 -0.3166
  324ANI     CH 4527   0.800   1.410   1.030  0.6196 -0.1213 -0.1112
  324ANI     CH 4528   0.787   1.548   1.012 -0.4553 -0.2384 -0.2796
  324ANI     NH 4529   0.665   1.747   1.007  0.8162  0.2672 -0.0971
  324ANI     HC 4530   0.456   1.588   1.093 -1.1673 -1.4125 -2.5844
  324ANI     HC 4531   0.471   1.351   1.105 -0.3052  1.1750 -0.3367
  324ANI     HC 4532   0.683   1.232   1.066  0.6195  0.6223  2.3280
  324ANI     HC 4533   0.892   1.363   0.996  1.4895 -0.0398  2.0347
  324ANI     HC 4534   0.867   1.604   0.966 -1.6558  0.1715 -1.9083
  324ANI     HN 4535   0.738   1.784   0.948 -1.4871  2.0869 -1.8954
  324ANI     HN 4536   0.577   1.786   0.975  1.8804  0.3352 -3.0657
  325ANI     CN 4537   4.503   4.464   4.087 -0.2509  0.0752  0.1899
  325ANI     CH 4538   4.572   4.391   4.185  0.1531  0.7553  0.4195
  325ANI     CH 4539   4.682   4.316   4.143 -0.2587  0.2004  0.3120
  325ANI     CH 4540   4.718   4.303   4.008 -0.1291  0.4821  0.3183
  325ANI     CH 4541   4.647   4.373   3.910  0.0727  0.3303  0.0665
  325ANI     CH 4542   4.558   4.469   3.958 -0.4212 -0.1508  0.1091
  325ANI     NH 4543   4.402   4.545   4.120 -0.3808 -0.1984  0.4652
  325ANI     HC 4544   4.541   4.386   4.288 -0.3661  3.4352  0.4413
  325ANI     HC 4545   4.726   4.251   4.217 -1.9114 -2.1925 -0.7607
  325ANI     HC 4546   4.787   4.224   3.983 -0.3372 -0.1260  1.6189
  325ANI     HC 4547   4.682   4.365   3.808 -1.2795 -1.9507 -0.2367
  325ANI     HC 4548   4.528   4.540   3.882 -0.6662 -0.1376  0.2166
  325ANI     HN 4549   4.383   4.618   4.053  1.9558  1.0242  1.0513
  325ANI     HN 4550   4.393   4.593   4.209 -2.6464  0.4903 -0.1055
  326ANI     CN 4551   2.030   3.646   1.798  0.2791 -0.4323 -0.4485
  326ANI     CH 4552   1.947   3.664   1.687 -0.5882 -0.5125  0.1788
  326ANI     CH 4553   2.000   3.669   1.557  0.0712  0.5270  0.4844
  326ANI     CH 4554   2.130   3.623   1.534 -0.1947  0.2583 -0.4891
  326ANI     CH 4555   2.214   3.610   1.645 -0.3651 -0.4671 -0.4383
  326ANI     CH 4556   2.166   3.619   1.776  0.1774 -1.1640 -0.1860
  326ANI     NH 4557   1.989   3.659   1.925  0.4735 -0.1228 -0.4161
  326ANI     HC 4558   1.841   3.674   1.703 -0.3614  0.0975  1.3289
  326ANI     HC 4559   1.927   3.678   1.479 -0.4566 -0.3594  0.8693
  326ANI     HC 4560   2.159   3.606   1.431  0.2563  0.3576 -0.3800
  326ANI     HC 4561   2.316   3.584   1.621 -0.3575  0.2843 -1.2404
  326ANI     HC 4562   2.232   3.604   1.860 -1.0319  1.2689  1.2623
  326ANI     HN 4563   1.905   3.709   1.952  0.7697  0.2946 -0.2570
  326ANI     HN 4564   2.062   3.696   1.986  0.5739 -1.9129  0.5885
  327ANI     CN 4565   5.399   6.115   3.388  0.4695 -0.3417  0.0083
  327ANI     CH 4566   5.462   6.224   3.326 -0.2632 -0.0598 -0.2398
  327ANI     CH 4567   5.567   6.290   3.389 -0.2459 -0.3327  0.0173
  327ANI     CH 4568   5.611   6.248   3.515 -0.0645 -0.2115 -0.0047
  327ANI     CH 4569   5.549   6.137   3.574 -0.4096  0.1122  0.2404
  327ANI     CH 4570   5.446   6.066   3.511 -0.1765 -0.2678  0.2857
  327ANI     NH 4571   5.310   6.037   3.325 -0.1018  0.0621  0.3169
  327ANI     HC 4572   5.435   6.236   3.221  3.4502 -1.3957 -1.4134
  327ANI     HC 4573   5.625   6.361   3.332  2.0722 -1.2519  1.1789
  327ANI     HC 4574   5.696   6.296   3.561  0.2659  0.4822 -1.3270
  327ANI     HC 4575   5.587   6.090   3.664 -0.2706 -1.7617 -0.7725
  327ANI     HC 4576   5.412   5.976   3.559  0.3876 -0.6945 -0.0991
  327ANI     HN 4577   5.239   6.091   3.277  1.3873  1.8289  0.0653
  327ANI     HN 4578   5.272   5.958   3.376  1.0158  0.0630  1.1782
  328ANI     CN 4579   3.691   4.099   5.057  0.0406  0.4439  0.2831
  328ANI     CH 4580   3.671   4.192   5.159 -0.1148  0.0880  0.5784
  328ANI     CH 4581   3.557   4.188   5.241 -0.4864  0.3787  0.0784
  328ANI     CH 4582   3.457   4.094   5.215 -0.0304 -0.1367  0.1668
  328ANI     CH 4583   3.476   4.003   5.111 -0.0661 -0.5371  0.5085
  328ANI     CH 4584   3.590   4.006   5.030 -0.0153  0.4120  0.6028
  328ANI     NH 4585   3.802   4.104   4.981 -0.1032 -0.7084 -0.0074
  328ANI     HC 4586   3.738   4.277   5.167  0.2033 -0.2141  1.1901
  328ANI     HC 4587   3.558   4.254   5.327  1.8571  2.7437 -1.6613
  328ANI     HC 4588   3.362   4.090   5.267 -1.9869 -1.3587 -3.3487
  328ANI     HC 4589   3.396   3.933   5.093  0.3915 -1.5024  2.1456
  328ANI     HC 4590   3.606   3.931   4.954 -1.6641  1.9852 -1.3574
  328ANI     HN 4591   3.843   4.193   4.961  2.0187 -1.6526  0.0308
  328ANI     HN 4592   3.801   4.044   4.900  3.7259  0.1468 -0.7669
  329ANI     CN 4593   4.761   2.187   5.138 -0.0416 -0.0680  0.4749
  329ANI     CH 4594   4.854   2.083   5.121 -0.3156 -0.2189 -0.1337
  329ANI     CH 4595   4.827   1.954   5.168  0.1928 -0.0633  0.5920
  329ANI     CH 4596   4.703   1.935   5.231 -0.1417  0.0375 -0.0311
  329ANI     CH 4597   4.612   2.039   5.248 -0.3459 -0.0396 -0.6063
  329ANI     CH 4598   4.643   2.171   5.211 -0.4171  0.1258 -0.0802
  329ANI     NH 4599   4.808   2.307   5.103 -0.0734 -0.3065 -0.3965
  329ANI     HC 4600   4.946   2.101   5.067  0.1228 -1.4132  0.2042
  329ANI     HC 4601   4.899   1.879   5.142  0.9315  1.1441 -0.9510
  329ANI     HC 4602   4.681   1.831   5.253  1.9123 -0.5038 -0.4035
  329ANI     HC 4603   4.517   2.025   5.297  0.0558 -1.9640 -0.3352
  329ANI     HC 4604   4.581   2.255   5.240 -0.7885  0.4249 -1.6906
  329ANI     HN 4605   4.909   2.301   5.104 -0.0643 -0.1349 -0.3686
  329ANI     HN 4606   4.789   2.376   5.174  0.4040  1.0846 -1.5751
  330ANI     CN 4607   1.523   0.534   2.129  0.0863 -0.1609  0.3282
  330ANI     CH 4608   1.594   0.591   2.023  0.0632 -0.0755  0.3582
  330ANI     CH 4609   1.639   0.723   2.030  0.1457 -0.0710 -0.2902
  330ANI     CH 4610   1.608   0.803   2.141  0.4604  0.0717 -0.3032
  330ANI     CH 4611   1.534   0.745   2.244  0.1139 -0.2666 -0.7369
  330ANI     CH 4612   1.499   0.609   2.245 -0.1187 -0.2089  0.3165
  330ANI     NH 4613   1.494   0.403   2.126  0.8247 -0.3162 -0.1529
  330ANI     HC 4614   1.615   0.535   1.933  3.8385  0.3745  0.8777
  330ANI     HC 4615   1.697   0.768   1.950 -2.8857  2.2797 -1.2381
  330ANI     HC 4616   1.635   0.906   2.154  0.9733 -0.1661  0.5454
  330ANI     HC 4617   1.499   0.803   2.328  0.8622 -1.5071  0.4555
  330ANI     HC 4618   1.439   0.567   2.324  1.2904 -2.7389  0.0955
  330ANI     HN 4619   1.413   0.373   2.179  0.0030 -0.0627 -1.2595
  330ANI     HN 4620   1.486   0.360   2.035 -2.5901 -1.4982  0.6028
  331ANI     CN 4621   0.973   2.060   3.747  0.1603  0.9212  0.6656
  331ANI     CH 4622   1.071   1.989   3.678 -0.4940 -0.3028  0.9782
  331ANI     CH 4623   1.158   1.897   3.738  0.0977 -0.5722 -0.2770
  331ANI     CH 4624   1.135   1.866   3.873 -0.1264  0.2187 -0.1350
  331ANI     CH 4625   1.028   1.927   3.939  0.2621 -0.0075  0.6987
  331ANI     CH 4626   0.946   2.023   3.879  0.1733 -0.3159  0.3241
  331ANI     NH 4627   0.901   2.150   3.678 -0.9153 -0.0700  0.4865
  331ANI     HC 4628   1.090   2.006   3.573  2.5350  0.1533  1.5297
  331ANI     HC 4629   1.228   1.836   3.682  1.8475  1.7919 -0.7177
  331ANI     HC 4630   1.193   1.790   3.922  0.3849  0.7764  0.1332
  331ANI     HC 4631   1.005   1.909   4.043 -0.8447  0.4434  0.5336
  331ANI     HC 4632   0.863   2.068   3.931  0.5277 -0.9179  1.4394
  331ANI     HN 4633   0.915   2.155   3.578 -0.1412  4.9310  0.7214
  331ANI     HN 4634   0.804   2.137   3.703 -0.5094  0.6881  2.5855
  332ANI     CN 4635   5.963   0.762   2.229 -0.6264 -0.2435  0.0474
  332ANI     CH 4636   5.913   0.882   2.177  0.3918  0.3070  0.3092
  332ANI     CH 4637   5.983   1.002   2.189  0.5855  0.2962 -0.6524
  332ANI     CH 4638   6.101   1.008   2.265  0.2724 -0.2567 -0.1180
  332ANI     CH 4639   6.156   0.885   2.303 -0.0111 -0.3595 -0.0380
  332ANI     CH 4640   6.088   0.763   2.292 -0.7492  0.0194  0.2833
  332ANI     NH 4641   5.894   0.648   2.218 -0.0937 -0.5657  0.0423
  332ANI     HC 4642   5.818   0.877   2.125  1.1450 -2.4914 -0.8940
  332ANI     HC 4643   5.939   1.092   2.148  0.2340 -0.2031 -1.3871
  332ANI     HC 4644   6.159   1.098   2.275  0.7895 -0.5137 -0.7290
  332ANI     HC 4645   6.250   0.878   2.356 -0.6776  0.9386  1.3702
  332ANI     HC 4646   6.139   0.672   2.320 -0.6531 -0.0418 -0.0963
  332ANI     HN 4647   5.825   0.645   2.145 -2.0435 -2.2886  1.8856
  332ANI     HN 4648   5.955   0.567   2.208 -0.4352 -1.0055  1.3465
  333ANI     CN 4649   5.584   0.812   2.784 -0.2524  0.0790  0.1358
  333ANI     CH 4650   5.510   0.912   2.850 -0.2750  0.2154 -0.0953
  333ANI     CH 4651   5.417   0.869   2.946  0.7781 -0.4239  0.6547
  333ANI     CH 4652   5.387   0.733   2.960  0.0289 -0.3935 -0.5807
  333ANI     CH 4653   5.455   0.637   2.883  0.9929 -0.6279  0.5559
  333ANI     CH 4654   5.559   0.675   2.799 -0.3995 -0.0068 -0.9077
  333ANI     NH 4655   5.686   0.845   2.704 -0.0024 -0.4422  0.2388
  333ANI     HC 4656   5.535   1.017   2.850  1.0516 -0.0897 -0.8798
  333ANI     HC 4657   5.359   0.934   3.009 -0.1839 -1.2510  0.6468
  333ANI     HC 4658   5.318   0.712   3.041  2.0656 -0.1656  1.2382
  333ANI     HC 4659   5.427   0.533   2.896  1.8367 -0.8456  0.6173
  333ANI     HC 4660   5.619   0.592   2.764 -2.4032 -1.7519 -0.2402
  333ANI     HN 4661   5.744   0.767   2.675 -0.6202 -1.3897  1.5149
  333ANI     HN 4662   5.744   0.923   2.734  1.5643 -0.3709 -2.7683
  334ANI     CN 4663   0.418   1.224   3.716 -0.0845 -0.1124  0.2664
  334ANI     CH 4664   0.423   1.363   3.728  0.0343 -0.0723 -0.2390
  334ANI     CH 4665   0.505   1.443   3.646 -0.3079 -0.4896 -0.9899
  334ANI     CH 4666   0.598   1.374   3.567  0.4321 -0.1132 -0.4570
  334ANI     CH 4667   0.598   1.234   3.555  0.0708 -0.1781  0.2853
  334ANI     CH 4668   0.500   1.159   3.622  0.4530 -0.2210  0.8026
  334ANI     NH 4669   0.330   1.148   3.782  0.1908 -0.2534  0.4736
  334ANI     HC 4670   0.346   1.419   3.779 -1.2079  0.4918 -2.6653
  334ANI     HC 4671   0.503   1.550   3.637  0.9293 -0.4037 -0.3445
  334ANI     HC 4672   0.670   1.427   3.508  0.6221  0.6984  0.5000
  334ANI     HC 4673   0.671   1.181   3.496  1.5812  0.9467  1.1158
  334ANI     HC 4674   0.507   1.052   3.620 -1.1110 -0.3396  0.8112
  334ANI     HN 4675   0.272   1.196   3.849  0.0630  0.0017  0.1818
  334ANI     HN 4676   0.268   1.083   3.735  1.0453  0.4317 -1.6427
  335ANI     CN 4677   1.162   1.197   4.952  0.1700 -0.3582 -0.5055
  335ANI     CH 4678   1.045   1.269   4.982  0.3374 -0.1744 -0.2884
  335ANI     CH 4679   0.927   1.205   5.019  0.0637  0.5655  0.1124
  335ANI     CH 4680   0.924   1.065   5.008 -0.2893  0.6118 -0.4356
  335ANI     CH 4681   1.033   0.991   4.960 -0.8424  0.0216 -0.7734
  335ANI     CH 4682   1.153   1.058   4.938 -0.4211 -0.3931  0.2084
  335ANI     NH 4683   1.276   1.266   4.936  0.1489 -0.2246 -0.0875
  335ANI     HC 4684   1.050   1.376   4.980  0.9297 -0.2060 -0.9810
  335ANI     HC 4685   0.833   1.253   5.043 -0.5497  1.7886 -4.2848
  335ANI     HC 4686   0.830   1.015   5.028 -0.1101  0.3084 -0.3437
  335ANI     HC 4687   1.020   0.888   4.930  0.6844  0.1401 -1.8784
  335ANI     HC 4688   1.239   1.000   4.908 -1.5764 -0.9651 -2.0877
  335ANI     HN 4689   1.277   1.363   4.907  0.1384 -0.5516 -1.2064
  335ANI     HN 4690   1.332   1.212   4.872  0.1466  0.2845 -0.5287
  336ANI     CN 4691   3.342   3.019   3.138 -0.6579  0.0292 -0.1702
  336ANI     CH 4692   3.450   3.059   3.059 -0.2901 -0.1616  0.2328
  336ANI     CH 4693   3.467   3.196   3.035  0.0506 -0.2245  0.1047
  336ANI     CH 4694   3.382   3.293   3.089 -0.0935 -0.1762 -0.2032
  336ANI     CH 4695   3.283   3.251   3.178  0.5758  0.4716  0.8755
  336ANI     CH 4696   3.266   3.115   3.205  0.1524  0.3924  0.2405
  336ANI     NH 4697   3.318   2.890   3.168  0.5500 -0.0056  0.7256
  336ANI     HC 4698   3.510   2.982   3.013 -1.3612 -0.2391 -1.0433
  336ANI     HC 4699   3.549   3.227   2.972 -2.7523 -0.2862 -3.7819
  336ANI     HC 4700   3.387   3.400   3.074  0.5454 -0.1564  0.1132
  336ANI     HC 4701   3.217   3.320   3.228 -0.8907  0.3590 -0.8287
  336ANI     HC 4702   3.184   3.097   3.274 -0.4221  3.3677  0.4034
  336ANI     HN 4703   3.261   2.874   3.250 -0.6419  4.1179  0.8087
  336ANI     HN 4704   3.399   2.834   3.187  0.6549  0.0511  0.4476
  337ANI     CN 4705   1.350   2.523   5.194 -0.2416  0.3218 -0.1167
  337ANI     CH 4706   1.353   2.490   5.058  0.6641 -0.6691  0.1381
  337ANI     CH 4707   1.469   2.499   4.981  0.2800  0.4617 -0.3160
  337ANI     CH 4708   1.590   2.529   5.045  0.2088  0.0747 -0.0029
  337ANI     CH 4709   1.589   2.560   5.181 -0.1811 -0.5336  0.1369
  337ANI     CH 4710   1.471   2.555   5.256 -0.2815  0.1807  0.0336
  337ANI     NH 4711   1.237   2.512   5.265 -0.0762  0.4842  0.1751
  337ANI     HC 4712   1.261   2.462   5.008  1.3656  0.2180 -1.6929
  337ANI     HC 4713   1.469   2.474   4.876 -2.0541 -0.1497 -0.1926
  337ANI     HC 4714   1.682   2.541   4.990  2.3278 -0.4284  3.3150
  337ANI     HC 4715   1.685   2.588   5.222  0.1843 -0.9162 -0.4517
  337ANI     HC 4716   1.479   2.565   5.363 -2.0670  0.8925  0.1070
  337ANI     HN 4717   1.147   2.504   5.218  1.1024  1.3451 -2.2834
  337ANI     HN 4718   1.239   2.579   5.340  0.7096 -0.5713  1.1159
  338ANI     CN 4719   1.770   2.964   2.563  0.2389 -0.5545 -0.9168
  338ANI     CH 4720   1.652   3.008   2.502  0.1257 -0.6122 -0.7393
  338ANI     CH 4721   1.657   3.101   2.397 -0.0130  0.5177  0.2363
  338ANI     CH 4722   1.781   3.149   2.354 -0.0114  0.1979 -0.1199
  338ANI     CH 4723   1.900   3.105   2.414 -0.1647 -0.4392 -0.2850
  338ANI     CH 4724   1.894   3.010   2.517  0.4291  0.6133  0.7195
  338ANI     NH 4725   1.757   2.866   2.654  0.9611  0.4348  0.2826
  338ANI     HC 4726   1.554   2.982   2.538 -0.2001  0.6553 -0.6596
  338ANI     HC 4727   1.575   3.146   2.344 -0.7815 -0.0117  0.9595
  338ANI     HC 4728   1.791   3.219   2.272  1.0335 -0.0957 -0.2534
  338ANI     HC 4729   1.995   3.145   2.381 -0.6050 -0.4659 -1.6195
  338ANI     HC 4730   1.991   2.980   2.554  1.9260  0.7044 -2.9562
  338ANI     HN 4731   1.682   2.802   2.633 -0.7002  2.4882 -0.2862
  338ANI     HN 4732   1.841   2.815   2.674  1.3640  0.6381 -0.8676
  339ANI     CN 4733   3.330   4.439   3.284 -0.2920  0.2559  0.3943
  339ANI     CH 4734   3.199   4.389   3.282 -0.2485  0.1502 -0.0937
  339ANI     CH 4735   3.118   4.422   3.392  0.1115  0.3944  0.1016
  339ANI     CH 4736   3.163   4.505   3.494 -0.1956  0.5798  0.0862
  339ANI     CH 4737   3.293   4.557   3.495 -0.1781  0.5385  0.0073
  339ANI     CH 4738   3.375   4.522   3.386 -0.0823  0.5241  0.0839
  339ANI     NH 4739   3.411   4.419   3.179 -0.5473 -0.1848  0.2774
  339ANI     HC 4740   3.153   4.333   3.202  1.6855 -1.8076  0.1339
  339ANI     HC 4741   3.013   4.396   3.392  1.0328 -3.6786  1.7116
  339ANI     HC 4742   3.101   4.555   3.567  1.6473  1.9933  0.7481
  339ANI     HC 4743   3.325   4.619   3.577 -0.7402  0.7676  0.0545
  339ANI     HC 4744   3.473   4.566   3.372 -0.1432  0.2851 -1.1199
  339ANI     HN 4745   3.508   4.420   3.208  0.2115  0.6875 -2.1497
  339ANI     HN 4746   3.387   4.334   3.131  0.3838 -0.0363 -0.4709
  340ANI     CN 4747   4.726   6.051   1.934  0.1731 -0.0103 -0.1613
  340ANI     CH 4748   4.777   6.144   2.025 -0.1698  0.2472 -0.2281
  340ANI     CH 4749   4.895   6.213   1.993  0.2217 -0.1576  0.3234
  340ANI     CH 4750   4.962   6.189   1.872  0.2292 -0.5863  0.4104
  340ANI     CH 4751   4.902   6.112   1.772  0.0322  0.1443 -0.0365
  340ANI     CH 4752   4.785   6.044   1.807  0.3216 -0.3788 -0.0735
  340ANI     NH 4753   4.607   5.996   1.962  0.0380  0.2988 -0.1239
  340ANI     HC 4754   4.720   6.162   2.115 -1.2226 -1.4734 -0.5338
  340ANI     HC 4755   4.925   6.289   2.062  0.5742 -0.4768  0.5242
  340ANI     HC 4756   5.049   6.250   1.853 -0.0133 -0.4639 -0.3050
  340ANI     HC 4757   4.951   6.108   1.676  0.8202  0.0848  0.3631
  340ANI     HC 4758   4.733   5.988   1.731 -3.1422  1.1134  1.0705
  340ANI     HN 4759   4.529   6.055   1.987 -0.0074  0.7616 -1.3271
  340ANI     HN 4760   4.577   5.935   1.887 -0.1600  0.4933 -0.2040
  341ANI     CN 4761   2.184   3.059   2.948  0.0246 -0.0298  0.1945
  341ANI     CH 4762   2.198   2.975   3.058 -0.2210  0.4468  0.5910
  341ANI     CH 4763   2.324   2.954   3.117  0.0786 -0.3809 -0.3300
  341ANI     CH 4764   2.436   3.020   3.065 -0.3000  0.0114 -0.6588
  341ANI     CH 4765   2.426   3.089   2.944  0.2831  0.4556 -0.4563
  341ANI     CH 4766   2.300   3.112   2.889  0.0217 -0.5539 -0.2927
  341ANI     NH 4767   2.066   3.078   2.888  0.4228  0.2164 -0.5250
  341ANI     HC 4768   2.115   2.917   3.095  0.6835  0.0040  1.9877
  341ANI     HC 4769   2.336   2.883   3.197  0.3161  0.3988  0.3376
  341ANI     HC 4770   2.533   2.998   3.108 -0.1635  0.3514 -0.7917
  341ANI     HC 4771   2.509   3.136   2.894  1.2349 -2.3408 -1.6313
  341ANI     HC 4772   2.286   3.172   2.800 -3.0467  0.0631  0.5189
  341ANI     HN 4773   2.042   3.173   2.866  0.5675 -0.0394 -1.8483
  341ANI     HN 4774   1.984   3.027   2.919  0.5420 -1.1940 -2.4066
  342ANI     CN 4775   2.453   2.384   5.237  0.8757 -0.1080 -1.0547
  342ANI     CH 4776   2.455   2.494   5.150  0.0819  0.2571 -0.6130
  342ANI     CH 4777   2.383   2.494   5.030 -0.3353 -0.3200 -0.3702
  342ANI     CH 4778   2.307   2.381   4.998 -0.0304 -0.5641 -0.2322
  342ANI     CH 4779   2.300   2.274   5.088  0.5556 -0.2064  0.2498
  342ANI     CH 4780   2.368   2.276   5.210  0.5363 -0.1773  0.2593
  342ANI     NH 4781   2.523   2.386   5.351 -0.3795 -0.4887 -0.2753
  342ANI     HC 4782   2.511   2.580   5.182 -1.8220  1.2938 -0.0247
  342ANI     HC 4783   2.385   2.577   4.960  0.9395  1.0211  1.2189
  342ANI     HC 4784   2.254   2.374   4.904  0.3069  0.0225 -0.4670
  342ANI     HC 4785   2.251   2.181   5.061  0.7152  0.8384 -4.0715
  342ANI     HC 4786   2.365   2.188   5.273 -0.0401 -0.8858 -0.7246
  342ANI     HN 4787   2.611   2.428   5.327 -0.5374  1.2146  1.9257
  342ANI     HN 4788   2.536   2.304   5.409  1.1886  1.2262  1.8381
  343ANI     CN 4789   5.218   6.099   5.815 -0.1184  0.1938  0.1357
  343ANI     CH 4790   5.178   6.132   5.685  0.3945 -0.1855 -0.1217
  343ANI     CH 4791   5.277   6.166   5.592  0.3063  0.0870 -0.1175
  343ANI     CH 4792   5.413   6.145   5.619  0.2979 -0.9979 -0.8625
  343ANI     CH 4793   5.449   6.094   5.745 -0.0408 -0.3914 -0.5159
  343ANI     CH 4794   5.353   6.077   5.845  0.0974  1.1459 -0.1013
  343ANI     NH 4795   5.123   6.103   5.908 -0.5549 -0.0847 -0.2943
  343ANI     HC 4796   5.073   6.152   5.667  0.5166 -1.5822 -2.6628
  343ANI     HC 4797   5.245   6.208   5.498  1.1321  1.7822  0.3488
  343ANI     HC 4798   5.491   6.166   5.548  2.0748 -1.5527  0.8651
  343ANI     HC 4799   5.554   6.075   5.762  0.0436 -1.5512 -2.1807
  343ANI     HC 4800   5.378   6.069   5.950 -2.0466  0.5913  0.3922
  343ANI     HN 4801   5.147   6.145   5.997 -2.1299  1.7368 -0.6883
  343ANI     HN 4802   5.035   6.145   5.882 -0.2246  0.0907 -1.1200
  344ANI     CN 4803   2.037   1.617   3.764 -0.3048 -0.0790  0.2981
  344ANI     CH 4804   1.935   1.636   3.858 -0.2383  0.3926  0.2728
  344ANI     CH 4805   1.890   1.766   3.884 -0.6481  0.2310  0.3779
  344ANI     CH 4806   1.953   1.878   3.829 -0.5387 -0.1650 -0.3030
  344ANI     CH 4807   2.054   1.860   3.733 -0.3058  0.4115 -0.1689
  344ANI     CH 4808   2.096   1.730   3.706 -0.7443  0.1663  0.3270
  344ANI     NH 4809   2.077   1.490   3.744  0.5026  0.2008  0.1502
  344ANI     HC 4810   1.889   1.553   3.909  1.2573  0.2526  1.4478
  344ANI     HC 4811   1.817   1.786   3.961 -2.1977  1.2341 -1.3310
  344ANI     HC 4812   1.915   1.978   3.844  1.3383  0.5068  0.1541
  344ANI     HC 4813   2.100   1.941   3.679 -0.1441  0.6878  0.3800
  344ANI     HC 4814   2.181   1.720   3.640 -0.9455 -1.5535  0.3022
  344ANI     HN 4815   2.051   1.417   3.807  2.0542  0.2094  0.8374
  344ANI     HN 4816   2.171   1.471   3.712 -0.4646 -3.9389 -0.3908
  345ANI     CN 4817   6.156   4.175   1.290  0.1960  0.6314  0.1744
  345ANI     CH 4818   6.269   4.225   1.224  0.0590  0.2667 -0.3328
  345ANI     CH 4819   6.301   4.361   1.228  0.2299  0.2120  0.1386
  345ANI     CH 4820   6.214   4.447   1.296 -0.3442 -0.4617  0.2658
  345ANI     CH 4821   6.103   4.397   1.365 -0.5906 -0.1657  0.0905
  345ANI     CH 4822   6.075   4.260   1.367 -0.1812 -0.2392  0.7397
  345ANI     NH 4823   6.147   4.042   1.302 -0.0811  0.6650  0.3259
  345ANI     HC 4824   6.338   4.161   1.170 -1.7187 -2.5286  0.5991
  345ANI     HC 4825   6.390   4.401   1.184 -0.7786  0.9124 -1.3104
  345ANI     HC 4826   6.234   4.553   1.309  1.8879 -0.8424  0.0998
  345ANI     HC 4827   6.044   4.464   1.425 -1.7250 -1.0782  0.0249
  345ANI     HC 4828   5.995   4.221   1.428  0.3349 -0.9597  0.9708
  345ANI     HN 4829   6.217   4.002   1.242  0.1890  0.1790  0.9611
  345ANI     HN 4830   6.055   4.005   1.281 -1.6321  4.5533 -0.1579
  346ANI     CN 4831   5.955   3.391   5.314  0.5050  0.0125  0.0227
  346ANI     CH 4832   6.089   3.399   5.276  0.2822  0.6288 -0.6677
  346ANI     CH 4833   6.175   3.475   5.357  0.0488 -0.3330  0.5045
  346ANI     CH 4834   6.140   3.528   5.481 -0.3954 -0.6063  0.4969
  346ANI     CH 4835   6.005   3.517   5.517 -0.4584 -0.1250  0.4093
  346ANI     CH 4836   5.915   3.446   5.437  0.0187 -0.2526 -0.0155
  346ANI     NH 4837   5.871   3.318   5.239  0.3986  0.8789 -0.7140
  346ANI     HC 4838   6.126   3.359   5.183 -1.3278 -2.8389  0.1027
  346ANI     HC 4839   6.277   3.484   5.323 -0.2307  0.2942 -0.1964
  346ANI     HC 4840   6.208   3.590   5.537  0.9154 -0.1709 -1.5491
  346ANI     HC 4841   5.970   3.557   5.611 -0.8810 -0.3915  0.3684
  346ANI     HC 4842   5.811   3.447   5.465  0.1634  0.2982  0.5043
  346ANI     HN 4843   5.917   3.267   5.165  1.3762  0.7696 -0.0436
  346ANI     HN 4844   5.820   3.248   5.291  1.1133 -0.9317 -2.3875
  347ANI     CN 4845   2.937   1.686   5.839 -0.0041  0.3400  0.1156
  347ANI     CH 4846   2.905   1.653   5.707  0.2355  0.3474  0.0556
  347ANI     CH 4847   2.970   1.545   5.645  0.1266  0.2932  0.0366
  347ANI     CH 4848   3.065   1.473   5.718  0.0369  0.1883  0.0520
  347ANI     CH 4849   3.100   1.509   5.849  0.0762 -0.1832  0.1442
  347ANI     CH 4850   3.032   1.614   5.912 -0.2933 -0.2706 -0.1062
  347ANI     NH 4851   2.873   1.787   5.899 -0.4550 -0.1701  0.5039
  347ANI     HC 4852   2.832   1.705   5.646 -1.1809 -0.1524  1.3132
  347ANI     HC 4853   2.941   1.521   5.543  0.2927 -0.3451  0.1387
  347ANI     HC 4854   3.116   1.390   5.671  0.0291  1.0993 -1.6011
  347ANI     HC 4855   3.171   1.451   5.906  0.1693 -1.0081 -0.7768
  347ANI     HC 4856   3.060   1.642   6.012 -2.1874 -2.3797  1.0452
  347ANI     HN 4857   2.774   1.806   5.890 -0.2493  1.1634  0.8730
  347ANI     HN 4858   2.893   1.791   5.998  2.3174  4.8204 -0.0711
  348ANI     CN 4859   0.759   0.710   2.350  0.0528 -0.3106  0.1290
  348ANI     CH 4860   0.813   0.783   2.456  0.5545 -0.4168 -0.0486
  348ANI     CH 4861   0.856   0.915   2.441  0.4287 -0.3799 -0.0886
  348ANI     CH 4862   0.843   0.980   2.318  0.1766 -0.1985  0.0331
  348ANI     CH 4863   0.788   0.908   2.211 -0.2172 -0.0469  0.1323
  348ANI     CH 4864   0.744   0.776   2.227 -0.7606  0.1752  0.4872
  348ANI     NH 4865   0.722   0.582   2.363 -0.1683 -0.2374  0.2116
  348ANI     HC 4866   0.807   0.737   2.553 -2.0827  0.1668  0.1004
  348ANI     HC 4867   0.891   0.973   2.526 -1.8722  0.7643  0.1091
  348ANI     HC 4868   0.855   1.086   2.304 -2.7089 -0.2418 -3.6256
  348ANI     HC 4869   0.773   0.962   2.119 -4.0572  0.5318  1.0266
  348ANI     HC 4870   0.701   0.724   2.143 -0.1090  1.0879 -0.4168
  348ANI     HN 4871   0.699   0.566   2.460 -1.1908  1.6724  0.3156
  348ANI     HN 4872   0.638   0.564   2.310  0.9178 -0.5687 -1.4349
  349ANI     CN 4873   5.170   3.585   0.778  0.4253 -0.1280  0.8650
  349ANI     CH 4874   5.160   3.482   0.872 -0.5921 -0.9112 -0.1014
  349ANI     CH 4875   5.276   3.425   0.926 -0.0365 -0.0018 -0.3294
  349ANI     CH 4876   5.398   3.488   0.901 -0.0154  0.0655 -0.0630
  349ANI     CH 4877   5.408   3.603   0.822  0.5338 -0.2817 -0.5067
  349ANI     CH 4878   5.291   3.653   0.762  0.4401 -0.4698 -0.4807
  349ANI     NH 4879   5.058   3.627   0.717  0.7587 -0.4670  0.0316
  349ANI     HC 4880   5.064   3.438   0.896 -1.0931  1.2905  2.0231
  349ANI     HC 4881   5.267   3.338   0.989  1.9530  0.4319  0.5970
  349ANI     HC 4882   5.489   3.440   0.933  0.0588 -0.8051 -1.5272
  349ANI     HC 4883   5.503   3.651   0.805 -0.7324  2.4458 -0.1429
  349ANI     HC 4884   5.308   3.733   0.692 -0.7452 -0.2119 -0.4784
  349ANI     HN 4885   5.080   3.664   0.625 -1.4718 -1.1839 -0.8375
  349ANI     HN 4886   4.988   3.557   0.697  1.1503 -0.2847 -2.1811
  350ANI     CN 4887   2.505   2.554   3.587  0.4200 -0.3681 -0.1421
  350ANI     CH 4888   2.621   2.627   3.558  0.4138 -0.0615  0.5993
  350ANI     CH 4889   2.663   2.737   3.634  0.2279  0.1797  0.3517
  350ANI     CH 4890   2.592   2.760   3.752 -0.3172  0.2883  0.0051
  350ANI     CH 4891   2.484   2.681   3.791 -0.2130  0.0252 -0.2366
  350ANI     CH 4892   2.434   2.584   3.704  0.6788 -0.7580  0.1165
  350ANI     NH 4893   2.471   2.445   3.518  1.0452 -0.1122 -0.8683
  350ANI     HC 4894   2.681   2.596   3.473 -0.1496 -1.1673  0.6115
  350ANI     HC 4895   2.748   2.801   3.614 -0.5089  0.8352 -0.7020
  350ANI     HC 4896   2.627   2.825   3.831 -1.8753  0.3196  0.6868
  350ANI     HC 4897   2.438   2.703   3.886  1.1977 -2.3599  1.0499
  350ANI     HC 4898   2.343   2.531   3.728  0.8072 -0.1275  2.0343
  350ANI     HN 4899   2.371   2.435   3.531  1.1927 -1.0632 -0.4174
  350ANI     HN 4900   2.473   2.471   3.420  0.1028 -0.7768 -1.0788
  351ANI     CN 4901   2.120   1.309   0.510 -0.3093 -0.1219 -0.2750
  351ANI     CH 4902   1.990   1.352   0.479 -0.2705 -0.2064 -0.5533
  351ANI     CH 4903   1.881   1.285   0.535  0.0140 -0.0070  0.2359
  351ANI     CH 4904   1.898   1.193   0.639 -0.1550 -0.2615  0.0399
  351ANI     CH 4905   2.029   1.158   0.676 -0.1571  0.2105  0.5043
  351ANI     CH 4906   2.139   1.211   0.608 -0.4248  0.1358  0.0057
  351ANI     NH 4907   2.225   1.375   0.461  0.0936  0.0032  0.7501
  351ANI     HC 4908   1.985   1.429   0.403 -0.2008  0.4605  0.1181
  351ANI     HC 4909   1.781   1.313   0.503  0.3691 -0.7300 -1.5506
  351ANI     HC 4910   1.810   1.144   0.677 -0.6100  0.5549  0.0487
  351ANI     HC 4911   2.039   1.075   0.744 -0.3935 -1.6724 -1.7050
  351ANI     HC 4912   2.236   1.175   0.640  0.0825 -0.8888 -2.5437
  351ANI     HN 4913   2.315   1.348   0.499  0.3314  0.5628  0.5958
  351ANI     HN 4914   2.201   1.473   0.473  0.8515  0.3097 -0.1088
  352ANI     CN 4915   4.937   3.938   2.313 -0.2250  0.3081  0.4091
  352ANI     CH 4916   4.867   3.837   2.379  0.2120 -0.4829 -0.3269
  352ANI     CH 4917   4.740   3.795   2.338 -0.0015 -0.3426  0.1798
  352ANI     CH 4918   4.695   3.840   2.213  0.5091  0.0128  0.1217
  352ANI     CH 4919   4.771   3.928   2.136  0.1807  0.3713  0.2040
  352ANI     CH 4920   4.886   3.985   2.192  0.2346  0.2696  0.1998
  352ANI     NH 4921   5.055   3.982   2.360 -0.0648  0.7754 -0.4158
  352ANI     HC 4922   4.906   3.794   2.470 -0.0754 -0.3689 -0.1461
  352ANI     HC 4923   4.668   3.729   2.384 -0.0911 -1.4257 -1.4600
  352ANI     HC 4924   4.596   3.806   2.184  0.9922 -0.4340 -1.0181
  352ANI     HC 4925   4.736   3.934   2.034  1.3225  0.0474 -0.2187
  352ANI     HC 4926   4.937   4.053   2.124 -1.5960  0.7636 -0.7089
  352ANI     HN 4927   5.098   3.928   2.434  1.1125  1.0496 -0.8775
  352ANI     HN 4928   5.131   3.992   2.294  0.0166 -3.0532 -1.0531
  353ANI     CN 4929   5.906   1.749   3.392  0.1856  0.2640 -0.3620
  353ANI     CH 4930   5.786   1.677   3.390  0.1729  0.2643  0.1980
  353ANI     CH 4931   5.775   1.543   3.430  0.0444  0.1246 -0.2980
  353ANI     CH 4932   5.893   1.476   3.463 -0.2168 -0.3302 -0.2766
  353ANI     CH 4933   6.015   1.545   3.473 -0.3253 -0.2254  0.3711
  353ANI     CH 4934   6.020   1.680   3.435 -0.2809 -0.3709 -0.1478
  353ANI     NH 4935   5.905   1.875   3.347 -0.1807  0.4423  0.1399
  353ANI     HC 4936   5.690   1.723   3.376 -0.4122 -1.3966 -1.5939
  353ANI     HC 4937   5.680   1.492   3.427  0.2516 -0.2596 -0.3771
  353ANI     HC 4938   5.897   1.370   3.479 -3.3971 -0.4966 -0.3487
  353ANI     HC 4939   6.111   1.504   3.502 -0.8455 -0.6706  1.4743
  353ANI     HC 4940   6.111   1.737   3.439 -0.8013  0.5453 -1.2117
  353ANI     HN 4941   5.993   1.887   3.298 -0.1412  2.1442  0.5874
  353ANI     HN 4942   5.835   1.899   3.279  0.8291  1.1092 -0.6866
  354ANI     CN 4943   2.743   1.856   1.996  0.4471  0.0738  0.0464
  354ANI     CH 4944   2.717   1.720   2.015 -0.1733  0.2784  0.6858
  354ANI     CH 4945   2.624   1.675   2.110 -0.1421  0.2338  0.6951
  354ANI     CH 4946   2.561   1.773   2.188 -0.6941  0.0188  0.5146
  354ANI     CH 4947   2.591   1.909   2.175 -0.6277 -0.0065  0.3961
  354ANI     CH 4948   2.673   1.952   2.070  0.2463 -0.6557  0.8053
  354ANI     NH 4949   2.805   1.906   1.888  0.3491  0.7651  0.3065
  354ANI     HC 4950   2.774   1.650   1.956 -0.8609  1.4577 -1.4375
  354ANI     HC 4951   2.607   1.570   2.128 -0.2313  0.3473  1.2913
  354ANI     HC 4952   2.492   1.746   2.267 -0.9544  0.3512  0.4018
  354ANI     HC 4953   2.532   1.977   2.234  1.8061  3.0167 -0.5428
  354ANI     HC 4954   2.668   2.058   2.048 -0.3974 -0.5920  1.2459
  354ANI     HN 4955   2.852   1.990   1.921  2.6465 -0.4485  0.2195
  354ANI     HN 4956   2.883   1.858   1.844 -1.8844 -0.1197 -2.8218
  355ANI     CN 4957   4.033   0.417   3.965 -0.2245 -0.3806  0.1981
  355ANI     CH 4958   4.026   0.505   4.074 -0.0088 -0.2477  0.1065
  355ANI     CH 4959   3.923   0.501   4.169 -0.5222 -0.3810 -0.4479
  355ANI     CH 4960   3.818   0.409   4.153 -0.5199 -0.5250  0.3530
  355ANI     CH 4961   3.824   0.318   4.047 -0.1736 -0.2557  0.1399
  355ANI     CH 4962   3.928   0.326   3.953 -0.2209 -0.3697  0.0776
  355ANI     NH 4963   4.134   0.416   3.877 -0.4989 -0.0237 -0.1181
  355ANI     HC 4964   4.109   0.572   4.091 -0.1031 -0.5605  1.9213
  355ANI     HC 4965   3.921   0.573   4.249  0.7426 -0.0391 -0.7086
  355ANI     HC 4966   3.729   0.405   4.214 -0.5881 -1.3164  0.1976
  355ANI     HC 4967   3.746   0.249   4.019  0.1255 -1.3063  1.7969
  355ANI     HC 4968   3.931   0.259   3.869  0.8450 -2.4393  1.7171
  355ANI     HN 4969   4.154   0.320   3.854  0.2162 -0.2148  1.2349
  355ANI     HN 4970   4.220   0.455   3.913 -0.3307  1.2345 -1.7901
  356ANI     CN 4971   4.239   4.421   0.694 -0.1664 -0.2653 -0.3857
  356ANI     CH 4972   4.293   4.470   0.574  0.0742  0.3160 -0.0384
  356ANI     CH 4973   4.301   4.388   0.461 -0.3374  0.4211 -0.1481
  356ANI     CH 4974   4.253   4.256   0.461  0.3130  0.1818  0.0212
  356ANI     CH 4975   4.194   4.207   0.578  0.5617 -0.0816  0.0359
  356ANI     CH 4976   4.186   4.291   0.689 -0.6291 -0.0880 -0.0386
  356ANI     NH 4977   4.232   4.494   0.806  0.1363 -0.3365 -0.3179
  356ANI     HC 4978   4.342   4.567   0.569 -3.1152  1.8762 -2.9573
  356ANI     HC 4979   4.352   4.418   0.371 -0.0201  0.2238 -0.0380
  356ANI     HC 4980   4.268   4.199   0.371 -1.1541  2.1119 -1.4865
  356ANI     HC 4981   4.145   4.111   0.574  0.4867 -0.0659  0.5523
  356ANI     HC 4982   4.119   4.253   0.765 -1.6118 -1.6644 -1.6555
  356ANI     HN 4983   4.307   4.562   0.809  0.0855 -0.2740 -0.4133
  356ANI     HN 4984   4.254   4.456   0.897  1.3990 -1.4655 -1.0775
  357ANI     CN 4985   5.084   0.564   4.190 -0.0477 -0.4004 -0.2204
  357ANI     CH 4986   5.091   0.428   4.223 -0.0564 -0.1341  0.8779
  357ANI     CH 4987   4.990   0.334   4.198  0.0020  0.0043  0.1385
  357ANI     CH 4988   4.875   0.381   4.134 -0.0033  0.3700  0.4183
  357ANI     CH 4989   4.859   0.517   4.105 -0.2646  0.1924 -0.2930
  357ANI     CH 4990   4.963   0.606   4.135 -0.1463 -0.1130  0.2148
  357ANI     NH 4991   5.183   0.648   4.223 -0.1709  0.0141 -0.9075
  357ANI     HC 4992   5.186   0.392   4.260  0.6553  1.2287  0.4024
  357ANI     HC 4993   4.995   0.229   4.223 -1.2161 -0.2930 -0.8034
  357ANI     HC 4994   4.802   0.304   4.114 -0.7394  0.7053  1.7546
  357ANI     HC 4995   4.760   0.552   4.081 -0.9348 -0.5996  1.2471
  357ANI     HC 4996   4.946   0.711   4.112  0.6188 -0.0897 -0.2448
  357ANI     HN 4997   5.267   0.594   4.237 -1.2945 -2.6945 -3.8468
  357ANI     HN 4998   5.198   0.715   4.148  0.2785  0.6678 -0.2416
  358ANI     CN 4999   5.111   0.454   4.824 -0.3474  0.1823 -0.1677
  358ANI     CH 5000   5.015   0.554   4.811 -0.0680  0.4865  0.0996
  358ANI     CH 5001   4.992   0.606   4.683 -0.4142  0.4513  0.1460
  358ANI     CH 5002   5.053   0.556   4.567 -0.4870 -0.5433  0.5334
  358ANI     CH 5003   5.147   0.454   4.584  0.1452 -0.0436  0.0305
  358ANI     CH 5004   5.177   0.403   4.711  0.1661  0.1962  0.1215
  358ANI     NH 5005   5.147   0.404   4.943  0.7168 -0.3980 -0.7208
  358ANI     HC 5006   4.966   0.592   4.900  0.9380 -0.7898  1.2083
  358ANI     HC 5007   4.916   0.682   4.682 -0.0369  0.8648  1.3866
  358ANI     HC 5008   5.047   0.600   4.468  0.9455  0.8417  1.0520
  358ANI     HC 5009   5.196   0.414   4.496 -1.7622  0.6323 -1.3668
  358ANI     HC 5010   5.258   0.333   4.723  0.2776 -0.1167 -2.3014
  358ANI     HN 5011   5.238   0.360   4.944  1.4249  0.9045  3.3361
  358ANI     HN 5012   5.151   0.476   5.013  1.6252 -1.2862  0.1671
  359ANI     CN 5013   3.233   3.369   4.502  0.4966  0.5649 -0.7051
  359ANI     CH 5014   3.111   3.424   4.542  0.3811  0.0064 -0.2758
  359ANI     CH 5015   3.097   3.526   4.637 -0.0175 -0.3979  0.1047
  359ANI     CH 5016   3.216   3.565   4.700  0.0778 -0.3820 -0.0807
  359ANI     CH 5017   3.342   3.518   4.663  0.0893 -0.1428 -0.3446
  359ANI     CH 5018   3.347   3.416   4.568  0.4758 -0.6243  0.1925
  359ANI     NH 5019   3.243   3.271   4.411 -0.2216 -0.0615 -0.1181
  359ANI     HC 5020   3.022   3.388   4.491 -1.0678  0.1525  2.0756
  359ANI     HC 5021   3.001   3.570   4.658 -0.1314 -1.3580  1.6879
  359ANI     HC 5022   3.204   3.639   4.779 -0.7692 -2.5019  1.8467
  359ANI     HC 5023   3.427   3.561   4.715 -1.0322 -1.3613  2.6355
  359ANI     HC 5024   3.443   3.380   4.532  0.6427 -0.6488  0.6564
  359ANI     HN 5025   3.167   3.205   4.412  0.3601 -0.7461 -0.5093
  359ANI     HN 5026   3.334   3.227   4.399  0.9558  1.7698  1.7373
  360ANI     CN 5027   3.220   0.338   3.942 -0.0729 -0.0667 -0.0065
  360ANI     CH 5028   3.154   0.456   3.979 -0.3392 -0.2592  0.1265
  360ANI     CH 5029   3.226   0.563   4.032 -0.0988 -0.3420 -0.0335
  360ANI     CH 5030   3.365   0.559   4.042 -0.0902  0.2886  0.1481
  360ANI     CH 5031   3.431   0.444   3.996 -0.2845 -0.0454  0.7051
  360ANI     CH 5032   3.360   0.333   3.949 -0.0647  0.1233 -0.0308
  360ANI     NH 5033   3.159   0.233   3.886 -0.4906  0.3097 -0.2650
  360ANI     HC 5034   3.048   0.465   3.958 -0.3137  0.5100  0.3048
  360ANI     HC 5035   3.159   0.647   4.047 -0.1351  0.1039 -2.5839
  360ANI     HC 5036   3.424   0.642   4.078 -1.5650  1.9738 -1.2604
  360ANI     HC 5037   3.538   0.430   3.998 -0.4319 -1.4049 -0.2897
  360ANI     HC 5038   3.411   0.243   3.918  0.7536  0.4066  0.4809
  360ANI     HN 5039   3.067   0.263   3.859 -0.1237  3.3316  1.6282
  360ANI     HN 5040   3.208   0.192   3.808 -3.5990  0.8799 -2.5861
  361ANI     CN 5041   1.723   5.655   1.512  0.4660 -0.1314 -0.1636
  361ANI     CH 5042   1.805   5.544   1.531  0.2834 -0.3001 -0.3656
  361ANI     CH 5043   1.816   5.447   1.430  0.4814 -0.2513 -0.3910
  361ANI     CH 5044   1.760   5.479   1.306  0.1108  0.0392 -0.1505
  361ANI     CH 5045   1.703   5.605   1.283  0.6186  0.3137  0.0952
  361ANI     CH 5046   1.680   5.697   1.386 -0.4491 -0.0461  0.1761
  361ANI     NH 5047   1.704   5.740   1.614  0.2741 -0.2461 -0.1038
  361ANI     HC 5048   1.852   5.521   1.626  0.2940  0.3020 -0.2280
  361ANI     HC 5049   1.876   5.361   1.455 -1.5538 -1.5262  0.1783
  361ANI     HC 5050   1.776   5.417   1.219  0.0398 -0.8356  0.4559
  361ANI     HC 5051   1.678   5.630   1.181  0.4782 -3.0526 -0.7543
  361ANI     HC 5052   1.618   5.784   1.369  1.5669  1.1716 -1.0659
  361ANI     HN 5053   1.770   5.733   1.690 -1.8862 -0.0393  1.8524
  361ANI     HN 5054   1.719   5.836   1.586 -0.4232  0.6599  2.5002
  362ANI     CN 5055   1.160   4.676   2.360  0.0706  0.3094 -0.3686
  362ANI     CH 5056   1.281   4.702   2.294 -0.4517  0.1351 -1.4115
  362ANI     CH 5057   1.366   4.804   2.340 -0.4612 -0.6246  0.3450
  362ANI     CH 5058   1.331   4.890   2.444  0.5506  0.3119 -0.0858
  362ANI     CH 5059   1.209   4.862   2.507  0.4317 -0.1772 -0.5319
  362ANI     CH 5060   1.121   4.763   2.463 -0.2870  0.5167 -0.6752
  362ANI     NH 5061   1.072   4.585   2.316 -0.1306  0.2104  0.2335
  362ANI     HC 5062   1.303   4.650   2.202  0.5928  0.5727 -1.4165
  362ANI     HC 5063   1.459   4.827   2.291 -0.9610  0.6527 -0.0300
  362ANI     HC 5064   1.396   4.971   2.473 -0.2948  1.0859 -0.3284
  362ANI     HC 5065   1.184   4.920   2.594  1.8500 -1.2924  0.6409
  362ANI     HC 5066   1.036   4.739   2.525  0.6737 -0.1524  0.4107
  362ANI     HN 5067   0.977   4.617   2.309  0.5166  2.1046 -0.1235
  362ANI     HN 5068   1.092   4.553   2.222 -0.8349  0.9364 -0.1676
  363ANI     CN 5069   3.570   0.270   3.582  0.0849 -0.1185  0.1318
  363ANI     CH 5070   3.609   0.168   3.670 -0.2073  0.1273  0.5522
  363ANI     CH 5071   3.522   0.066   3.712 -0.5554  0.2959  0.2460
  363ANI     CH 5072   3.392   0.061   3.660 -0.5199  0.7454  0.1119
  363ANI     CH 5073   3.364   0.148   3.554  0.1517  0.4786 -0.2850
  363ANI     CH 5074   3.447   0.254   3.517  0.3740  0.2322 -0.4986
  363ANI     NH 5075   3.653   0.369   3.547 -1.1430  0.8007 -0.2383
  363ANI     HC 5076   3.705   0.181   3.717  0.5468 -0.6026 -0.7528
  363ANI     HC 5077   3.555   0.003   3.793  0.8490  1.4335  0.5853
  363ANI     HC 5078   3.327  -0.014   3.701 -0.6634  1.3077  0.9270
  363ANI     HC 5079   3.269   0.140   3.503  0.0518  2.1938 -0.3956
  363ANI     HC 5080   3.420   0.336   3.452  0.5391 -0.1268 -1.0258
  363ANI     HN 5081   3.600   0.454   3.535  0.7004  2.0341  0.1773
  363ANI     HN 5082   3.719   0.391   3.620 -1.9267  3.5631 -0.3344
  364ANI     CN 5083   5.324   5.090   3.666 -0.0007  0.3527  0.8325
  364ANI     CH 5084   5.381   5.183   3.754  0.4733  0.0997  0.7937
  364ANI     CH 5085   5.391   5.321   3.734 -0.1934 -0.0983 -0.9461
  364ANI     CH 5086   5.342   5.360   3.609 -0.0395  0.7457 -0.7479
  364ANI     CH 5087   5.286   5.273   3.514  0.5246 -0.4424 -0.0022
  364ANI     CH 5088   5.274   5.137   3.545 -0.2704 -0.2123  0.7251
  364ANI     NH 5089   5.320   4.960   3.700 -0.2596 -0.0101 -0.5726
  364ANI     HC 5090   5.430   5.145   3.843 -0.6174 -0.8527  1.0017
  364ANI     HC 5091   5.428   5.396   3.803  0.4162  0.7767 -2.2093
  364ANI     HC 5092   5.347   5.466   3.589  1.6851  0.7139 -0.5321
  364ANI     HC 5093   5.258   5.311   3.417 -0.0519  0.5021  0.5315
  364ANI     HC 5094   5.233   5.062   3.477 -0.2445  1.1630 -0.8446
  364ANI     HN 5095   5.309   4.915   3.610 -0.2151 -0.5575 -0.3040
  364ANI     HN 5096   5.409   4.930   3.737  0.8603  1.0567 -2.2959
  365ANI     CN 5097   2.600   5.236   1.950 -0.1459  0.2704 -0.4585
  365ANI     CH 5098   2.669   5.357   1.940  0.3835  0.0687  0.6645
  365ANI     CH 5099   2.791   5.361   1.871 -0.2602  0.1624 -0.4866
  365ANI     CH 5100   2.841   5.246   1.809 -0.1133 -0.1046  0.1220
  365ANI     CH 5101   2.773   5.125   1.819  0.0542 -0.1728  0.4570
  365ANI     CH 5102   2.650   5.122   1.886 -0.4177  0.1105 -0.3891
  365ANI     NH 5103   2.484   5.230   2.018  0.3852  0.3385  0.4595
  365ANI     HC 5104   2.641   5.443   1.999 -1.0806  0.4386 -0.5429
  365ANI     HC 5105   2.846   5.454   1.879  0.2604 -0.3334  2.0122
  365ANI     HC 5106   2.941   5.248   1.767 -0.8178  1.2000 -1.5374
  365ANI     HC 5107   2.816   5.032   1.783 -1.1913 -0.0439 -1.4417
  365ANI     HC 5108   2.611   5.021   1.880  0.7638 -0.2987 -1.4251
  365ANI     HN 5109   2.471   5.149   2.076 -0.5001  2.1727  2.9124
  365ANI     HN 5110   2.465   5.301   2.087 -2.4522 -0.4075  0.5039
  366ANI     CN 5111   6.273   3.407   1.563  0.0118 -0.4241 -0.0765
  366ANI     CH 5112   6.366   3.424   1.461 -0.4512 -0.5117 -0.5145
  366ANI     CH 5113   6.463   3.325   1.437 -0.6097 -0.7049 -0.3537
  366ANI     CH 5114   6.473   3.215   1.523  0.1586 -0.4344 -0.0877
  366ANI     CH 5115   6.375   3.196   1.622 -0.0576 -0.6617 -0.3405
  366ANI     CH 5116   6.276   3.292   1.643  0.2589 -0.3963 -0.0454
  366ANI     NH 5117   6.178   3.501   1.577  0.5374  0.2223 -0.8359
  366ANI     HC 5118   6.370   3.517   1.406 -0.7862  0.6760  1.4310
  366ANI     HC 5119   6.540   3.327   1.362  0.0052 -3.7919  0.1076
  366ANI     HC 5120   6.540   3.131   1.516 -1.6241 -2.0451  1.3181
  366ANI     HC 5121   6.384   3.112   1.689 -1.1186 -0.8523 -0.4459
  366ANI     HC 5122   6.202   3.277   1.721  2.2691  0.6517  2.1240
  366ANI     HN 5123   6.158   3.522   1.674 -1.4677  0.2808 -1.2324
  366ANI     HN 5124   6.205   3.589   1.535  0.7031  1.0984  1.0743
  367ANI     CN 5125   1.289   5.677   2.092 -0.0244  0.7744  0.2579
  367ANI     CH 5126   1.283   5.618   1.965  0.3637  0.3866  0.4180
  367ANI     CH 5127   1.393   5.584   1.886  0.2158  0.6232  0.1058
  367ANI     CH 5128   1.517   5.623   1.939  0.5326 -0.0229 -0.1423
  367ANI     CH 5129   1.528   5.695   2.059  0.2681 -0.7913  0.3474
  367ANI     CH 5130   1.414   5.719   2.137  0.3492 -0.4233  0.3543
  367ANI     NH 5131   1.179   5.678   2.169  0.1176 -0.0297  0.4826
  367ANI     HC 5132   1.187   5.586   1.925  1.0583  2.2380 -2.9172
  367ANI     HC 5133   1.401   5.526   1.795  3.3064  0.3125  0.5100
  367ANI     HC 5134   1.610   5.598   1.891  2.1250 -1.1251  3.3951
  367ANI     HC 5135   1.618   5.734   2.105  1.0921 -1.2211 -0.8650
  367ANI     HC 5136   1.424   5.764   2.234  1.9405  2.9053 -1.2658
  367ANI     HN 5137   1.126   5.759   2.139 -3.0398 -2.7270 -1.5110
  367ANI     HN 5138   1.197   5.691   2.268 -0.7373 -1.4282  0.8246
  368ANI     CN 5139   2.032   0.499   2.015  0.8476  0.2199 -0.1729
  368ANI     CH 5140   2.142   0.414   2.032  0.0983 -0.7374 -0.0671
  368ANI     CH 5141   2.239   0.415   1.931  0.1398  0.1677 -0.0263
  368ANI     CH 5142   2.225   0.490   1.814 -0.2283  0.2489  0.0694
  368ANI     CH 5143   2.110   0.569   1.798 -0.1111  0.3861 -0.0943
  368ANI     CH 5144   2.012   0.572   1.897 -0.3228 -0.2823 -0.2846
  368ANI     NH 5145   1.931   0.514   2.102  0.3925  0.4441 -0.7383
  368ANI     HC 5146   2.149   0.331   2.101  1.0521  0.1453  0.9193
  368ANI     HC 5147   2.329   0.357   1.945  1.4778  1.4167 -3.1257
  368ANI     HC 5148   2.295   0.473   1.734  0.4653  0.5438  0.6018
  368ANI     HC 5149   2.098   0.625   1.706  1.0813  1.2165  0.2352
  368ANI     HC 5150   1.921   0.623   1.870  0.1176 -0.0052 -1.2508
  368ANI     HN 5151   1.902   0.432   2.154 -0.2836  1.4897  0.5460
  368ANI     HN 5152   1.853   0.557   2.054  1.1780  1.2443 -1.3133
  369ANI     CN 5153   5.334   0.046   0.035  0.5316 -0.3825 -0.0934
  369ANI     CH 5154   5.296   0.175  -0.002  0.4611 -0.3998 -0.0802
  369ANI     CH 5155   5.396   0.269  -0.033  0.1599 -0.0212  0.0950
  369ANI     CH 5156   5.531   0.232  -0.027  0.1311 -0.0824  0.3974
  369ANI     CH 5157   5.568   0.100   0.002  0.2475 -0.0941  0.1942
  369ANI     CH 5158   5.469   0.008   0.036  0.4401 -0.7557 -1.0143
  369ANI     NH 5159   5.246  -0.041   0.084  0.2348 -0.1389 -0.1955
  369ANI     HC 5160   5.194   0.210  -0.004  0.6670  0.4315  2.7669
  369ANI     HC 5161   5.384   0.373  -0.059 -0.5455 -0.1052  0.0530
  369ANI     HC 5162   5.611   0.304  -0.040  0.7905 -0.8164  0.3974
  369ANI     HC 5163   5.670   0.070   0.021 -0.1873 -0.8688  1.2939
  369ANI     HC 5164   5.490  -0.094   0.065 -0.6589 -0.9442 -0.8426
  369ANI     HN 5165   5.242  -0.137   0.052  1.5192  0.2906 -1.6789
  369ANI     HN 5166   5.150  -0.014   0.103  0.3065 -0.2205  0.2825
  370ANI     CN 5167   1.763   0.154   2.283 -0.3078 -0.3426  0.4131
  370ANI     CH 5168   1.642   0.110   2.229 -0.5707  0.3940  0.4005
  370ANI     CH 5169   1.605  -0.023   2.251  0.1084  0.1348 -0.0038
  370ANI     CH 5170   1.688  -0.110   2.323 -0.4108 -0.0655  0.3650
  370ANI     CH 5171   1.804  -0.061   2.385 -0.2392 -0.1138  0.0869
  370ANI     CH 5172   1.844   0.071   2.362  0.1675 -0.2460  0.0295
  370ANI     NH 5173   1.788   0.285   2.270  0.1605 -0.4099  0.6437
  370ANI     HC 5174   1.570   0.174   2.179  1.0911  0.6244 -1.7639
  370ANI     HC 5175   1.507  -0.051   2.213 -0.3484 -0.3583  1.5103
  370ANI     HC 5176   1.651  -0.210   2.334 -0.1641 -0.1842  0.1278
  370ANI     HC 5177   1.858  -0.144   2.428  1.2063  1.2411  0.9293
  370ANI     HC 5178   1.934   0.111   2.406 -0.2140  0.2493  0.3544
  370ANI     HN 5179   1.826   0.333   2.351  0.3956  0.9631 -0.2716
  370ANI     HN 5180   1.705   0.330   2.235  1.4718  1.4398 -0.1399
  371ANI     CN 5181   1.135   2.863   1.341  0.3670  0.3968  0.2090
  371ANI     CH 5182   1.200   2.762   1.269  0.2447  0.1528  0.4411
  371ANI     CH 5183   1.197   2.777   1.130 -0.0326 -0.3592  0.3935
  371ANI     CH 5184   1.133   2.885   1.067 -0.6303 -0.6134  0.5582
  371ANI     CH 5185   1.077   2.987   1.144  0.2795 -0.0505  0.4828
  371ANI     CH 5186   1.070   2.973   1.284 -0.3815  0.0851  0.4637
  371ANI     NH 5187   1.147   2.859   1.475  0.5421 -0.2308  0.1763
  371ANI     HC 5188   1.253   2.685   1.322 -1.1522 -0.7863  0.4828
  371ANI     HC 5189   1.244   2.709   1.060  1.0640 -1.3305  2.0445
  371ANI     HC 5190   1.135   2.902   0.961 -2.7345  1.9947  0.8943
  371ANI     HC 5191   1.038   3.078   1.102  0.3825 -1.4724 -2.7898
  371ANI     HC 5192   1.013   3.041   1.346  1.1004  1.9156 -0.1308
  371ANI     HN 5193   1.129   2.947   1.521  1.1445  0.2176 -0.4217
  371ANI     HN 5194   1.218   2.802   1.516  0.8873  0.3305  0.3626
  372ANI     CN 5195   4.368   5.962   2.356  0.4022  0.1552 -0.3881
  372ANI     CH 5196   4.335   5.883   2.245  0.1678 -0.5199  0.1616
  372ANI     CH 5197   4.311   5.950   2.125  0.6542 -0.7918 -0.0881
  372ANI     CH 5198   4.316   6.090   2.117 -0.1486 -0.7213  0.5574
  372ANI     CH 5199   4.363   6.166   2.224 -0.4502  0.0086  0.1740
  372ANI     CH 5200   4.376   6.101   2.348  0.2495  0.2001  0.2024
  372ANI     NH 5201   4.414   5.901   2.466  0.1327  0.2378 -0.2294
  372ANI     HC 5202   4.330   5.775   2.253 -0.6646 -0.4579  0.6045
  372ANI     HC 5203   4.294   5.900   2.031  2.0050 -1.3456 -0.0439
  372ANI     HC 5204   4.297   6.132   2.019  0.7978 -1.5160  0.0202
  372ANI     HC 5205   4.368   6.274   2.215 -0.1999  0.0608  0.8970
  372ANI     HC 5206   4.395   6.153   2.441  1.0265 -1.9797  1.2897
  372ANI     HN 5207   4.367   5.816   2.494  1.0200  0.5581  2.3151
  372ANI     HN 5208   4.424   5.957   2.549 -1.3373 -0.5844  0.5267
  373ANI     CN 5209   0.277   1.727   2.497 -0.1597 -0.0976  0.3172
  373ANI     CH 5210   0.356   1.842   2.489 -0.1529 -0.1465 -0.2965
  373ANI     CH 5211   0.494   1.833   2.509 -0.1153 -0.1012 -0.5347
  373ANI     CH 5212   0.555   1.707   2.523 -0.2317 -0.0487  0.4490
  373ANI     CH 5213   0.473   1.595   2.537 -0.1415 -0.1659  0.0289
  373ANI     CH 5214   0.334   1.602   2.523 -0.1431 -0.1440  0.0586
  373ANI     NH 5215   0.145   1.738   2.473 -0.1117 -0.0024  0.0947
  373ANI     HC 5216   0.313   1.940   2.469 -0.3992  0.4621  2.9849
  373ANI     HC 5217   0.558   1.920   2.510 -1.8046  1.1451  0.8421
  373ANI     HC 5218   0.662   1.698   2.520 -0.3260 -0.5552 -2.5802
  373ANI     HC 5219   0.518   1.500   2.563  1.2267  0.4589 -0.0184
  373ANI     HC 5220   0.268   1.517   2.527 -0.2314 -0.0216  2.2176
  373ANI     HN 5221   0.107   1.824   2.510 -2.1085 -1.0209  0.4703
  373ANI     HN 5222   0.092   1.661   2.513  1.2333 -0.2217  1.5235
  374ANI     CN 5223   2.815   2.503   4.611  0.1669 -0.6492 -0.0709
  374ANI     CH 5224   2.709   2.418   4.577 -0.5096  0.2313 -0.1594
  374ANI     CH 5225   2.650   2.335   4.673  0.4572 -0.4160 -0.1194
  374ANI     CH 5226   2.684   2.345   4.809  0.1131 -0.5761 -0.0208
  374ANI     CH 5227   2.777   2.445   4.842  0.1211 -0.4961 -0.2801
  374ANI     CH 5228   2.851   2.515   4.746  0.0065 -0.0961 -0.0771
  374ANI     NH 5229   2.877   2.580   4.521 -0.9522  0.1980 -0.1240
  374ANI     HC 5230   2.680   2.402   4.475  0.9409  1.3880 -0.7745
  374ANI     HC 5231   2.573   2.265   4.645  0.5163 -1.7684  2.9263
  374ANI     HC 5232   2.645   2.280   4.885 -1.9150 -1.3851 -1.7146
  374ANI     HC 5233   2.800   2.463   4.946  0.5088  2.7415 -0.8983
  374ANI     HC 5234   2.931   2.586   4.763  0.9429 -1.2792  0.5571
  374ANI     HN 5235   2.975   2.589   4.547 -0.5305 -2.7284 -0.6067
  374ANI     HN 5236   2.858   2.549   4.427 -2.8481  1.3810 -0.1479
  375ANI     CN 5237   0.036   2.838   0.596 -0.5927  0.1909  0.5741
  375ANI     CH 5238   0.061   2.974   0.619  0.2831  0.1033  0.1749
  375ANI     CH 5239   0.005   3.068   0.532  0.0253 -0.4047 -0.2087
  375ANI     CH 5240  -0.089   3.029   0.436 -0.0326  0.1259 -0.3687
  375ANI     CH 5241  -0.118   2.894   0.414  0.5963 -0.0559 -0.0891
  375ANI     CH 5242  -0.054   2.801   0.496  0.3560 -0.2444 -0.1143
  375ANI     NH 5243   0.082   2.739   0.674  0.1386 -0.1561 -0.2985
  375ANI     HC 5244   0.128   3.006   0.698  2.4610 -1.3510 -1.0538
  375ANI     HC 5245   0.033   3.173   0.536  0.8466 -0.5244 -2.2175
  375ANI     HC 5246  -0.121   3.108   0.369  0.9276  0.2529 -0.6881
  375ANI     HC 5247  -0.186   2.867   0.334  1.0750 -0.2057 -0.4449
  375ANI     HC 5248  -0.072   2.697   0.474 -0.8626 -0.0396 -0.0746
  375ANI     HN 5249   0.182   2.724   0.669  0.5468  2.7136 -2.5360
  375ANI     HN 5250   0.031   2.659   0.640 -1.7007  1.5286 -1.6744
  376ANI     CN 5251   5.028   2.813   4.942  0.1774  0.1198  0.0536
  376ANI     CH 5252   5.085   2.708   5.015 -0.7830 -0.3542  0.1397
  376ANI     CH 5253   5.133   2.592   4.954 -0.2632  0.1199 -0.3563
  376ANI     CH 5254   5.134   2.587   4.814  0.2333  0.3117 -0.3624
  376ANI     CH 5255   5.089   2.698   4.740 -0.0008  0.4719  0.0184
  376ANI     CH 5256   5.024   2.805   4.802  0.0888  0.5176  0.0351
  376ANI     NH 5257   4.970   2.918   5.000  0.1158  0.2146 -0.1784
  376ANI     HC 5258   5.081   2.718   5.123 -0.9064  1.0098  0.0248
  376ANI     HC 5259   5.177   2.519   5.021 -2.0778  1.3009  2.2055
  376ANI     HC 5260   5.182   2.506   4.763  1.6947 -0.3449  1.9914
  376ANI     HC 5261   5.082   2.693   4.633  1.7237  0.5073 -0.1197
  376ANI     HC 5262   4.979   2.885   4.744  0.0710  0.2791 -0.2820
  376ANI     HN 5263   4.925   2.881   5.083 -1.4242  0.3457 -0.9340
  376ANI     HN 5264   4.898   2.960   4.943 -2.2012  1.3384  3.4380
  377ANI     CN 5265   1.485   2.786   1.577  0.1323  0.0327 -0.4381
  377ANI     CH 5266   1.477   2.863   1.460  0.0894  0.0341 -0.4340
  377ANI     CH 5267   1.510   2.803   1.338 -0.5131 -0.4853 -0.3450
  377ANI     CH 5268   1.561   2.673   1.340 -0.0307 -0.2921 -0.0518
  377ANI     CH 5269   1.571   2.596   1.457  0.1978 -0.8889 -0.4573
  377ANI     CH 5270   1.530   2.654   1.578 -0.3128 -0.1228 -0.9858
  377ANI     NH 5271   1.432   2.844   1.686  0.4653 -0.1154 -0.1987
  377ANI     HC 5272   1.430   2.960   1.464 -0.5362 -0.1809 -2.1036
  377ANI     HC 5273   1.500   2.855   1.244 -1.0113  1.3824  0.7152
  377ANI     HC 5274   1.588   2.637   1.242 -1.1947 -1.7494  0.1329
  377ANI     HC 5275   1.600   2.493   1.453 -3.4365 -2.0288  0.7096
  377ANI     HC 5276   1.522   2.608   1.675 -0.5661 -1.3662 -1.5796
  377ANI     HN 5277   1.422   2.944   1.687  2.8956  0.1752 -0.9273
  377ANI     HN 5278   1.468   2.807   1.773 -0.2926 -0.5540 -0.0664
  378ANI     CN 5279   0.817   2.515   5.003 -0.0881 -0.3877 -0.7629
  378ANI     CH 5280   0.689   2.506   4.947 -0.3027 -0.4352 -0.2677
  378ANI     CH 5281   0.660   2.573   4.828  0.0199  0.2994  0.0614
  378ANI     CH 5282   0.759   2.641   4.757  0.0643 -0.5397 -0.6945
  378ANI     CH 5283   0.889   2.641   4.810 -0.1250  0.0556 -0.2304
  378ANI     CH 5284   0.917   2.586   4.935 -0.1224  0.2450 -0.1470
  378ANI     NH 5285   0.840   2.440   5.112 -0.4986  0.3300 -0.1759
  378ANI     HC 5286   0.610   2.451   4.996 -1.0974 -1.3487 -2.5155
  378ANI     HC 5287   0.560   2.568   4.786 -0.1929  0.3168  0.5699
  378ANI     HC 5288   0.737   2.690   4.663 -0.1876 -0.2080 -0.4616
  378ANI     HC 5289   0.968   2.692   4.758  1.6106  0.0217  2.2995
  378ANI     HC 5290   1.014   2.601   4.980 -0.6234  2.9860  0.1155
  378ANI     HN 5291   0.763   2.376   5.125 -0.3622  0.5327  1.7530
  378ANI     HN 5292   0.931   2.394   5.111 -0.4747  0.2860  1.7350
  379ANI     CN 5293   4.623   3.253   2.415  0.1590 -0.3196  0.1221
  379ANI     CH 5294   4.575   3.283   2.543  0.0464  0.0651 -0.0079
  379ANI     CH 5295   4.633   3.389   2.613 -0.2887  0.2363  0.0061
  379ANI     CH 5296   4.747   3.451   2.560 -0.7466  0.7665 -0.3663
  379ANI     CH 5297   4.785   3.427   2.428 -0.0497 -0.2478  0.0183
  379ANI     CH 5298   4.721   3.330   2.350  0.2123 -0.4483  0.0509
  379ANI     NH 5299   4.562   3.156   2.347 -0.2194 -0.1608  0.2369
  379ANI     HC 5300   4.495   3.224   2.585 -0.2905  0.2098 -0.4507
  379ANI     HC 5301   4.604   3.430   2.709  0.9263 -0.2719  0.5965
  379ANI     HC 5302   4.785   3.536   2.616 -2.3378  0.2205  1.6034
  379ANI     HC 5303   4.859   3.494   2.387 -2.5754  1.0125 -2.6131
  379ANI     HC 5304   4.745   3.303   2.248 -0.6687  0.6800 -0.4689
  379ANI     HN 5305   4.575   3.166   2.247  1.2939 -0.4770  0.3976
  379ANI     HN 5306   4.463   3.137   2.359 -0.6991  0.6313 -2.2180
  380ANI     CN 5307   1.003   0.725   1.848 -0.6421 -0.2730  0.1801
  380ANI     CH 5308   1.024   0.620   1.758  0.0985  0.1545 -0.1510
  380ANI     CH 5309   1.111   0.514   1.788  0.3658  0.2892 -0.4488
  380ANI     CH 5310   1.198   0.529   1.896 -0.0434 -0.3774 -0.0209
  380ANI     CH 5311   1.176   0.633   1.988  0.0834 -0.3381 -0.0349
  380ANI     CH 5312   1.080   0.732   1.965  0.3378 -0.1882 -0.4626
  380ANI     NH 5313   0.923   0.828   1.818 -0.3061 -0.1450 -0.2783
  380ANI     HC 5314   0.970   0.624   1.665  1.7027  2.3095 -1.0297
  380ANI     HC 5315   1.118   0.443   1.707  0.3829  1.1840 -1.2405
  380ANI     HC 5316   1.282   0.465   1.914 -0.9766 -1.3420  0.9515
  380ANI     HC 5317   1.236   0.637   2.077 -1.0941  1.9159  0.6874
  380ANI     HC 5318   1.071   0.822   2.024  2.5001 -0.7541  0.7663
  380ANI     HN 5319   0.940   0.903   1.883 -3.6798 -0.5900  1.2355
  380ANI     HN 5320   0.944   0.861   1.725  1.0144 -0.4937 -0.1112
  381ANI     CN 5321   4.339   5.011   3.935 -0.1670  0.1547 -0.3111
  381ANI     CH 5322   4.412   5.125   3.968 -0.1849  0.1848 -0.3739
  381ANI     CH 5323   4.353   5.221   4.051 -0.0561 -0.1808  0.1439
  381ANI     CH 5324   4.218   5.210   4.088  0.0885 -0.3940  0.6013
  381ANI     CH 5325   4.139   5.104   4.042 -0.1958  0.1028 -0.0646
  381ANI     CH 5326   4.204   5.002   3.972 -0.1410  0.2273 -0.1944
  381ANI     NH 5327   4.398   4.906   3.876  0.0595  0.0613  0.0861
  381ANI     HC 5328   4.515   5.133   3.936  0.1808  0.4677  0.8354
  381ANI     HC 5329   4.404   5.310   4.085 -0.4530 -0.1693  0.7226
  381ANI     HC 5330   4.166   5.284   4.147 -0.1357  0.2965 -0.4499
  381ANI     HC 5331   4.034   5.098   4.068 -0.2523 -2.4965 -0.7238
  381ANI     HC 5332   4.142   4.925   3.928 -1.2631  1.9635 -1.7425
  381ANI     HN 5333   4.343   4.822   3.886 -2.0207  1.4812  1.0424
  381ANI     HN 5334   4.495   4.886   3.897  0.5631  3.0860  0.8667
  382ANI     CN 5335   5.574   2.175   2.051 -0.2380 -0.1239 -0.2543
  382ANI     CH 5336   5.580   2.314   2.037  0.0379 -0.0637  0.4630
  382ANI     CH 5337   5.702   2.377   2.008  0.1054 -0.4449 -0.0847
  382ANI     CH 5338   5.812   2.299   1.970  0.6944 -0.0506  0.8007
  382ANI     CH 5339   5.805   2.159   1.976  0.1949 -0.0816 -0.3403
  382ANI     CH 5340   5.685   2.098   2.014 -0.2130  0.2846 -1.0347
  382ANI     NH 5341   5.457   2.111   2.062 -0.5551  0.5408  0.2512
  382ANI     HC 5342   5.499   2.375   2.073  0.8527 -0.3383  2.8512
  382ANI     HC 5343   5.714   2.484   2.005 -0.8545 -0.3693 -1.5698
  382ANI     HC 5344   5.902   2.349   1.938  0.7428 -1.1309 -0.8330
  382ANI     HC 5345   5.895   2.105   1.949 -0.3820 -0.7441 -0.9612
  382ANI     HC 5346   5.676   1.991   2.000 -0.2542  0.5475 -3.2587
  382ANI     HN 5347   5.470   2.030   2.003  0.5682  0.0018  1.2279
  382ANI     HN 5348   5.375   2.163   2.032  0.0222  1.1930 -0.2075
  383ANI     CN 5349   6.000   2.089   0.698 -0.0818 -0.0163 -0.0648
  383ANI     CH 5350   5.905   2.044   0.790  0.2748 -0.3528  0.1400
  383ANI     CH 5351   5.853   1.915   0.779 -0.6753  0.0483 -0.1598
  383ANI     CH 5352   5.893   1.830   0.675 -0.1001  0.0343  0.0745
  383ANI     CH 5353   5.975   1.885   0.575  0.6580 -0.4448  0.4225
  383ANI     CH 5354   6.029   2.014   0.584 -0.4424  0.0707 -0.2152
  383ANI     NH 5355   6.053   2.211   0.718  0.4231 -0.1975 -0.3130
  383ANI     HC 5356   5.862   2.100   0.872 -0.0802 -0.5629  0.1024
  383ANI     HC 5357   5.780   1.883   0.852  1.4032 -1.2433  1.4086
  383ANI     HC 5358   5.850   1.731   0.674 -1.6970  0.7269 -2.0653
  383ANI     HC 5359   5.999   1.824   0.490  2.0341  0.2637  0.2937
  383ANI     HC 5360   6.103   2.044   0.511  0.8021 -0.7607  0.6956
  383ANI     HN 5361   6.099   2.223   0.807 -1.4495  1.0608  0.5212
  383ANI     HN 5362   6.126   2.217   0.648  0.1799  1.4629 -0.4392
  384ANI     CN 5363   3.112   3.205   3.627  0.2081  0.4781  0.2737
  384ANI     CH 5364   2.974   3.200   3.650  0.2796  0.3890  0.6823
  384ANI     CH 5365   2.920   3.082   3.701  0.2627 -0.2197 -0.7358
  384ANI     CH 5366   2.997   2.967   3.723 -0.1827 -0.3604  0.1038
  384ANI     CH 5367   3.133   2.967   3.692 -0.1732  0.2173  0.1435
  384ANI     CH 5368   3.187   3.088   3.647 -0.1767  0.1975  0.0855
  384ANI     NH 5369   3.171   3.316   3.580  0.2200  0.3952  0.0928
  384ANI     HC 5370   2.912   3.288   3.637  0.9353  1.0907  2.1365
  384ANI     HC 5371   2.814   3.077   3.721  0.6607 -1.5534  1.2604
  384ANI     HC 5372   2.954   2.882   3.774 -0.2643  0.2749  1.1045
  384ANI     HC 5373   3.195   2.882   3.717 -2.1786 -0.9349  1.3298
  384ANI     HC 5374   3.293   3.086   3.625  0.4496  0.2257  2.8945
  384ANI     HN 5375   3.098   3.380   3.552  1.1276  0.8199 -1.3801
  384ANI     HN 5376   3.229   3.290   3.501  0.6451 -3.5510  1.6069
  385ANI     CN 5377   5.448   5.469   0.126 -0.3530  0.6679  0.4460
  385ANI     CH 5378   5.325   5.494   0.063 -0.1770  0.0917 -0.1406
  385ANI     CH 5379   5.322   5.542  -0.068 -0.0650 -0.4942 -0.3619
  385ANI     CH 5380   5.440   5.561  -0.141  0.0675  0.0403 -0.0080
  385ANI     CH 5381   5.563   5.532  -0.080  0.0278 -0.1106  0.0002
  385ANI     CH 5382   5.566   5.490   0.053 -0.4789 -0.4247 -0.0866
  385ANI     NH 5383   5.466   5.430   0.253  0.6232  0.4067  0.2359
  385ANI     HC 5384   5.239   5.489   0.128 -0.6075  2.2712 -0.5119
  385ANI     HC 5385   5.228   5.557  -0.119  1.2253  1.7385 -2.2052
  385ANI     HC 5386   5.437   5.596  -0.243 -0.5331  1.3350  0.4352
  385ANI     HC 5387   5.654   5.546  -0.137  0.4875 -1.8049  0.3021
  385ANI     HC 5388   5.663   5.484   0.102 -0.7582 -4.2581  0.1433
  385ANI     HN 5389   5.549   5.380   0.281  0.1333  1.2381  3.3108
  385ANI     HN 5390   5.382   5.399   0.301 -0.8922  3.0292 -0.6255
  386ANI     CN 5391   4.445   3.566   0.454  0.2894 -0.5128  0.1335
  386ANI     CH 5392   4.323   3.503   0.425 -0.0605  0.1524  0.1403
  386ANI     CH 5393   4.324   3.382   0.354 -0.0347  0.2479 -0.0222
  386ANI     CH 5394   4.446   3.319   0.323 -0.2040 -0.0875 -0.0057
  386ANI     CH 5395   4.566   3.372   0.372 -0.1977 -0.1162  0.0091
  386ANI     CH 5396   4.566   3.501   0.428  0.4916  0.0662 -0.4031
  386ANI     NH 5397   4.447   3.671   0.537 -0.4346 -0.5567  0.2154
  386ANI     HC 5398   4.231   3.555   0.448 -0.7434 -0.5377 -0.9468
  386ANI     HC 5399   4.227   3.345   0.325 -0.3906  0.1604  1.2868
  386ANI     HC 5400   4.437   3.227   0.269  2.2125  0.3973 -1.2929
  386ANI     HC 5401   4.661   3.322   0.364  0.3892  1.0749 -0.5566
  386ANI     HC 5402   4.657   3.540   0.470  0.5381 -2.0718  1.5937
  386ANI     HN 5403   4.530   3.701   0.587 -1.1509  2.7099 -0.4681
  386ANI     HN 5404   4.396   3.754   0.512  2.1085  1.0665  0.1567
  387ANI     CN 5405   4.166   5.937   3.613 -0.5139 -0.3007  0.2221
  387ANI     CH 5406   4.108   6.046   3.679  0.6729  0.0906  0.6425
  387ANI     CH 5407   4.097   6.164   3.606  0.4644 -0.4192 -0.1522
  387ANI     CH 5408   4.141   6.173   3.473  0.6314  0.3179 -0.0508
  387ANI     CH 5409   4.204   6.063   3.412  0.8315  0.3234  0.1464
  387ANI     CH 5410   4.229   5.949   3.489 -0.1493  0.3116  0.4608
  387ANI     NH 5411   4.194   5.822   3.677  0.8886  0.2244  0.5766
  387ANI     HC 5412   4.083   6.033   3.784  1.1391  2.1061  1.0292
  387ANI     HC 5413   4.044   6.248   3.649  1.4139  0.2779 -0.3249
  387ANI     HC 5414   4.128   6.252   3.400 -1.7271  0.6825  0.7227
  387ANI     HC 5415   4.234   6.079   3.310  0.1965  0.1201 -0.0770
  387ANI     HC 5416   4.279   5.864   3.445 -1.4893  0.5448 -1.5935
  387ANI     HN 5417   4.119   5.786   3.734  0.2881 -0.7423 -0.7880
  387ANI     HN 5418   4.236   5.751   3.619 -0.1584  0.1626 -0.1059
  388ANI     CN 5419   0.589   3.567   1.131  0.1562 -0.3641 -0.2454
  388ANI     CH 5420   0.602   3.651   1.020 -0.0101  0.1375  0.1173
  388ANI     CH 5421   0.487   3.685   0.947 -0.0155  0.6379  0.3495
  388ANI     CH 5422   0.360   3.646   0.992 -0.0050  0.3916  0.1687
  388ANI     CH 5423   0.347   3.564   1.104 -0.1029 -0.1685 -0.2507
  388ANI     CH 5424   0.463   3.518   1.168  0.0480 -0.4478 -0.7242
  388ANI     NH 5425   0.701   3.537   1.198 -0.0111  0.5024  0.4308
  388ANI     HC 5426   0.692   3.692   0.979  1.0709 -1.7389  0.5778
  388ANI     HC 5427   0.491   3.737   0.852 -1.1333  0.3228  0.1168
  388ANI     HC 5428   0.274   3.675   0.934 -0.0340  0.8284  0.4266
  388ANI     HC 5429   0.248   3.530   1.132  0.4154 -0.0825  1.8154
  388ANI     HC 5430   0.454   3.454   1.254  1.5080 -2.4540 -2.0154
  388ANI     HN 5431   0.686   3.498   1.289 -0.6293 -0.6986 -0.1797
  388ANI     HN 5432   0.760   3.619   1.206  0.7051  0.2189 -1.6036
  389ANI     CN 5433   4.627   0.742   0.932 -0.2062  0.0201 -0.0658
  389ANI     CH 5434   4.590   0.854   1.007  0.0357  0.1259 -0.1065
  389ANI     CH 5435   4.487   0.938   0.964 -0.0594  0.0101 -0.1045
  389ANI     CH 5436   4.419   0.905   0.846 -0.6081 -0.1838  0.2642
  389ANI     CH 5437   4.444   0.788   0.774 -0.0292  0.2508 -0.2451
  389ANI     CH 5438   4.552   0.710   0.818 -0.4389 -0.1136  0.1242
  389ANI     NH 5439   4.723   0.658   0.972 -0.6528 -0.4777 -0.0298
  389ANI     HC 5440   4.644   0.882   1.097 -1.3604  1.0925  0.4354
  389ANI     HC 5441   4.453   1.016   1.031  1.0230  1.4318 -1.1719
  389ANI     HC 5442   4.339   0.973   0.818 -1.5328 -0.3457  2.3985
  389ANI     HC 5443   4.382   0.753   0.693  2.5414 -1.4108 -1.5385
  389ANI     HC 5444   4.579   0.618   0.769  1.0100  1.0240 -1.2828
  389ANI     HN 5445   4.699   0.563   0.948 -2.0854 -0.1898  0.2399
  389ANI     HN 5446   4.730   0.660   1.073 -0.9600 -0.3873 -0.0102
  390ANI     CN 5447   3.359   4.337   1.440 -0.2143 -0.4666  0.1692
  390ANI     CH 5448   3.354   4.404   1.562 -0.1276  0.4549 -0.3272
  390ANI     CH 5449   3.232   4.421   1.628  0.0320  0.2438  0.0264
  390ANI     CH 5450   3.113   4.378   1.568 -0.0226  0.2872  0.1029
  390ANI     CH 5451   3.116   4.308   1.447 -0.3762  1.0927 -0.3759
  390ANI     CH 5452   3.240   4.287   1.386 -0.3180 -0.2354  0.1816
  390ANI     NH 5453   3.475   4.313   1.376  0.0731  0.8357  0.1695
  390ANI     HC 5454   3.448   4.438   1.605 -0.5654  1.3582 -0.0782
  390ANI     HC 5455   3.227   4.484   1.716 -0.7166 -0.4539  0.4924
  390ANI     HC 5456   3.015   4.391   1.612 -0.0684 -0.7769  0.3424
  390ANI     HC 5457   3.025   4.285   1.394 -0.2565  1.0441 -0.5623
  390ANI     HC 5458   3.243   4.235   1.291 -1.2381  3.2590 -1.8366
  390ANI     HN 5459   3.544   4.377   1.411  0.0035  1.1717 -0.3153
  390ANI     HN 5460   3.464   4.337   1.279 -0.2421  0.9982  0.2435
  391ANI     CN 5461   2.464   1.885   4.699  0.0771 -0.0926 -0.2311
  391ANI     CH 5462   2.570   1.848   4.782 -0.4168  0.0156  0.4557
  391ANI     CH 5463   2.589   1.919   4.902  0.7116  0.1530  0.2013
  391ANI     CH 5464   2.501   2.018   4.944  0.4378 -0.2352  0.5432
  391ANI     CH 5465   2.398   2.055   4.856  1.1222 -0.3035 -0.2870
  391ANI     CH 5466   2.378   1.989   4.735 -0.2237 -0.4165 -0.0043
  391ANI     NH 5467   2.448   1.830   4.578 -0.3280 -0.7524  0.1145
  391ANI     HC 5468   2.635   1.762   4.767 -0.6871 -0.3079  1.0814
  391ANI     HC 5469   2.673   1.882   4.960  0.2737 -0.0327  0.7189
  391ANI     HC 5470   2.521   2.065   5.040  0.2427  1.8539 -0.4233
  391ANI     HC 5471   2.332   2.136   4.883 -1.2848 -1.3588 -2.8270
  391ANI     HC 5472   2.292   2.019   4.676 -0.8143 -1.7661  0.1525
  391ANI     HN 5473   2.375   1.874   4.523  0.4843 -0.6558 -0.9016
  391ANI     HN 5474   2.530   1.811   4.523  0.9683  2.3805  0.8191
  392ANI     CN 5475   3.623   4.685   4.262  0.4893  0.4292 -1.0420
  392ANI     CH 5476   3.676   4.735   4.382  0.3323 -0.7566 -0.4639
  392ANI     CH 5477   3.755   4.652   4.461  0.1376 -0.4075  0.1008
  392ANI     CH 5478   3.791   4.522   4.422  0.0121 -0.4465  0.1161
  392ANI     CH 5479   3.733   4.472   4.306  0.1386  0.0761 -0.1747
  392ANI     CH 5480   3.648   4.551   4.227 -0.3607 -0.0661  0.2172
  392ANI     NH 5481   3.545   4.767   4.192 -0.3700  0.4322 -0.0903
  392ANI     HC 5482   3.653   4.838   4.405  3.1318  0.0960 -1.3052
  392ANI     HC 5483   3.804   4.694   4.548  0.2176 -1.4648  0.5752
  392ANI     HC 5484   3.864   4.458   4.470 -1.6751 -2.8099 -0.3946
  392ANI     HC 5485   3.756   4.370   4.281  0.4665  0.0047  0.4186
  392ANI     HC 5486   3.601   4.503   4.143 -0.8573  3.0174 -1.3637
  392ANI     HN 5487   3.519   4.842   4.254  3.2626  0.2097  1.7723
  392ANI     HN 5488   3.452   4.734   4.169  0.2317 -0.7674 -0.8695
  393ANI     CN 5489   0.601   4.777   5.346  0.0363 -0.1189 -0.6518
  393ANI     CH 5490   0.679   4.693   5.427 -0.5365 -0.0055  0.0214
  393ANI     CH 5491   0.624   4.616   5.530 -0.3492 -0.3388 -0.1265
  393ANI     CH 5492   0.486   4.625   5.548 -0.2973 -0.2544  0.2394
  393ANI     CH 5493   0.407   4.705   5.465  0.0413  0.2006  0.3518
  393ANI     CH 5494   0.464   4.790   5.369  0.1956 -0.0063  0.2627
  393ANI     NH 5495   0.665   4.847   5.251  0.4440  0.1657 -0.1689
  393ANI     HC 5496   0.786   4.685   5.415 -0.6133 -1.4336  0.2722
  393ANI     HC 5497   0.683   4.555   5.598  0.8437  0.5677 -0.3188
  393ANI     HC 5498   0.441   4.567   5.627  3.0320 -1.3840  1.3603
  393ANI     HC 5499   0.301   4.707   5.489  0.3871  0.4448  1.9250
  393ANI     HC 5500   0.400   4.859   5.316 -0.3398 -1.6093 -1.2483
  393ANI     HN 5501   0.720   4.790   5.188  0.0944  0.6310 -0.8985
  393ANI     HN 5502   0.607   4.906   5.193 -0.8840  0.2872  1.2446
  394ANI     CN 5503   5.871   2.688   0.650  0.8169 -0.1570 -0.0351
  394ANI     CH 5504   5.929   2.722   0.773 -0.0167 -0.2303  0.3788
  394ANI     CH 5505   5.952   2.856   0.808  0.0284 -0.0226 -0.4377
  394ANI     CH 5506   5.916   2.953   0.714  0.5002  0.0934 -0.4978
  394ANI     CH 5507   5.854   2.922   0.592 -0.0155  0.1511 -0.2501
  394ANI     CH 5508   5.837   2.787   0.558  0.4465 -0.0316  0.2349
  394ANI     NH 5509   5.847   2.561   0.614  0.7470 -0.1526 -0.0030
  394ANI     HC 5510   5.948   2.654   0.855 -1.2605 -0.5538  0.4069
  394ANI     HC 5511   5.999   2.870   0.904  0.7627  0.5256 -0.8796
  394ANI     HC 5512   5.921   3.057   0.739 -2.3546  0.0585  0.4216
  394ANI     HC 5513   5.831   2.993   0.514 -0.5223 -0.8002 -0.9888
  394ANI     HC 5514   5.805   2.756   0.459  0.6059 -0.1415  0.2175
  394ANI     HN 5515   5.778   2.548   0.542  1.5174 -4.3928 -0.1152
  394ANI     HN 5516   5.829   2.491   0.685 -1.5965  0.3000 -0.1023
  395ANI     CN 5517   3.810   0.368   0.216 -0.1152 -0.3851  0.0411
  395ANI     CH 5518   3.895   0.340   0.109 -0.2086 -0.4476 -0.0160
  395ANI     CH 5519   3.905   0.436   0.007 -0.0570 -0.1377  0.2914
  395ANI     CH 5520   3.824   0.550   0.005  0.1481  0.0166  0.6167
  395ANI     CH 5521   3.733   0.572   0.109 -0.2047 -0.4437  0.4105
  395ANI     CH 5522   3.748   0.493   0.223  0.4398 -0.1334  0.5457
  395ANI     NH 5523   3.826   0.286   0.321  0.9054 -0.4813 -0.1778
  395ANI     HC 5524   3.954   0.250   0.098  1.9063  1.1125 -2.0519
  395ANI     HC 5525   3.978   0.421  -0.072  0.9949  4.1111  0.3480
  395ANI     HC 5526   3.837   0.613  -0.081  0.0677 -0.0079  0.5855
  395ANI     HC 5527   3.675   0.663   0.110 -2.4735 -1.8300  3.3584
  395ANI     HC 5528   3.692   0.518   0.312 -3.9765  0.5801 -2.2628
  395ANI     HN 5529   3.751   0.281   0.389  0.4100 -2.1426 -0.8147
  395ANI     HN 5530   3.841   0.192   0.287  3.9986 -0.1257  0.0501
  396ANI     CN 5531   6.042   4.338   3.381 -0.5410  0.4728  0.2568
  396ANI     CH 5532   6.166   4.394   3.415 -0.0807 -0.4730  0.1403
  396ANI     CH 5533   6.202   4.504   3.336 -0.3105 -0.5766 -0.1099
  396ANI     CH 5534   6.129   4.547   3.225  0.2239  0.2834 -0.1390
  396ANI     CH 5535   6.003   4.491   3.198  0.1238  0.5290 -0.1791
  396ANI     CH 5536   5.962   4.382   3.275  0.1884  0.3950 -0.3324
  396ANI     NH 5537   6.004   4.224   3.439 -0.2133 -0.2050 -0.8651
  396ANI     HC 5538   6.232   4.367   3.495  0.3759  1.3974  0.4219
  396ANI     HC 5539   6.301   4.544   3.357 -0.8408  0.6029  0.1937
  396ANI     HC 5540   6.162   4.631   3.166 -0.2608  0.5688 -0.0133
  396ANI     HC 5541   5.943   4.535   3.119  0.3664 -0.5301 -0.9560
  396ANI     HC 5542   5.872   4.326   3.252  1.1672 -1.6162  0.6179
  396ANI     HN 5543   5.982   4.155   3.368  0.0641  0.2506 -1.4011
  396ANI     HN 5544   6.072   4.183   3.501  0.8774  1.7178 -0.7474
  397ANI     CN 5545   5.670   5.541   2.583  0.0830  0.0548  0.2177
  397ANI     CH 5546   5.646   5.670   2.534  0.1637 -0.1309 -0.3111
  397ANI     CH 5547   5.684   5.700   2.403  0.2685 -0.3146 -0.3236
  397ANI     CH 5548   5.746   5.608   2.318  1.1565  0.5142 -0.5764
  397ANI     CH 5549   5.774   5.482   2.371 -0.4992  0.3554 -0.0664
  397ANI     CH 5550   5.736   5.449   2.501  0.1132  0.2021  0.0756
  397ANI     NH 5551   5.623   5.515   2.706 -0.4364 -0.5465 -0.1028
  397ANI     HC 5552   5.617   5.751   2.599 -0.8085  0.0443 -0.9436
  397ANI     HC 5553   5.671   5.802   2.367 -0.1723 -0.6269 -1.0606
  397ANI     HC 5554   5.783   5.637   2.221  1.2011  0.7431 -0.4923
  397ANI     HC 5555   5.825   5.411   2.307  1.4787  1.6584  0.0485
  397ANI     HC 5556   5.755   5.349   2.539 -5.2775 -0.7353  0.7206
  397ANI     HN 5557   5.584   5.423   2.722 -0.1112 -0.8213 -0.8878
  397ANI     HN 5558   5.551   5.579   2.734  0.1841 -0.4233  1.2565
  398ANI     CN 5559   3.655   5.457   2.538 -0.0774  0.3460  0.1505
  398ANI     CH 5560   3.657   5.365   2.432  0.1828  0.2796  0.2131
  398ANI     CH 5561   3.558   5.375   2.333  0.1480  0.0897  0.2271
  398ANI     CH 5562   3.450   5.463   2.347  0.3254  0.3735 -0.1747
  398ANI     CH 5563   3.451   5.555   2.452  0.1282  0.1387  0.0311
  398ANI     CH 5564   3.551   5.550   2.549  0.1020  0.5536  0.0775
  398ANI     NH 5565   3.738   5.438   2.641 -0.2926 -0.0043  0.2635
  398ANI     HC 5566   3.737   5.293   2.420  1.4006  1.0841  2.9717
  398ANI     HC 5567   3.567   5.327   2.237 -0.9129  1.8183 -0.7572
  398ANI     HC 5568   3.370   5.463   2.274  1.3922  2.0001 -1.3840
  398ANI     HC 5569   3.368   5.624   2.455 -0.2392 -0.3084  0.3950
  398ANI     HC 5570   3.539   5.612   2.637 -1.6972 -0.3998  0.5124
  398ANI     HN 5571   3.751   5.340   2.659 -1.1574 -0.4880 -1.6428
  398ANI     HN 5572   3.702   5.484   2.724  1.5842  0.4917  0.8419
  399ANI     CN 5573   3.942   0.718   5.209 -0.0646  0.3858 -0.3637
  399ANI     CH 5574   3.968   0.662   5.334 -0.3156  0.0296 -0.4723
  399ANI     CH 5575   3.875   0.575   5.393 -0.2624  0.4416  0.2265
  399ANI     CH 5576   3.757   0.537   5.328  0.3501 -0.1217 -0.5660
  399ANI     CH 5577   3.725   0.601   5.207 -0.4949 -0.0674 -0.3202
  399ANI     CH 5578   3.817   0.692   5.152 -0.0071 -0.4323 -0.1194
  399ANI     NH 5579   4.038   0.788   5.147  0.6323 -0.0547  0.2139
  399ANI     HC 5580   4.065   0.674   5.380 -0.2905 -4.5577  0.9697
  399ANI     HC 5581   3.908   0.526   5.484  2.1316  3.8964  1.3215
  399ANI     HC 5582   3.689   0.455   5.345  1.4532 -0.5794  1.7592
  399ANI     HC 5583   3.629   0.574   5.166  0.0941 -2.6279 -0.0793
  399ANI     HC 5584   3.788   0.739   5.059  2.5112 -1.9415 -1.7233
  399ANI     HN 5585   4.049   0.774   5.047  0.6528  1.0938  0.0535
  399ANI     HN 5586   4.131   0.769   5.182 -0.3154 -0.6233  2.4614
  400ANI     CN 5587   2.528   2.128   0.991  0.0315  0.1250  0.2193
  400ANI     CH 5588   2.606   2.077   1.096 -0.0928 -0.5710 -0.0203
  400ANI     CH 5589   2.745   2.073   1.087 -0.0623  0.2821 -0.0408
  400ANI     CH 5590   2.802   2.108   0.964 -0.1320 -0.4792 -0.2912
  400ANI     CH 5591   2.730   2.164   0.858 -0.0177  0.2077 -0.0060
  400ANI     CH 5592   2.591   2.171   0.874 -0.0783 -0.6461 -0.1279
  400ANI     NH 5593   2.397   2.145   1.013 -0.0691 -0.0225 -0.2617
  400ANI     HC 5594   2.550   2.054   1.185 -1.6475  1.8298 -0.3177
  400ANI     HC 5595   2.802   2.035   1.171  0.6572  1.0251 -0.1905
  400ANI     HC 5596   2.909   2.102   0.952  0.2281 -2.3605  3.2239
  400ANI     HC 5597   2.781   2.210   0.775 -1.2270  3.4053  0.9623
  400ANI     HC 5598   2.524   2.210   0.798 -0.7661  1.5232  1.5504
  400ANI     HN 5599   2.347   2.119   1.097 -0.4028  2.3672  0.3243
  400ANI     HN 5600   2.345   2.141   0.926 -1.0431 -1.3137  0.3624
  401ANI     CN 5601   4.496   0.706   1.448  0.1623  0.2293 -0.1998
  401ANI     CH 5602   4.476   0.707   1.309  0.4578  0.0638 -0.2455
  401ANI     CH 5603   4.463   0.585   1.242 -0.4007 -0.0981  0.2090
  401ANI     CH 5604   4.464   0.463   1.311 -0.1899 -0.4876 -0.4825
  401ANI     CH 5605   4.478   0.463   1.450 -0.2584  0.4787 -0.4684
  401ANI     CH 5606   4.498   0.584   1.517 -0.0698  0.2632 -0.1310
  401ANI     NH 5607   4.524   0.820   1.512  0.6723  0.1014 -0.1955
  401ANI     HC 5608   4.472   0.806   1.264 -2.9483 -0.2161 -0.6858
  401ANI     HC 5609   4.430   0.594   1.140 -3.0401 -0.6240  0.9614
  401ANI     HC 5610   4.459   0.368   1.260 -1.2310  0.2766 -1.8454
  401ANI     HC 5611   4.495   0.369   1.502 -0.9239 -0.4810 -1.9692
  401ANI     HC 5612   4.512   0.577   1.624  1.2817  0.6136 -0.2658
  401ANI     HN 5613   4.615   0.853   1.483  0.7308  1.6048  1.5837
  401ANI     HN 5614   4.527   0.826   1.613  0.0442  0.5086 -0.1976
  402ANI     CN 5615   6.238   1.577   3.167  0.2709  0.4269 -0.5385
  402ANI     CH 5616   6.277   1.445   3.140  0.1836  0.2870  0.0089
  402ANI     CH 5617   6.404   1.400   3.180  0.1592  0.1500 -0.0671
  402ANI     CH 5618   6.477   1.480   3.268 -0.3484  0.1326  0.3715
  402ANI     CH 5619   6.432   1.606   3.308 -0.2209  0.3509 -0.1774
  402ANI     CH 5620   6.312   1.657   3.255 -0.0980  0.5108 -0.3009
  402ANI     NH 5621   6.126   1.621   3.109 -0.3131 -0.1614  0.1332
  402ANI     HC 5622   6.210   1.383   3.081 -1.2168 -1.5844  3.4256
  402ANI     HC 5623   6.432   1.298   3.160  0.8747 -0.5076  4.0097
  402ANI     HC 5624   6.579   1.452   3.292 -0.6592 -1.5624 -0.2157
  402ANI     HC 5625   6.486   1.670   3.376 -0.4190  0.0080  0.2985
  402ANI     HC 5626   6.287   1.759   3.278 -2.1657 -0.0597  0.0830
  402ANI     HN 5627   6.078   1.558   3.046  1.9015 -0.7693 -0.9898
  402ANI     HN 5628   6.063   1.657   3.180 -1.3554  0.0770 -0.8996
  403ANI     CN 5629   3.091   1.343   0.828  0.3549  0.1701  0.0080
  403ANI     CH 5630   3.039   1.446   0.906 -0.3015 -0.1374 -0.0183
  403ANI     CH 5631   3.038   1.577   0.857  0.1843 -0.1747 -0.1235
  403ANI     CH 5632   3.088   1.604   0.729 -0.1377  0.7650 -0.0594
  403ANI     CH 5633   3.147   1.500   0.655 -0.3936  0.4543  0.1753
  403ANI     CH 5634   3.145   1.368   0.702 -0.0284  0.3447 -0.1226
  403ANI     NH 5635   3.098   1.217   0.875  0.3805  0.0487 -0.3230
  403ANI     HC 5636   2.996   1.433   1.005  0.3677  0.9753  0.4362
  403ANI     HC 5637   2.986   1.653   0.913 -0.8660 -0.5140 -0.6303
  403ANI     HC 5638   3.095   1.700   0.681 -1.7801  1.2244  0.6103
  403ANI     HC 5639   3.193   1.512   0.558 -0.5934 -3.4761 -0.4802
  403ANI     HC 5640   3.183   1.280   0.652 -0.9340  0.5949 -1.2608
  403ANI     HN 5641   3.100   1.228   0.975  1.9550  1.9958 -0.5431
  403ANI     HN 5642   3.183   1.170   0.849  1.1778  1.6396 -0.6679
  404ANI     CN 5643   4.584   0.058   2.739 -0.7626  0.0784  0.5203
  404ANI     CH 5644   4.596  -0.035   2.843  0.8968  0.1486  0.4052
  404ANI     CH 5645   4.606   0.011   2.974  0.1905  0.1221  0.4682
  404ANI     CH 5646   4.602   0.148   3.005 -0.2088  0.2542 -0.1779
  404ANI     CH 5647   4.585   0.235   2.897 -0.6945  0.3723 -0.0067
  404ANI     CH 5648   4.584   0.196   2.762  0.5017  0.1717  0.0368
  404ANI     NH 5649   4.570   0.022   2.611 -0.3235  0.5200  0.3436
  404ANI     HC 5650   4.587  -0.142   2.836 -1.1724  0.2659  1.0111
  404ANI     HC 5651   4.608  -0.061   3.055  0.8342 -0.0285  0.3214
  404ANI     HC 5652   4.606   0.183   3.107 -1.3430  1.1776 -0.4297
  404ANI     HC 5653   4.570   0.340   2.919  2.7324  0.7457  0.7803
  404ANI     HC 5654   4.557   0.258   2.678  0.0409 -1.8306 -1.3244
  404ANI     HN 5655   4.546  -0.076   2.605  1.8019 -0.0273  0.5404
  404ANI     HN 5656   4.655   0.028   2.556  1.5456  0.4145  3.1524
  405ANI     CN 5657   1.613   2.336   1.212 -0.3675  0.8323  0.2275
  405ANI     CH 5658   1.506   2.347   1.123 -0.0738 -0.3253 -0.2833
  405ANI     CH 5659   1.516   2.446   1.024 -0.1719 -0.0034  0.0253
  405ANI     CH 5660   1.628   2.527   1.005 -0.3548  0.2994  0.2320
  405ANI     CH 5661   1.737   2.508   1.090 -0.0087  0.6222 -0.1378
  405ANI     CH 5662   1.731   2.409   1.189 -0.2700  0.5275 -0.2483
  405ANI     NH 5663   1.607   2.244   1.309  0.3709 -0.0762 -0.5734
  405ANI     HC 5664   1.420   2.286   1.146 -0.9521  0.7884 -0.5471
  405ANI     HC 5665   1.423   2.464   0.972 -1.6521  1.2851  2.9676
  405ANI     HC 5666   1.617   2.609   0.935  2.4905  2.3166  2.0668
  405ANI     HC 5667   1.834   2.553   1.077  0.0525  0.4521 -0.2808
  405ANI     HC 5668   1.816   2.389   1.252  1.2235  0.8429 -2.1419
  405ANI     HN 5669   1.516   2.224   1.347  0.6002  0.5175  0.3143
  405ANI     HN 5670   1.684   2.226   1.372  0.0831  1.2334  0.1722
  406ANI     CN 5671   2.929   2.052   4.395 -0.1570  0.4749  0.6622
  406ANI     CH 5672   3.014   1.945   4.427 -0.3512  0.0433 -0.2572
  406ANI     CH 5673   2.990   1.872   4.544  0.1645  0.0198 -0.1690
  406ANI     CH 5674   2.878   1.906   4.621  0.0975  0.1929 -0.3443
  406ANI     CH 5675   2.794   2.013   4.585  0.0893  0.5037  0.5933
  406ANI     CH 5676   2.814   2.085   4.467 -0.2603  0.4585  0.5056
  406ANI     NH 5677   2.969   2.116   4.284  0.0140  0.0315  0.4632
  406ANI     HC 5678   3.106   1.931   4.373 -0.6265  2.8408 -1.5066
  406ANI     HC 5679   3.054   1.788   4.568  0.1561 -0.0070 -0.2429
  406ANI     HC 5680   2.850   1.826   4.687 -0.0520 -0.2500 -0.9448
  406ANI     HC 5681   2.700   2.022   4.637  0.8322 -0.0395  2.0590
  406ANI     HC 5682   2.748   2.162   4.431 -0.6673  0.1994  0.6972
  406ANI     HN 5683   2.978   2.054   4.205 -1.0280  0.7077 -0.1969
  406ANI     HN 5684   2.902   2.187   4.256  0.4227  0.1640 -0.1932
  407ANI     CN 5685   4.725   0.041   3.402  0.0671  0.2896 -0.3676
  407ANI     CH 5686   4.586   0.056   3.408  0.0818  0.3997 -0.3241
  407ANI     CH 5687   4.523   0.178   3.378 -0.1409  0.2552 -0.4487
  407ANI     CH 5688   4.601   0.292   3.354 -0.5991  0.6885  0.1023
  407ANI     CH 5689   4.741   0.282   3.351 -0.6249  0.4157 -0.1670
  407ANI     CH 5690   4.799   0.157   3.376 -0.2665  0.7414  0.6520
  407ANI     NH 5691   4.772  -0.084   3.419  0.2488  0.4063 -0.0105
  407ANI     HC 5692   4.525  -0.033   3.413 -1.1371  1.2340 -0.1092
  407ANI     HC 5693   4.417   0.183   3.395 -0.5965 -1.1914 -2.6364
  407ANI     HC 5694   4.564   0.390   3.329  0.6577  1.4220  1.0724
  407ANI     HC 5695   4.808   0.357   3.312 -2.6292  1.7630 -1.1000
  407ANI     HC 5696   4.905   0.143   3.362 -0.3725 -0.6427  1.1765
  407ANI     HN 5697   4.736  -0.122   3.506 -1.2906  1.5079 -0.1364
  407ANI     HN 5698   4.870  -0.099   3.404  1.0108  1.7149  3.0494
  408ANI     CN 5699   5.208   4.927   0.113  0.4137 -0.3122 -0.3224
  408ANI     CH 5700   5.271   5.030   0.186  0.7778 -0.1716 -0.8333
  408ANI     CH 5701   5.303   5.015   0.321 -0.1332  0.0021 -0.5944
  408ANI     CH 5702   5.264   4.897   0.387  0.5822  0.0834 -0.0296
  408ANI     CH 5703   5.195   4.797   0.319  0.5662  0.1072 -0.0477
  408ANI     CH 5704   5.181   4.807   0.180  0.3702 -0.1512 -0.0471
  408ANI     NH 5705   5.187   4.947  -0.017  0.5599 -0.0317 -0.3050
  408ANI     HC 5706   5.305   5.115   0.128 -2.9577  1.7625 -0.3683
  408ANI     HC 5707   5.351   5.102   0.362 -0.6910  0.4017 -0.7756
  408ANI     HC 5708   5.282   4.877   0.492  2.9486  0.1313 -0.3901
  408ANI     HC 5709   5.174   4.705   0.372 -1.2480 -0.4833 -1.7178
  408ANI     HC 5710   5.138   4.728   0.120 -1.7810  0.8715  0.1038
  408ANI     HN 5711   5.172   4.855  -0.056 -0.9703  0.6835 -1.4534
  408ANI     HN 5712   5.258   4.997  -0.069  1.1969 -1.0808 -0.4664
  409ANI     CN 5713   3.169   1.501   2.136 -0.3938  0.3126 -0.2968
  409ANI     CH 5714   3.093   1.608   2.184  0.0596  0.4982 -0.0010
  409ANI     CH 5715   2.957   1.591   2.209  0.1405  0.0673  0.1531
  409ANI     CH 5716   2.896   1.466   2.190  0.2628  0.0526 -0.1407
  409ANI     CH 5717   2.972   1.361   2.136  0.3739  0.5471 -0.9643
  409ANI     CH 5718   3.107   1.379   2.105  0.7123 -0.3234 -0.0106
  409ANI     NH 5719   3.302   1.506   2.125 -0.3999  0.0553 -0.4978
  409ANI     HC 5720   3.132   1.701   2.224  0.9733 -0.3222  1.0532
  409ANI     HC 5721   2.896   1.671   2.248 -0.3235  0.0729 -0.5550
  409ANI     HC 5722   2.791   1.451   2.208  0.4632  0.1670  1.1364
  409ANI     HC 5723   2.938   1.263   2.106  0.6933  0.2950 -0.5083
  409ANI     HC 5724   3.172   1.299   2.074 -0.1038 -1.0601  0.1596
  409ANI     HN 5725   3.347   1.441   2.061 -1.2339 -1.6519  0.6016
  409ANI     HN 5726   3.353   1.593   2.132 -0.0279 -0.0067 -2.1680
  410ANI     CN 5727   3.606   0.860   4.299 -0.1829 -0.0199  0.2181
  410ANI     CH 5728   3.570   0.967   4.215 -0.3768 -0.2006  0.0740
  410ANI     CH 5729   3.654   1.003   4.110 -0.2046 -0.1447  0.2294
  410ANI     CH 5730   3.780   0.945   4.089 -0.1143  0.2020 -0.2147
  410ANI     CH 5731   3.818   0.851   4.186 -0.1900  0.3784 -0.0128
  410ANI     CH 5732   3.729   0.796   4.279 -0.0249  0.3135  0.1055
  410ANI     NH 5733   3.520   0.814   4.390  0.1531 -0.3335  0.3769
  410ANI     HC 5734   3.482   1.026   4.239  0.7936  1.0425  1.3847
  410ANI     HC 5735   3.626   1.084   4.043  1.5680 -0.0591 -0.4446
  410ANI     HC 5736   3.849   0.981   4.014  0.4344 -1.4119 -0.4949
  410ANI     HC 5737   3.920   0.823   4.204 -0.7404 -1.4834  0.2822
  410ANI     HC 5738   3.752   0.714   4.346  1.9076  1.7403  1.2559
  410ANI     HN 5739   3.427   0.828   4.354  0.6871 -1.2224 -1.4140
  410ANI     HN 5740   3.536   0.718   4.419 -0.1309 -0.4860  0.0402
  411ANI     CN 5741   5.011   5.405   1.125  0.0959  0.2011 -0.5392
  411ANI     CH 5742   5.040   5.269   1.128  0.1893  0.2329  0.0107
  411ANI     CH 5743   5.139   5.215   1.213  0.1632 -0.3089 -0.2951
  411ANI     CH 5744   5.217   5.304   1.287 -0.4102  0.1535 -0.2355
  411ANI     CH 5745   5.196   5.442   1.278  0.3500  0.2902 -0.0006
  411ANI     CH 5746   5.090   5.492   1.201 -0.2485 -0.3139  0.4170
  411ANI     NH 5747   4.906   5.449   1.054 -0.2615 -0.2156 -0.2651
  411ANI     HC 5748   4.982   5.198   1.070  0.2602 -0.0089  0.2306
  411ANI     HC 5749   5.152   5.109   1.219 -2.4965 -0.7456 -1.2185
  411ANI     HC 5750   5.286   5.260   1.357  0.6224  2.6694  0.4040
  411ANI     HC 5751   5.255   5.508   1.340  1.4831 -2.1959  1.6378
  411ANI     HC 5752   5.080   5.599   1.212  0.3827 -0.3636  1.6119
  411ANI     HN 5753   4.872   5.543   1.065  0.5152 -0.0799  1.2373
  411ANI     HN 5754   4.839   5.376   1.033 -1.7628  2.2126 -4.4991
  412ANI     CN 5755   5.200   1.753   6.065  0.4893  0.3656  0.0207
  412ANI     CH 5756   5.223   1.670   5.955  1.0199  0.5386  0.0003
  412ANI     CH 5757   5.200   1.720   5.826  0.6705 -0.0758 -0.1765
  412ANI     CH 5758   5.161   1.852   5.805  1.1035  0.1125  0.2032
  412ANI     CH 5759   5.152   1.938   5.915  0.1773  0.5837 -0.2300
  412ANI     CH 5760   5.163   1.887   6.045 -0.2477  0.1090 -0.3773
  412ANI     NH 5761   5.228   1.710   6.188 -0.2979 -0.4081 -0.0688
  412ANI     HC 5762   5.256   1.570   5.978  1.8088  1.1835  1.7689
  412ANI     HC 5763   5.202   1.652   5.742  1.1917 -0.5374  0.2062
  412ANI     HC 5764   5.138   1.887   5.705  2.2696  1.1188  0.2765
  412ANI     HC 5765   5.121   2.041   5.909 -1.1590  0.1729 -0.5194
  412ANI     HC 5766   5.163   1.954   6.130 -1.6249  0.0064 -0.2883
  412ANI     HN 5767   5.193   1.762   6.267  0.9092  0.4087 -0.0697
  412ANI     HN 5768   5.294   1.639   6.215  0.6132 -0.2806 -1.9369
  413ANI     CN 5769   3.670   2.138   4.781 -0.1049 -0.1597  0.9943
  413ANI     CH 5770   3.532   2.138   4.756  0.0725 -0.2193 -0.0283
  413ANI     CH 5771   3.478   2.266   4.746 -0.1744 -0.2235  1.1838
  413ANI     CH 5772   3.552   2.385   4.755 -0.6347  0.2044 -0.4226
  413ANI     CH 5773   3.691   2.379   4.768 -0.6784 -0.0923 -0.0443
  413ANI     CH 5774   3.750   2.253   4.782 -0.3221  0.0232 -0.4609
  413ANI     NH 5775   3.733   2.020   4.790 -0.1746 -0.3201 -0.4720
  413ANI     HC 5776   3.466   2.052   4.762  1.1401 -0.8987  2.6930
  413ANI     HC 5777   3.371   2.282   4.743 -0.2340 -0.8740 -1.8335
  413ANI     HC 5778   3.503   2.480   4.745  0.2327  0.6859 -0.1345
  413ANI     HC 5779   3.763   2.460   4.760 -2.2359  1.3768  0.5158
  413ANI     HC 5780   3.854   2.247   4.809  0.5827  0.2240 -3.7468
  413ANI     HN 5781   3.695   1.948   4.731 -2.3488 -0.6480  1.2715
  413ANI     HN 5782   3.833   2.029   4.786 -0.2291  2.4106  2.6753
  414ANI     CN 5783   1.910   4.731   4.181  0.2805 -0.0039  0.1845
  414ANI     CH 5784   1.968   4.827   4.265  0.1249  0.4249 -0.1970
  414ANI     CH 5785   1.977   4.805   4.403  0.5133 -0.1293 -0.3084
  414ANI     CH 5786   1.924   4.688   4.460  0.3111  0.1008 -0.0211
  414ANI     CH 5787   1.869   4.591   4.375 -0.3909  0.2838  0.2196
  414ANI     CH 5788   1.863   4.612   4.237 -0.0551  0.1260  0.1791
  414ANI     NH 5789   1.905   4.749   4.048  0.5148 -0.0744  0.1649
  414ANI     HC 5790   1.998   4.924   4.228 -1.4107  1.1073  0.2882
  414ANI     HC 5791   2.025   4.890   4.449 -0.1454  0.5134 -0.7860
  414ANI     HC 5792   1.937   4.668   4.565  0.7395 -0.5391 -0.1916
  414ANI     HC 5793   1.839   4.493   4.408 -1.9851 -0.2535 -2.6977
  414ANI     HC 5794   1.828   4.529   4.177 -0.8830 -0.7392  1.8281
  414ANI     HN 5795   1.927   4.844   4.024  0.3998  0.0296  0.4606
  414ANI     HN 5796   1.819   4.725   4.001  1.9870 -2.1985 -1.5768
  415ANI     CN 5797   6.113   4.843   5.744  0.0232  0.0723 -0.1326
  415ANI     CH 5798   6.058   4.870   5.871  0.0061  0.2189 -0.1718
  415ANI     CH 5799   6.101   4.982   5.943  0.2098 -0.1541  0.2841
  415ANI     CH 5800   6.201   5.065   5.891 -0.0847  0.0769  0.0820
  415ANI     CH 5801   6.253   5.043   5.763  0.0030 -0.1043  0.1484
  415ANI     CH 5802   6.217   4.924   5.697  0.2229 -0.0980  0.0139
  415ANI     NH 5803   6.071   4.738   5.673 -0.0514  0.2246 -0.3123
  415ANI     HC 5804   5.987   4.800   5.909 -2.1155  1.5982 -1.4888
  415ANI     HC 5805   6.061   4.993   6.043  2.6674  0.3432  1.2370
  415ANI     HC 5806   6.237   5.148   5.951 -0.4760 -0.9717  1.8256
  415ANI     HC 5807   6.324   5.110   5.718  0.6216 -0.2584  0.8874
  415ANI     HC 5808   6.256   4.912   5.598 -0.2122  0.5717 -0.2463
  415ANI     HN 5809   6.087   4.752   5.574  0.0709  0.0673 -0.3152
  415ANI     HN 5810   5.979   4.699   5.688 -0.3798  0.7285 -0.9873
  416ANI     CN 5811   3.209   5.883   4.947 -0.0040 -0.3979  0.3301
  416ANI     CH 5812   3.106   5.895   4.853 -0.1768  0.5370  0.6302
  416ANI     CH 5813   3.016   5.790   4.832 -0.0816  0.5466  0.1778
  416ANI     CH 5814   3.015   5.683   4.922  0.4000  0.6316  0.2892
  416ANI     CH 5815   3.110   5.671   5.024  0.3477 -0.5420  0.2076
  416ANI     CH 5816   3.207   5.771   5.031  0.0280 -0.2524  0.5270
  416ANI     NH 5817   3.313   5.967   4.956  0.2039 -0.6503  0.2948
  416ANI     HC 5818   3.096   5.983   4.791 -4.4439  0.0291  0.4669
  416ANI     HC 5819   2.938   5.795   4.758  0.8910  1.0284 -0.8257
  416ANI     HC 5820   2.931   5.615   4.911 -0.2223  1.6607 -1.5466
  416ANI     HC 5821   3.130   5.582   5.083  1.4950 -0.0414  0.5812
  416ANI     HC 5822   3.283   5.773   5.108  0.5621 -1.1572  0.0261
  416ANI     HN 5823   3.301   6.067   4.945  2.7533 -0.4092 -0.8861
  416ANI     HN 5824   3.374   5.952   5.035  0.2890 -1.1993  0.1275
  417ANI     CN 5825   3.905   0.943   4.655 -0.2892  0.5325 -0.4302
  417ANI     CH 5826   3.791   0.884   4.598 -0.6174  0.3209  0.4386
  417ANI     CH 5827   3.767   0.751   4.635 -0.3849  0.3242  0.6058
  417ANI     CH 5828   3.854   0.677   4.715 -0.3822  0.1584  0.4504
  417ANI     CH 5829   3.965   0.740   4.773 -0.3038  0.4750 -0.0400
  417ANI     CH 5830   3.986   0.875   4.745 -0.0596  0.2767 -0.8281
  417ANI     NH 5831   3.923   1.073   4.628 -0.2029  0.6369  0.1290
  417ANI     HC 5832   3.732   0.951   4.538 -2.8925  0.1763  2.4366
  417ANI     HC 5833   3.681   0.698   4.597 -0.6345  0.3630  1.1105
  417ANI     HC 5834   3.829   0.573   4.728  1.2129 -0.4539 -1.1902
  417ANI     HC 5835   4.029   0.686   4.841 -1.3374  1.0044  1.3767
  417ANI     HC 5836   4.068   0.924   4.797  0.1165 -0.7678 -0.1099
  417ANI     HN 5837   3.846   1.118   4.581 -0.6460  1.1181  1.3181
  417ANI     HN 5838   3.952   1.130   4.706 -1.2642  1.1498  0.1561
  418ANI     CN 5839   0.143   0.320   0.570 -0.0277  0.0199  0.4176
  418ANI     CH 5840   0.213   0.421   0.502 -0.6139  0.3707  0.3364
  418ANI     CH 5841   0.314   0.393   0.410 -0.3273 -0.1433  0.8039
  418ANI     CH 5842   0.324   0.259   0.368  0.0210 -0.0092  0.4569
  418ANI     CH 5843   0.254   0.157   0.433 -0.2119 -0.1895 -0.0720
  418ANI     CH 5844   0.164   0.186   0.537 -0.0525  0.1241 -0.0193
  418ANI     NH 5845   0.058   0.347   0.669  0.0334 -0.0291  0.4839
  418ANI     HC 5846   0.189   0.520   0.540 -0.1771  1.0393 -1.1000
  418ANI     HC 5847   0.366   0.470   0.354  0.1399 -1.1379 -0.1680
  418ANI     HC 5848   0.386   0.235   0.283 -1.5368 -0.0934 -0.6785
  418ANI     HC 5849   0.270   0.052   0.413 -2.5898 -1.0252  2.0713
  418ANI     HC 5850   0.106   0.113   0.592  0.5272 -0.9742 -0.8364
  418ANI     HN 5851   0.081   0.432   0.719  0.8439 -0.0751  0.1831
  418ANI     HN 5852   0.022   0.278   0.734 -1.8791  1.1168  0.6846
  419ANI     CN 5853   5.736   4.946   3.363  0.3513  0.1753  0.1271
  419ANI     CH 5854   5.736   4.983   3.498  0.1355 -0.0235  0.1806
  419ANI     CH 5855   5.682   5.108   3.532 -0.4435 -0.1804 -0.1526
  419ANI     CH 5856   5.631   5.195   3.436 -0.5418 -0.4802 -0.3751
  419ANI     CH 5857   5.643   5.156   3.302 -0.5178 -0.1499 -0.4716
  419ANI     CH 5858   5.690   5.031   3.261 -0.4615 -0.3142  0.0861
  419ANI     NH 5859   5.787   4.828   3.327  0.1023  0.1576 -0.1712
  419ANI     HC 5860   5.787   4.933   3.579  2.2050  0.9161 -0.5310
  419ANI     HC 5861   5.686   5.148   3.632 -0.5449  0.2577 -0.3228
  419ANI     HC 5862   5.575   5.287   3.448  0.7857  0.5891 -2.1576
  419ANI     HC 5863   5.613   5.224   3.224  2.9316 -0.2792 -1.9855
  419ANI     HC 5864   5.688   5.009   3.155 -1.5020  0.7430 -0.1173
  419ANI     HN 5865   5.856   4.797   3.394 -0.3346  0.0014  0.2141
  419ANI     HN 5866   5.832   4.813   3.238  0.0038 -2.8033  0.2021
  420ANI     CN 5867   6.196   1.423   0.856 -0.4014 -0.3969 -0.1165
  420ANI     CH 5868   6.328   1.427   0.903 -0.4072 -0.1785 -0.1191
  420ANI     CH 5869   6.411   1.535   0.870 -0.4085 -0.3933 -0.8418
  420ANI     CH 5870   6.355   1.650   0.813 -0.4200  0.1503  0.2451
  420ANI     CH 5871   6.221   1.654   0.775 -0.2758 -0.0829 -0.2854
  420ANI     CH 5872   6.145   1.537   0.792 -0.3164  0.0744  0.6380
  420ANI     NH 5873   6.116   1.318   0.877 -0.8302 -0.0814 -0.1645
  420ANI     HC 5874   6.372   1.341   0.950  2.0971  1.4120  0.5608
  420ANI     HC 5875   6.516   1.525   0.892 -0.2077 -2.2865 -2.5322
  420ANI     HC 5876   6.426   1.729   0.794  3.8054 -3.1191  1.6813
  420ANI     HC 5877   6.184   1.749   0.740 -0.4235  1.2398  3.2912
  420ANI     HC 5878   6.038   1.539   0.784 -0.2131  1.8707 -0.4793
  420ANI     HN 5879   6.034   1.309   0.818 -0.7885  3.1178 -0.8084
  420ANI     HN 5880   6.168   1.233   0.889  0.8032  0.8825 -0.3277
  421ANI     CN 5881   2.427   5.841   3.383  0.0721  0.1234 -0.0530
  421ANI     CH 5882   2.497   5.943   3.448  0.6260 -0.2367 -0.0882
  421ANI     CH 5883   2.567   6.035   3.369 -0.0426  0.5641  0.2479
  421ANI     CH 5884   2.562   6.032   3.229 -0.2413 -0.0762  0.2668
  421ANI     CH 5885   2.504   5.920   3.169 -0.5679  0.4669 -0.4357
  421ANI     CH 5886   2.433   5.825   3.244 -0.0570  0.3616 -0.0881
  421ANI     NH 5887   2.355   5.751   3.450 -0.1519  0.7300  0.5270
  421ANI     HC 5888   2.490   5.962   3.554  1.0455  0.6055 -0.2116
  421ANI     HC 5889   2.610   6.125   3.410 -0.4995  0.8886  0.0281
  421ANI     HC 5890   2.598   6.106   3.160  0.2881 -1.1848 -0.6724
  421ANI     HC 5891   2.496   5.921   3.061 -0.5355 -1.1514 -0.4625
  421ANI     HC 5892   2.385   5.740   3.197 -0.3236  0.0062  0.8211
  421ANI     HN 5893   2.384   5.727   3.544 -0.5387  2.1112  1.0057
  421ANI     HN 5894   2.332   5.663   3.405  0.1942  0.2289  1.3198
  422ANI     CN 5895   5.599   0.845   2.302  0.5827  0.3807  0.4671
  422ANI     CH 5896   5.568   0.969   2.360  0.4202  0.6530 -0.2027
  422ANI     CH 5897   5.499   1.061   2.281  0.3652  0.2359 -0.6474
  422ANI     CH 5898   5.477   1.041   2.144  0.4254  0.0718 -0.6322
  422ANI     CH 5899   5.513   0.919   2.085  0.4483 -0.1795 -0.1062
  422ANI     CH 5900   5.569   0.821   2.168  0.1304  0.2266  0.5946
  422ANI     NH 5901   5.649   0.752   2.385  0.1048 -0.0435  0.2764
  422ANI     HC 5902   5.605   0.991   2.459  1.3536 -1.8058  0.0381
  422ANI     HC 5903   5.468   1.158   2.319  0.2740 -0.8557  2.1637
  422ANI     HC 5904   5.449   1.123   2.080 -1.5881 -1.0304 -1.2197
  422ANI     HC 5905   5.507   0.903   1.978  1.4139 -0.6716 -0.0918
  422ANI     HC 5906   5.599   0.731   2.116 -0.2717 -0.1353  0.9871
  422ANI     HN 5907   5.670   0.798   2.472 -2.6171  0.7570  0.5444
  422ANI     HN 5908   5.734   0.716   2.343  0.0161  1.7608 -1.5314
  423ANI     CN 5909   2.263   2.270   0.619 -0.3707 -0.0826 -0.3965
  423ANI     CH 5910   2.299   2.394   0.565  0.4155 -0.0833  0.1148
  423ANI     CH 5911   2.264   2.425   0.433  0.3083  0.3555  0.2435
  423ANI     CH 5912   2.190   2.333   0.357 -0.2968  0.8328  0.2468
  423ANI     CH 5913   2.152   2.209   0.410  0.2723  0.4284 -0.2827
  423ANI     CH 5914   2.183   2.183   0.544 -0.2808 -0.2608 -0.2854
  423ANI     NH 5915   2.284   2.247   0.750  0.1434  0.2712 -0.4167
  423ANI     HC 5916   2.362   2.460   0.623  0.4373  0.8084 -0.9146
  423ANI     HC 5917   2.313   2.513   0.396  0.3232  0.6409  0.9395
  423ANI     HC 5918   2.168   2.352   0.253 -0.5348  0.7484  0.2818
  423ANI     HC 5919   2.089   2.139   0.357  1.7314 -1.5998  0.5746
  423ANI     HC 5920   2.135   2.095   0.585 -1.4996  0.1519 -0.8086
  423ANI     HN 5921   2.207   2.195   0.789  0.1394  1.0951  0.7065
  423ANI     HN 5922   2.299   2.332   0.802 -1.0504  0.5692 -0.5382
  424ANI     CN 5923   3.757   5.638   0.363  0.0555 -0.1067 -0.0870
  424ANI     CH 5924   3.631   5.661   0.307  0.1289  0.1173 -0.1608
  424ANI     CH 5925   3.616   5.776   0.229  0.2614  0.1051 -0.2046
  424ANI     CH 5926   3.713   5.877   0.223  0.3953 -0.0096  0.0245
  424ANI     CH 5927   3.831   5.856   0.296  0.5477 -0.0248 -0.2211
  424ANI     CH 5928   3.859   5.734   0.360 -0.0225 -0.0218  0.0451
  424ANI     NH 5929   3.776   5.528   0.437 -1.0016 -0.1339  0.1409
  424ANI     HC 5930   3.554   5.587   0.293  2.3084 -1.8797 -1.9754
  424ANI     HC 5931   3.522   5.788   0.178  1.5036 -0.9339 -2.8331
  424ANI     HC 5932   3.700   5.976   0.183  0.4906  0.1484  0.3840
  424ANI     HC 5933   3.913   5.925   0.297 -0.9083  1.7717  1.6564
  424ANI     HC 5934   3.948   5.713   0.417  0.9689  0.4366 -1.2891
  424ANI     HN 5935   3.720   5.533   0.520  1.7320  1.7121  1.9426
  424ANI     HN 5936   3.869   5.512   0.473 -0.4767 -1.4362 -1.6964
  425ANI     CN 5937   3.893   0.031   5.924  0.1628  0.1472  0.2030
  425ANI     CH 5938   3.756   0.024   5.949  0.1762  0.0799  0.2590
  425ANI     CH 5939   3.676   0.139   5.947 -0.0569 -0.0806  0.3389
  425ANI     CH 5940   3.738   0.263   5.934  0.0598 -0.1457  0.2723
  425ANI     CH 5941   3.874   0.273   5.905 -0.1128  0.1200 -0.4653
  425ANI     CH 5942   3.952   0.156   5.904 -0.0338  0.1723 -0.2252
  425ANI     NH 5943   3.980  -0.071   5.920  0.4830  0.4145  0.2913
  425ANI     HC 5944   3.711  -0.074   5.959 -0.8225  0.4436 -0.5337
  425ANI     HC 5945   3.568   0.132   5.958 -0.0351 -1.0739 -0.0002
  425ANI     HC 5946   3.688   0.359   5.939  0.1846  0.0235 -1.4358
  425ANI     HC 5947   3.927   0.363   5.875 -1.5709  0.9923 -0.4277
  425ANI     HC 5948   4.060   0.156   5.897  0.0058  0.0072  0.3454
  425ANI     HN 5949   3.927  -0.156   5.905  1.5018  0.1441 -2.0298
  425ANI     HN 5950   4.039  -0.072   5.838 -0.9306 -0.1387 -0.7408
  426ANI     CN 5951   5.672   3.525   3.323  0.0817  0.0876 -0.2556
  426ANI     CH 5952   5.542   3.573   3.345  0.2167  0.3478 -0.0441
  426ANI     CH 5953   5.448   3.505   3.424  0.6253  0.0778  0.2112
  426ANI     CH 5954   5.481   3.374   3.463 -0.4184 -0.3205 -0.2215
  426ANI     CH 5955   5.603   3.315   3.427 -0.2399 -0.2442  0.2607
  426ANI     CH 5956   5.699   3.393   3.360 -0.8888 -0.2326 -0.6616
  426ANI     NH 5957   5.762   3.591   3.249  0.5057 -0.2808 -0.0658
  426ANI     HC 5958   5.509   3.672   3.318  0.6501  0.1035 -1.5113
  426ANI     HC 5959   5.353   3.551   3.442  0.2440 -0.2351 -0.9288
  426ANI     HC 5960   5.411   3.312   3.516  0.4329 -1.0546  0.0635
  426ANI     HC 5961   5.629   3.215   3.458 -3.3842 -0.9752  0.6468
  426ANI     HC 5962   5.799   3.360   3.337 -1.2018 -1.5005 -0.2551
  426ANI     HN 5963   5.856   3.596   3.287  0.9080  0.2197 -1.0988
  426ANI     HN 5964   5.750   3.690   3.239  1.6281 -0.1719 -0.4186
  427ANI     CN 5965   3.849   0.974   2.736 -0.4528 -0.0026 -0.4798
  427ANI     CH 5966   3.859   0.835   2.748 -0.3790  0.0364 -0.0554
  427ANI     CH 5967   3.971   0.763   2.705 -0.6598 -0.4863  0.0786
  427ANI     CH 5968   4.076   0.839   2.652 -1.2080  0.0282 -0.2823
  427ANI     CH 5969   4.071   0.978   2.635  0.1500  0.0833 -0.2936
  427ANI     CH 5970   3.956   1.044   2.680  0.1729 -0.3061  0.3342
  427ANI     NH 5971   3.733   1.036   2.764 -0.3325  0.1435 -0.2991
  427ANI     HC 5972   3.778   0.774   2.787  0.8976 -1.0837  0.8766
  427ANI     HC 5973   3.980   0.657   2.721  0.5047 -0.3702  0.1897
  427ANI     HC 5974   4.167   0.790   2.620 -1.3391  0.5904 -1.5400
  427ANI     HC 5975   4.164   1.027   2.610  0.7999 -0.4671  0.9952
  427ANI     HC 5976   3.959   1.152   2.675 -2.6206  0.0635  4.4798
  427ANI     HN 5977   3.666   0.996   2.828  0.4223  0.4765  0.7121
  427ANI     HN 5978   3.768   1.124   2.796 -1.1575  0.8100 -1.1843
  428ANI     CN 5979   3.713   3.530   0.965  0.1810  0.3159  0.0869
  428ANI     CH 5980   3.764   3.431   1.050 -0.0916  0.1857  0.0994
  428ANI     CH 5981   3.856   3.474   1.146  0.2123  0.1506 -0.1758
  428ANI     CH 5982   3.893   3.608   1.162 -0.3046  0.2078  0.5078
  428ANI     CH 5983   3.827   3.707   1.088  0.0363  0.1416  0.1143
  428ANI     CH 5984   3.738   3.665   0.988  0.2340  0.3455 -0.1437
  428ANI     NH 5985   3.627   3.503   0.866  0.3323  0.0411  0.0282
  428ANI     HC 5986   3.734   3.328   1.034  0.7215 -0.0101 -0.1995
  428ANI     HC 5987   3.913   3.399   1.199 -0.1452 -1.5946 -2.1916
  428ANI     HC 5988   3.968   3.632   1.236  2.3137 -0.3776 -1.8795
  428ANI     HC 5989   3.850   3.809   1.114  0.6473 -0.2662  1.2159
  428ANI     HC 5990   3.684   3.739   0.930  0.7671 -1.5549 -3.1979
  428ANI     HN 5991   3.679   3.451   0.797 -1.3822 -0.3643 -0.9976
  428ANI     HN 5992   3.554   3.434   0.878  2.2203 -2.0086  0.0063
  429ANI     CN 5993   1.271   0.613   4.953 -0.1640  0.4117  0.2319
  429ANI     CH 5994   1.355   0.648   4.847 -0.3975 -0.3955 -0.2197
  429ANI     CH 5995   1.291   0.664   4.723 -0.2578 -0.0391 -0.2468
  429ANI     CH 5996   1.152   0.670   4.709 -0.3263  0.3169  0.5788
  429ANI     CH 5997   1.070   0.645   4.820 -0.4489 -0.1058  0.3940
  429ANI     CH 5998   1.131   0.616   4.943 -0.1751  0.6072  0.4272
  429ANI     NH 5999   1.327   0.573   5.068 -0.3878 -0.1035  0.1594
  429ANI     HC 6000   1.462   0.642   4.859 -0.3293  3.3543  1.8220
  429ANI     HC 6001   1.355   0.681   4.638 -0.8889  3.2041 -0.1154
  429ANI     HC 6002   1.110   0.686   4.611 -0.1645 -0.2159  0.4190
  429ANI     HC 6003   0.963   0.635   4.819 -0.4233 -0.5215 -2.6466
  429ANI     HC 6004   1.076   0.564   5.019 -2.5740 -0.5687 -2.0381
  429ANI     HN 6005   1.259   0.528   5.129 -0.2804 -0.8841 -0.2884
  429ANI     HN 6006   1.400   0.506   5.050  0.4863  1.2277 -1.2130
  430ANI     CN 6007   2.789   3.294   4.691 -0.1987 -0.3475 -0.4812
  430ANI     CH 6008   2.785   3.310   4.552  0.4536  0.6872 -0.3887
  430ANI     CH 6009   2.753   3.433   4.494 -1.0227  0.4001 -0.2127
  430ANI     CH 6010   2.740   3.547   4.575 -0.3876 -0.1033  0.5995
  430ANI     CH 6011   2.761   3.536   4.713  1.0505 -0.7179  0.3489
  430ANI     CH 6012   2.774   3.409   4.770 -0.7724 -0.9503  0.2914
  430ANI     NH 6013   2.820   3.172   4.737  0.2764  0.0450  0.2486
  430ANI     HC 6014   2.791   3.229   4.482 -4.1123 -2.0300  2.0846
  430ANI     HC 6015   2.734   3.437   4.388  1.5183  0.9197 -0.6824
  430ANI     HC 6016   2.710   3.642   4.535  0.7502  1.3926  3.2121
  430ANI     HC 6017   2.740   3.624   4.773  0.3505 -0.5218 -0.1770
  430ANI     HC 6018   2.769   3.399   4.878 -1.2020  1.3638  0.5010
  430ANI     HN 6019   2.778   3.123   4.815  1.0532 -1.8030 -0.4674
  430ANI     HN 6020   2.836   3.104   4.664  0.0475 -1.4173  1.5401
  431ANI     CN 6021   1.986   4.483   0.859 -0.8419  0.2624 -0.4034
  431ANI     CH 6022   2.030   4.417   0.744  0.1897  0.2515 -0.0107
  431ANI     CH 6023   2.113   4.474   0.647  0.3278 -0.2625 -0.1945
  431ANI     CH 6024   2.165   4.602   0.670  0.3658 -0.3193  0.0346
  431ANI     CH 6025   2.124   4.669   0.786 -0.3677 -0.5150 -0.1088
  431ANI     CH 6026   2.037   4.612   0.880 -0.0377 -0.1767  0.4104
  431ANI     NH 6027   1.898   4.425   0.942  0.1688 -0.1778  0.3679
  431ANI     HC 6028   1.991   4.318   0.723  0.8782 -0.1606  0.6203
  431ANI     HC 6029   2.133   4.420   0.555  1.3191  3.5263 -2.2933
  431ANI     HC 6030   2.230   4.643   0.594 -0.7943 -3.2913 -2.6665
  431ANI     HC 6031   2.172   4.762   0.813  1.4144 -1.5018  0.2374
  431ANI     HC 6032   2.010   4.666   0.969  0.3907  0.9916 -0.1548
  431ANI     HN 6033   1.841   4.486   0.998 -1.6543 -0.1185 -1.5090
  431ANI     HN 6034   1.841   4.361   0.888  1.2184 -0.9653  0.1623
  432ANI     CN 6035   4.388   3.273   0.814  0.5995  0.6111  0.4254
  432ANI     CH 6036   4.332   3.181   0.904  0.5226  0.6017  0.3677
  432ANI     CH 6037   4.202   3.206   0.949  0.1835  0.0547 -0.2989
  432ANI     CH 6038   4.126   3.320   0.919  0.0360  0.0331 -0.0162
  432ANI     CH 6039   4.188   3.409   0.831 -0.2152 -0.3681 -0.6019
  432ANI     CH 6040   4.315   3.386   0.777  0.1413  0.1734 -0.0083
  432ANI     NH 6041   4.504   3.243   0.754  0.1501 -0.4313  0.0632
  432ANI     HC 6042   4.374   3.092   0.949 -2.4312 -0.7800  0.5452
  432ANI     HC 6043   4.156   3.142   1.023 -1.9835  2.2017  0.2705
  432ANI     HC 6044   4.021   3.326   0.946 -0.4262 -1.3813 -1.4371
  432ANI     HC 6045   4.144   3.505   0.804 -0.0121  0.0948  0.6844
  432ANI     HC 6046   4.363   3.446   0.702 -1.4805  1.2489 -0.2229
  432ANI     HN 6047   4.482   3.269   0.659  0.7473 -0.1340  0.0074
  432ANI     HN 6048   4.509   3.142   0.760 -1.6408 -0.7442 -2.6489
  433ANI     CN 6049   4.009   1.786   0.817 -0.0801 -0.5350  0.0577
  433ANI     CH 6050   4.062   1.889   0.895 -0.3398 -0.2143 -0.1901
  433ANI     CH 6051   3.980   1.995   0.936 -0.2137 -0.2887  0.2562
  433ANI     CH 6052   3.848   2.004   0.890 -0.3129  0.3149  0.6458
  433ANI     CH 6053   3.797   1.904   0.806  0.0634  0.4582  0.2464
  433ANI     CH 6054   3.879   1.798   0.765  0.2662  0.8900 -0.4858
  433ANI     NH 6055   4.082   1.676   0.794  0.1409 -0.4097  0.1607
  433ANI     HC 6056   4.165   1.888   0.925 -0.0554  1.7983 -1.0424
  433ANI     HC 6057   4.018   2.071   1.002  0.0426  1.9075 -2.3555
  433ANI     HC 6058   3.787   2.084   0.928 -0.2723  0.4096  0.5130
  433ANI     HC 6059   3.698   1.913   0.763  0.5213  1.3412 -0.6545
  433ANI     HC 6060   3.854   1.725   0.690  0.8935  1.3997 -1.1994
  433ANI     HN 6061   4.151   1.659   0.866 -0.1867 -0.3579  0.4872
  433ANI     HN 6062   4.033   1.588   0.778  1.1407 -0.6195 -1.8515
  434ANI     CN 6063   1.440   0.634   3.947 -0.2925  0.2211  0.0384
  434ANI     CH 6064   1.500   0.516   3.989 -0.3967  0.1776  0.0655
  434ANI     CH 6065   1.434   0.394   4.010  0.4675 -0.3537 -0.2494
  434ANI     CH 6066   1.296   0.396   3.986  0.4939 -0.2773 -0.3921
  434ANI     CH 6067   1.231   0.514   3.949  0.1357 -0.3115  0.1173
  434ANI     CH 6068   1.300   0.635   3.935 -0.3219 -0.0232  0.3479
  434ANI     NH 6069   1.513   0.744   3.922  0.0744 -0.1514 -0.5413
  434ANI     HC 6070   1.606   0.525   4.010 -0.2742 -0.9989  0.0156
  434ANI     HC 6071   1.483   0.306   4.048 -0.8254 -1.0338 -0.1431
  434ANI     HC 6072   1.243   0.303   4.002  2.4622 -0.9465  2.5527
  434ANI     HC 6073   1.124   0.507   3.947  0.1746 -0.5710 -2.2122
  434ANI     HC 6074   1.242   0.725   3.921  0.3707  0.1460 -1.7244
  434ANI     HN 6075   1.597   0.702   3.886  0.0694  0.3222 -1.1118
  434ANI     HN 6076   1.470   0.802   3.851 -0.6449 -0.3290 -0.2588
  435ANI     CN 6077   3.710   3.490   3.077 -0.3594  0.0209  0.0062
  435ANI     CH 6078   3.743   3.589   2.985 -0.0313 -0.1151 -0.0219
  435ANI     CH 6079   3.697   3.721   2.998 -0.3279 -0.2410  0.2037
  435ANI     CH 6080   3.607   3.753   3.100  0.0313  0.2428  0.3689
  435ANI     CH 6081   3.573   3.659   3.198 -0.5102 -0.3212 -0.3572
  435ANI     CH 6082   3.626   3.530   3.182 -0.1552 -0.2587  0.2795
  435ANI     NH 6083   3.749   3.362   3.073 -0.0746  0.1115 -0.0985
  435ANI     HC 6084   3.815   3.556   2.911 -0.7155 -0.7287 -0.4261
  435ANI     HC 6085   3.714   3.800   2.926 -2.2731 -0.5659 -0.6407
  435ANI     HC 6086   3.579   3.857   3.109 -0.0439  0.5718 -3.0649
  435ANI     HC 6087   3.512   3.692   3.281 -1.8451  0.1335 -1.5060
  435ANI     HC 6088   3.594   3.467   3.263 -2.4182  0.4166 -0.0464
  435ANI     HN 6089   3.848   3.351   3.054  0.2725  1.9611  0.6208
  435ANI     HN 6090   3.721   3.292   3.141  0.8893  0.7571  0.9745
  436ANI     CN 6091   4.143   3.610   3.511  0.4086 -0.0875 -0.4487
  436ANI     CH 6092   4.050   3.528   3.445 -0.3395  0.1789  0.2728
  436ANI     CH 6093   3.985   3.576   3.332 -0.4145  0.2988  0.3667
  436ANI     CH 6094   4.030   3.695   3.274  0.4062 -0.3292 -0.2912
  436ANI     CH 6095   4.128   3.778   3.330 -0.0251 -0.0239  0.0194
  436ANI     CH 6096   4.176   3.734   3.454 -0.0468  0.3067  0.1451
  436ANI     NH 6097   4.204   3.552   3.614 -0.8318  0.1827  0.4465
  436ANI     HC 6098   4.038   3.428   3.483 -0.5112  0.3583  0.6999
  436ANI     HC 6099   3.898   3.531   3.285 -0.1222  1.8552 -1.7782
  436ANI     HC 6100   3.983   3.722   3.180  1.3162  1.9919 -0.1314
  436ANI     HC 6101   4.157   3.869   3.280  1.2483 -0.2985  0.2361
  436ANI     HC 6102   4.243   3.801   3.506  0.9963 -0.9774  0.4659
  436ANI     HN 6103   4.147   3.482   3.661  0.4640 -2.3668 -1.6481
  436ANI     HN 6104   4.262   3.609   3.674 -1.2180 -0.5971  1.6010
  437ANI     CN 6105   4.377   4.101   1.230  0.1112  0.3053  0.0871
  437ANI     CH 6106   4.509   4.065   1.261  0.0292 -0.0695  0.0031
  437ANI     CH 6107   4.537   4.044   1.396 -0.2117 -0.1015  0.0491
  437ANI     CH 6108   4.442   4.065   1.497  0.0613  0.1622  0.2545
  437ANI     CH 6109   4.313   4.105   1.459  0.1670 -0.1305 -0.4274
  437ANI     CH 6110   4.275   4.112   1.325 -0.3625 -0.6412 -0.3083
  437ANI     NH 6111   4.343   4.131   1.104  0.3309  0.4770  0.0669
  437ANI     HC 6112   4.587   4.065   1.186 -1.2238  0.0195 -1.3378
  437ANI     HC 6113   4.637   4.026   1.435 -0.9091 -1.8054  1.0964
  437ANI     HC 6114   4.471   4.056   1.600 -3.1352  2.5024  1.4346
  437ANI     HC 6115   4.235   4.113   1.534  1.0984  3.4967  0.2217
  437ANI     HC 6116   4.173   4.139   1.300 -0.2926 -0.9831 -0.9887
  437ANI     HN 6117   4.381   4.076   1.027 -1.7424 -0.3776 -0.3824
  437ANI     HN 6118   4.243   4.125   1.092  0.1052  2.5078  0.8798
  438ANI     CN 6119   4.207   6.033   0.866 -0.0060 -0.3221  0.0845
  438ANI     CH 6120   4.246   5.910   0.813  0.4385 -0.0022 -0.3298
  438ANI     CH 6121   4.158   5.840   0.729  0.0313 -0.5022  0.5144
  438ANI     CH 6122   4.024   5.882   0.728  0.0983 -0.2446  1.2995
  438ANI     CH 6123   3.980   6.002   0.784 -0.1367  0.2798  0.0200
  438ANI     CH 6124   4.078   6.082   0.844  0.0194 -0.1415  0.3331
  438ANI     NH 6125   4.297   6.119   0.917 -0.5873  0.1883  0.2679
  438ANI     HC 6126   4.339   5.858   0.828  0.1515 -0.2166  0.6922
  438ANI     HC 6127   4.196   5.753   0.678  1.4445  0.3062  0.1781
  438ANI     HC 6128   3.958   5.823   0.666  1.4606  0.0438 -0.4963
  438ANI     HC 6129   3.879   6.036   0.766 -0.7809 -1.2298  0.6858
  438ANI     HC 6130   4.056   6.186   0.864 -1.5558 -0.3346 -0.2820
  438ANI     HN 6131   4.380   6.062   0.902 -0.4823 -0.1502  1.9524
  438ANI     HN 6132   4.319   6.195   0.855  0.7211 -0.9717 -0.7217
  439ANI     CN 6133   5.374   4.557   5.311  0.2565 -0.1972 -0.2966
  439ANI     CH 6134   5.436   4.542   5.435 -0.2544  0.2582  0.0181
  439ANI     CH 6135   5.408   4.428   5.511  0.2230  0.1883  0.0893
  439ANI     CH 6136   5.329   4.324   5.461 -0.0764  0.4138  0.0950
  439ANI     CH 6137   5.270   4.338   5.334  0.0121 -0.1740 -0.0087
  439ANI     CH 6138   5.296   4.453   5.259  0.1802 -0.2512 -0.0703
  439ANI     NH 6139   5.406   4.663   5.236  0.2259 -0.0591 -0.1154
  439ANI     HC 6140   5.496   4.619   5.482  0.1413 -0.9590  1.5580
  439ANI     HC 6141   5.434   4.428   5.616 -0.9940 -0.0181  0.3926
  439ANI     HC 6142   5.316   4.231   5.515  0.2872 -0.3814 -1.1685
  439ANI     HC 6143   5.213   4.252   5.301 -0.9238  0.6911 -0.6428
  439ANI     HC 6144   5.246   4.467   5.165  1.9033 -0.4705 -1.0289
  439ANI     HN 6145   5.404   4.749   5.290 -0.7434 -1.4530  2.1115
  439ANI     HN 6146   5.326   4.666   5.174 -1.7443 -0.6457  2.3386
  440ANI     CN 6147   2.105   4.066   1.130  0.4034  0.1880 -0.5799
  440ANI     CH 6148   2.142   4.053   1.265 -0.4450 -0.2600 -0.3879
  440ANI     CH 6149   2.225   3.947   1.303 -0.1745  0.0631 -0.0691
  440ANI     CH 6150   2.264   3.849   1.211 -0.2398  0.1202 -0.1579
  440ANI     CH 6151   2.213   3.854   1.081  0.3498 -0.3355 -0.4123
  440ANI     CH 6152   2.140   3.966   1.039  0.1647 -0.3374 -0.0928
  440ANI     NH 6153   2.035   4.176   1.097 -0.4965 -0.3599 -0.5023
  440ANI     HC 6154   2.124   4.122   1.346 -0.1946  0.7625 -1.1962
  440ANI     HC 6155   2.263   3.945   1.404  1.9966  2.5425 -0.8076
  440ANI     HC 6156   2.338   3.773   1.232 -1.6310 -1.1868  0.0903
  440ANI     HC 6157   2.228   3.775   1.008 -0.1989 -0.3575 -0.5046
  440ANI     HC 6158   2.109   3.987   0.938 -1.9146  2.8865  1.1512
  440ANI     HN 6159   2.034   4.201   0.999  2.4066 -0.3665 -0.5757
  440ANI     HN 6160   2.051   4.256   1.156 -3.9520 -0.9734  1.3611
  441ANI     CN 6161   5.215   3.400   4.914 -0.2100  0.0900  0.2473
  441ANI     CH 6162   5.355   3.399   4.925 -0.1859  0.1459 -0.0537
  441ANI     CH 6163   5.413   3.309   5.015 -0.3594  0.2811  0.1938
  441ANI     CH 6164   5.335   3.238   5.108 -0.3078 -0.3796 -0.2628
  441ANI     CH 6165   5.195   3.245   5.105 -0.3311 -0.5020  0.4885
  441ANI     CH 6166   5.139   3.326   5.005  0.2527 -0.0392  0.5326
  441ANI     NH 6167   5.158   3.489   4.832 -0.1372 -0.4778 -0.4235
  441ANI     HC 6168   5.413   3.442   4.845 -1.4763 -0.1314 -1.1688
  441ANI     HC 6169   5.517   3.280   5.010 -0.9681 -2.2823  1.4173
  441ANI     HC 6170   5.376   3.189   5.194  0.6696  1.6200  0.4469
  441ANI     HC 6171   5.139   3.193   5.181 -2.9067  0.5221 -0.6599
  441ANI     HC 6172   5.032   3.337   4.995  0.5537  1.6377 -0.9401
  441ANI     HN 6173   5.076   3.530   4.873  0.8231  0.0310  1.0336
  441ANI     HN 6174   5.221   3.562   4.802 -0.8360 -1.0162 -3.4466
  442ANI     CN 6175   4.361   3.832   2.004 -0.1748  0.0500  0.2613
  442ANI     CH 6176   4.447   3.893   1.912 -0.0175 -0.2863  0.1829
  442ANI     CH 6177   4.479   3.824   1.794  0.2151 -0.3881  0.3055
  442ANI     CH 6178   4.425   3.698   1.768 -0.4617 -0.1187  0.3700
  442ANI     CH 6179   4.347   3.633   1.863 -0.1547 -0.5914  0.3046
  442ANI     CH 6180   4.311   3.703   1.979 -0.0487  0.0619 -0.0594
  442ANI     NH 6181   4.335   3.888   2.122 -0.2610 -0.3956  0.4538
  442ANI     HC 6182   4.479   3.992   1.941 -0.1713  0.1568 -1.1080
  442ANI     HC 6183   4.540   3.868   1.716 -2.9030  0.3281 -1.8254
  442ANI     HC 6184   4.454   3.657   1.672 -0.0949  0.5144  0.2059
  442ANI     HC 6185   4.309   3.532   1.856 -1.7403  0.0471 -0.6113
  442ANI     HC 6186   4.252   3.645   2.048 -0.5727 -0.0344 -0.5840
  442ANI     HN 6187   4.309   3.984   2.108 -1.9007 -0.9145 -0.1135
  442ANI     HN 6188   4.254   3.847   2.168  1.2402 -0.8460  2.8191
  443ANI     CN 6189   5.295   5.751   2.687 -0.6488 -0.2873  0.6350
  443ANI     CH 6190   5.264   5.730   2.552  0.0642  0.7034  0.3045
  443ANI     CH 6191   5.189   5.826   2.482  0.0496  0.2643 -0.2870
  443ANI     CH 6192   5.171   5.954   2.535  0.2289  0.1262  0.1137
  443ANI     CH 6193   5.210   5.975   2.667  0.0550  0.2574  0.1453
  443ANI     CH 6194   5.264   5.873   2.747 -0.4458  0.0009  0.1612
  443ANI     NH 6195   5.369   5.661   2.753  0.2573  0.2591  0.3746
  443ANI     HC 6196   5.285   5.633   2.509 -0.3835  0.9189 -0.4000
  443ANI     HC 6197   5.141   5.807   2.387 -3.9281 -1.1296  1.8796
  443ANI     HC 6198   5.122   6.027   2.471  1.8694  0.2021 -1.1064
  443ANI     HC 6199   5.180   6.069   2.711  1.6394 -0.4553  2.8871
  443ANI     HC 6200   5.282   5.887   2.853 -0.0264  0.7000  0.0038
  443ANI     HN 6201   5.345   5.658   2.851  0.8771 -0.0545  0.5218
  443ANI     HN 6202   5.347   5.571   2.714 -1.1261  0.5402  0.4917
  444ANI     CN 6203   1.323   5.706   1.535  0.0457  0.2421 -0.7137
  444ANI     CH 6204   1.186   5.734   1.551  0.0675  0.0235 -0.1506
  444ANI     CH 6205   1.088   5.634   1.542  0.1791 -0.1339  0.3657
  444ANI     CH 6206   1.132   5.502   1.524  0.5685 -0.0826  0.9145
  444ANI     CH 6207   1.267   5.467   1.521  0.5485 -0.0842 -0.0990
  444ANI     CH 6208   1.360   5.571   1.530  0.1679  0.2537 -0.1014
  444ANI     NH 6209   1.407   5.810   1.534  0.4698 -0.1038 -0.8092
  444ANI     HC 6210   1.155   5.834   1.572  0.4786 -0.3265  2.2523
  444ANI     HC 6211   0.983   5.655   1.552  0.0612  0.5155 -1.8828
  444ANI     HC 6212   1.057   5.424   1.520  1.2194 -0.7426  1.4082
  444ANI     HC 6213   1.293   5.362   1.517 -0.5975 -0.4242  1.1825
  444ANI     HC 6214   1.466   5.551   1.532  0.1112 -0.0122  3.1474
  444ANI     HN 6215   1.498   5.773   1.561  0.6583 -0.9589 -2.5306
  444ANI     HN 6216   1.383   5.879   1.603  2.2604  0.3259 -0.5773
  445ANI     CN 6217   5.105   5.774   5.263  0.2412 -0.2353  0.0913
  445ANI     CH 6218   5.151   5.866   5.358 -0.0742 -0.2508  0.2612
  445ANI     CH 6219   5.271   5.933   5.329  0.0397 -0.5341  0.0789
  445ANI     CH 6220   5.345   5.909   5.212  0.4531  0.0056  0.2301
  445ANI     CH 6221   5.287   5.826   5.115 -0.3041  0.4558  0.2907
  445ANI     CH 6222   5.167   5.759   5.139  0.2417 -0.5895  0.1331
  445ANI     NH 6223   4.991   5.708   5.288  0.2033  0.0808  0.7757
  445ANI     HC 6224   5.106   5.873   5.456 -0.3943  0.4704  0.0715
  445ANI     HC 6225   5.315   6.005   5.396 -1.6408 -0.7325  1.4361
  445ANI     HC 6226   5.438   5.960   5.190  0.2709  0.5558  0.6887
  445ANI     HC 6227   5.351   5.813   5.029 -2.5903  2.6257 -1.8237
  445ANI     HC 6228   5.133   5.695   5.058 -1.3039  2.5701 -1.8163
  445ANI     HN 6229   4.989   5.683   5.386 -0.5330 -1.7794  0.3082
  445ANI     HN 6230   4.977   5.616   5.249 -0.0576 -0.0932  1.2721
  446ANI     CN 6231   0.141   1.975   5.477  0.0737 -0.2488  0.0632
  446ANI     CH 6232   0.101   2.074   5.387  0.0658  0.1292  0.4850
  446ANI     CH 6233   0.069   2.198   5.444 -0.1374  0.4026 -0.2188
  446ANI     CH 6234   0.094   2.232   5.577 -0.2069 -0.5651  0.0463
  446ANI     CH 6235   0.136   2.131   5.664 -0.0751 -0.5358  0.0150
  446ANI     CH 6236   0.163   2.004   5.612 -0.4485 -0.7137  0.2518
  446ANI     NH 6237   0.151   1.849   5.433  0.0856 -0.1941 -0.0919
  446ANI     HC 6238   0.071   2.040   5.289  1.8590 -1.4753  0.4584
  446ANI     HC 6239   0.022   2.280   5.391 -1.6128 -0.2643  0.0274
  446ANI     HC 6240   0.069   2.327   5.622  0.6747 -0.3721  0.1310
  446ANI     HC 6241   0.141   2.163   5.767  0.3726 -0.4131 -0.0414
  446ANI     HC 6242   0.199   1.925   5.675 -0.7173 -1.0501 -0.0147
  446ANI     HN 6243   0.147   1.786   5.512  1.8778 -1.5093 -0.9948
  446ANI     HN 6244   0.094   1.822   5.354 -0.4875  0.7691 -0.0062
  447ANI     CN 6245   2.290   4.346   2.449 -0.6295  0.0726  0.5020
  447ANI     CH 6246   2.199   4.296   2.355  0.0098 -0.4907  0.1683
  447ANI     CH 6247   2.176   4.366   2.236  0.5052  0.2948  0.5248
  447ANI     CH 6248   2.262   4.470   2.200  0.3213  0.1919 -0.2273
  447ANI     CH 6249   2.354   4.516   2.294  0.0702 -0.0241  0.1250
  447ANI     CH 6250   2.379   4.449   2.415  0.0903 -0.7984 -0.3066
  447ANI     NH 6251   2.299   4.276   2.563  0.7284 -0.4451  0.0918
  447ANI     HC 6252   2.142   4.206   2.376  0.9159 -1.0505  0.2295
  447ANI     HC 6253   2.100   4.331   2.167  2.6360 -0.9582 -1.2705
  447ANI     HC 6254   2.253   4.520   2.105  0.7972 -3.8382 -2.5161
  447ANI     HC 6255   2.416   4.602   2.272 -0.7133 -0.5951 -4.7312
  447ANI     HC 6256   2.441   4.511   2.478  1.8006 -0.9749 -1.7831
  447ANI     HN 6257   2.368   4.312   2.627  0.8324  1.6542 -1.1730
  447ANI     HN 6258   2.207   4.252   2.596  1.0687 -0.3782  1.1186
  448ANI     CN 6259   3.971   4.068   5.435  0.2830  0.4195  0.0299
  448ANI     CH 6260   4.002   4.017   5.309 -0.8722 -0.3487  0.0537
  448ANI     CH 6261   4.040   3.884   5.286 -0.3103 -0.1546 -0.1467
  448ANI     CH 6262   4.040   3.800   5.398 -0.5201  0.3195  0.2123
  448ANI     CH 6263   3.998   3.844   5.524  0.2943  0.3098  0.4882
  448ANI     CH 6264   3.960   3.978   5.542 -0.5427  0.1742 -0.2591
  448ANI     NH 6265   3.956   4.200   5.453 -0.4702  0.4480 -0.7904
  448ANI     HC 6266   3.987   4.080   5.222 -0.3549  2.4317  1.9222
  448ANI     HC 6267   4.061   3.851   5.185 -1.7290  1.9586 -1.1706
  448ANI     HC 6268   4.070   3.697   5.381 -3.5070 -0.2013 -2.4683
  448ANI     HC 6269   4.003   3.779   5.610 -1.8219 -0.8020 -0.2049
  448ANI     HC 6270   3.943   4.004   5.645  4.9242 -2.1497  1.4189
  448ANI     HN 6271   3.960   4.253   5.367 -0.4898  1.1215 -0.3839
  448ANI     HN 6272   3.885   4.228   5.520  0.2988 -2.2394  1.2216
  449ANI     CN 6273   0.844   3.572   3.710 -0.0194 -0.2516 -0.5191
  449ANI     CH 6274   0.842   3.709   3.679 -0.2721 -0.2799 -0.6341
  449ANI     CH 6275   0.871   3.755   3.550 -0.0570  0.7334 -0.2320
  449ANI     CH 6276   0.891   3.660   3.449  0.2937  0.1631  0.3685
  449ANI     CH 6277   0.906   3.525   3.483 -0.1587 -0.1636 -0.7054
  449ANI     CH 6278   0.875   3.479   3.611  0.3801 -0.0905 -0.5471
  449ANI     NH 6279   0.789   3.528   3.824  0.5398 -0.1683 -0.2189
  449ANI     HC 6280   0.820   3.778   3.759 -0.2946  1.1748 -1.8807
  449ANI     HC 6281   0.875   3.861   3.531 -0.6732  1.4902  3.5325
  449ANI     HC 6282   0.913   3.697   3.349 -0.9012  2.6282  0.9779
  449ANI     HC 6283   0.927   3.456   3.402 -1.4836 -1.2672 -0.1348
  449ANI     HC 6284   0.875   3.373   3.632  1.3452 -0.1092 -0.6244
  449ANI     HN 6285   0.695   3.565   3.823  0.2531 -0.7556  1.9086
  449ANI     HN 6286   0.767   3.432   3.804  1.4429 -0.3520 -0.3789
  450ANI     CN 6287   2.115   0.132   3.256 -0.6085 -0.4251 -0.4033
  450ANI     CH 6288   2.043   0.092   3.370  0.3882  0.4469  0.5416
  450ANI     CH 6289   2.053  -0.036   3.425 -0.4897  0.1607  0.0508
  450ANI     CH 6290   2.125  -0.138   3.361 -0.1717  0.4718 -0.0868
  450ANI     CH 6291   2.197  -0.101   3.247  0.0361 -0.5311 -0.2895
  450ANI     CH 6292   2.195   0.031   3.200 -0.7974 -0.5785 -0.3994
  450ANI     NH 6293   2.117   0.261   3.221 -0.2202 -0.1964  0.4533
  450ANI     HC 6294   1.993   0.159   3.437 -0.8330 -1.0252  1.1272
  450ANI     HC 6295   2.011  -0.046   3.524 -1.6828 -1.5926 -0.6059
  450ANI     HC 6296   2.135  -0.232   3.414 -0.3809  1.0625  1.0131
  450ANI     HC 6297   2.266  -0.171   3.204 -0.1107 -0.8569  0.0065
  450ANI     HC 6298   2.243   0.052   3.106 -1.9932  1.1734 -0.6600
  450ANI     HN 6299   2.114   0.329   3.295 -0.6473  2.4281 -1.9130
  450ANI     HN 6300   2.190   0.289   3.157  1.0831 -1.6275  1.2718
  451ANI     CN 6301   1.184   1.779   1.161  0.5810  0.3973 -0.8906
  451ANI     CH 6302   1.323   1.795   1.154  0.6335  0.5050  0.2968
  451ANI     CH 6303   1.400   1.689   1.103 -0.0725  0.3021 -0.3504
  451ANI     CH 6304   1.339   1.572   1.056  0.4844 -0.4402  0.7657
  451ANI     CH 6305   1.200   1.563   1.057  0.4688 -0.1735  0.8607
  451ANI     CH 6306   1.120   1.665   1.112  0.2801  0.3022 -0.2763
  451ANI     NH 6307   1.107   1.878   1.208  0.1241 -0.2338 -0.3159
  451ANI     HC 6308   1.370   1.883   1.194 -1.0602  1.3508  0.4731
  451ANI     HC 6309   1.505   1.705   1.086 -0.2265  2.0168  0.2051
  451ANI     HC 6310   1.403   1.497   1.010  1.3680  0.3688  0.6621
  451ANI     HC 6311   1.157   1.473   1.016  2.1335  0.3650 -2.1769
  451ANI     HC 6312   1.013   1.662   1.104  0.2767 -0.6953  0.0324
  451ANI     HN 6313   1.133   1.929   1.292 -1.4505  0.0808 -0.0003
  451ANI     HN 6314   1.016   1.842   1.233  0.2548  0.0040  0.5436
  452ANI     CN 6315   3.328   6.097   3.211  0.0261 -0.2458 -0.0192
  452ANI     CH 6316   3.260   5.990   3.152  0.6248 -0.4849 -0.2830
  452ANI     CH 6317   3.231   5.873   3.222 -0.4886 -0.1269 -0.1208
  452ANI     CH 6318   3.267   5.869   3.358  0.2571 -0.0333 -0.3110
  452ANI     CH 6319   3.345   5.971   3.415 -0.2231  0.1933 -0.0566
  452ANI     CH 6320   3.372   6.087   3.343  0.3017  0.0496 -0.0886
  452ANI     NH 6321   3.363   6.208   3.144 -0.9435  0.1937  0.1893
  452ANI     HC 6322   3.213   5.994   3.054  1.4950 -2.0121 -0.7701
  452ANI     HC 6323   3.179   5.791   3.175 -3.7939  3.0322 -2.1243
  452ANI     HC 6324   3.245   5.775   3.406 -0.4464 -0.5984 -1.6871
  452ANI     HC 6325   3.388   5.954   3.513  1.3317  0.2657 -0.7239
  452ANI     HC 6326   3.447   6.153   3.386 -0.6454 -1.2614  3.7755
  452ANI     HN 6327   3.332   6.285   3.200 -0.9025 -1.1392  2.0769
  452ANI     HN 6328   3.334   6.206   3.047  0.7836  1.8254 -0.3801
  453ANI     CN 6329   6.047   0.388   3.500  0.0692  0.3075 -0.1445
  453ANI     CH 6330   5.979   0.268   3.481 -0.1713  0.4120  0.0523
  453ANI     CH 6331   5.929   0.231   3.355  0.3183  0.1354 -0.0637
  453ANI     CH 6332   5.948   0.320   3.249  0.4831  0.1186 -0.0476
  453ANI     CH 6333   6.004   0.447   3.270 -0.1592  0.4422 -0.2885
  453ANI     CH 6334   6.050   0.482   3.397  0.5411 -0.0076 -0.4184
  453ANI     NH 6335   6.097   0.410   3.623 -0.7664  0.6149  0.1433
  453ANI     HC 6336   5.966   0.196   3.560  2.2933 -0.2465 -0.1040
  453ANI     HC 6337   5.885   0.133   3.345  0.9658 -0.0713 -0.9214
  453ANI     HC 6338   5.924   0.285   3.150  0.5199 -0.1830  0.0506
  453ANI     HC 6339   6.010   0.521   3.191 -0.5554  1.9014  1.0338
  453ANI     HC 6340   6.102   0.575   3.416  0.8742 -0.2493 -0.1272
  453ANI     HN 6341   6.046   0.490   3.658  0.7285  0.5790  2.4740
  453ANI     HN 6342   6.083   0.333   3.686  1.4207  2.4159  2.9476
  454ANI     CN 6343   5.042   6.079   0.711 -0.6406 -0.0890  0.4882
  454ANI     CH 6344   5.141   5.991   0.754 -0.1134  0.2716  0.0147
  454ANI     CH 6345   5.136   5.945   0.886  0.3556  0.4967  0.1113
  454ANI     CH 6346   5.033   5.980   0.974 -0.2145 -0.2897 -0.2468
  454ANI     CH 6347   4.938   6.073   0.929 -0.3688 -0.2807  0.0928
  454ANI     CH 6348   4.941   6.123   0.798 -0.8084  0.0704  0.2163
  454ANI     NH 6349   5.052   6.132   0.588 -0.8342 -0.8508  0.1414
  454ANI     HC 6350   5.225   5.960   0.694 -0.2896  1.4937 -0.8684
  454ANI     HC 6351   5.207   5.874   0.926 -0.2564 -0.3270 -0.2574
  454ANI     HC 6352   5.039   5.946   1.076 -0.5008 -1.3362 -0.5726
  454ANI     HC 6353   4.852   6.109   0.983 -1.0356  0.2907 -1.3016
  454ANI     HC 6354   4.856   6.182   0.768 -1.2435 -1.5738 -1.9422
  454ANI     HN 6355   4.984   6.197   0.551 -0.3613  1.3019  2.8612
  454ANI     HN 6356   5.140   6.123   0.539  0.5155  0.2530  2.2861
  455ANI     CN 6357   0.505   3.683   1.999 -0.3103 -0.3001  0.1604
  455ANI     CH 6358   0.525   3.779   1.899  0.3866 -0.1714  0.4222
  455ANI     CH 6359   0.415   3.852   1.852  0.1118 -0.5932  0.4127
  455ANI     CH 6360   0.293   3.837   1.920 -0.1487 -0.3347  0.0020
  455ANI     CH 6361   0.271   3.740   2.018 -0.1620 -0.1128  0.2158
  455ANI     CH 6362   0.379   3.660   2.057 -0.1493  0.1236  0.6825
  455ANI     NH 6363   0.604   3.598   2.027 -0.2110 -0.0571  0.5453
  455ANI     HC 6364   0.621   3.792   1.853 -0.3620 -0.4609 -1.2634
  455ANI     HC 6365   0.418   3.910   1.761 -0.9972  0.0217  0.7569
  455ANI     HC 6366   0.211   3.902   1.892  0.1185  0.1626  0.3668
  455ANI     HC 6367   0.171   3.732   2.059  0.0645 -1.5158  0.5144
  455ANI     HC 6368   0.369   3.579   2.127  0.8463 -1.0428 -0.4899
  455ANI     HN 6369   0.675   3.604   1.955 -0.4768 -1.5394  0.1384
  455ANI     HN 6370   0.587   3.502   2.054 -1.5418  0.0644  0.1405
  456ANI     CN 6371   3.937   2.931   3.150 -0.3197  0.4876  0.9148
  456ANI     CH 6372   3.970   2.993   3.028  0.8139 -0.4790  0.7127
  456ANI     CH 6373   4.084   3.073   3.024  0.3266  0.2015  0.1740
  456ANI     CH 6374   4.171   3.086   3.133  0.6267 -0.2175 -0.0157
  456ANI     CH 6375   4.138   3.016   3.250  0.7468 -0.2126  0.0216
  456ANI     CH 6376   4.024   2.936   3.260  0.5700  0.0640  0.2421
  456ANI     NH 6377   3.824   2.864   3.173  0.0803 -0.5195  0.0073
  456ANI     HC 6378   3.904   2.986   2.943 -0.7024 -1.1303  1.9058
  456ANI     HC 6379   4.103   3.119   2.929 -0.4935  0.4705  0.1363
  456ANI     HC 6380   4.262   3.139   3.108  1.3178 -0.8244  1.1060
  456ANI     HC 6381   4.201   3.027   3.337 -0.2046  1.7706  0.5054
  456ANI     HC 6382   3.990   2.890   3.351  0.3550  2.3599  1.3449
  456ANI     HN 6383   3.850   2.783   3.228 -1.5456 -0.3984  1.0053
  456ANI     HN 6384   3.787   2.827   3.087  1.6438 -0.2473 -0.8017
  457ANI     CN 6385   2.115   4.414   4.085  0.4280 -0.2058 -0.7775
  457ANI     CH 6386   2.193   4.475   4.184  0.4346 -0.3197 -0.7119
  457ANI     CH 6387   2.231   4.408   4.301  0.3454 -0.0781 -0.5441
  457ANI     CH 6388   2.190   4.274   4.310 -0.1037  0.1062  0.2102
  457ANI     CH 6389   2.120   4.204   4.211  0.0391  0.2442  0.0118
  457ANI     CH 6390   2.077   4.280   4.101 -0.6236  0.2002  0.2347
  457ANI     NH 6391   2.051   4.477   3.986  0.0041  0.0837 -0.3242
  457ANI     HC 6392   2.223   4.579   4.182 -0.6381 -0.0087 -1.2441
  457ANI     HC 6393   2.280   4.450   4.387  0.8963 -1.6274 -0.0861
  457ANI     HC 6394   2.230   4.222   4.395  1.1280 -0.2369 -0.5672
  457ANI     HC 6395   2.090   4.101   4.216 -0.0562  0.1544 -2.0194
  457ANI     HC 6396   2.019   4.237   4.020 -2.2062 -2.3379  2.6535
  457ANI     HN 6397   1.961   4.439   3.964  0.0320 -0.8104  1.0583
  457ANI     HN 6398   2.029   4.573   4.007 -1.3863 -0.0293 -1.2107
  458ANI     CN 6399   3.155   2.700   3.458  0.0017 -0.0786  0.2236
  458ANI     CH 6400   3.248   2.597   3.437 -0.0930 -0.1149 -0.0198
  458ANI     CH 6401   3.212   2.465   3.466 -0.0949  0.0247  0.6219
  458ANI     CH 6402   3.079   2.437   3.502 -0.1611 -0.3979  0.0562
  458ANI     CH 6403   2.986   2.539   3.529 -0.0082 -0.2386 -0.0165
  458ANI     CH 6404   3.024   2.669   3.497 -0.0050 -0.2118  0.0964
  458ANI     NH 6405   3.193   2.826   3.432  0.4089 -0.2267  0.0946
  458ANI     HC 6406   3.349   2.615   3.405  0.4681 -2.2156  0.4755
  458ANI     HC 6407   3.281   2.386   3.443 -0.5398 -0.2937  0.3601
  458ANI     HC 6408   3.063   2.332   3.519 -0.1699 -0.1039  1.9881
  458ANI     HC 6409   2.884   2.513   3.552 -0.1959 -0.7308 -1.3484
  458ANI     HC 6410   2.956   2.753   3.503 -1.7354 -1.5445 -0.6242
  458ANI     HN 6411   3.147   2.890   3.495  0.0686 -0.4571  0.0800
  458ANI     HN 6412   3.291   2.842   3.448  0.6589 -0.1630 -1.4125
  459ANI     CN 6413   5.882   0.496   0.772 -0.3243  0.4011 -0.2233
  459ANI     CH 6414   5.880   0.578   0.886  0.0946  0.0637  0.0302
  459ANI     CH 6415   5.757   0.594   0.951  0.1906  0.5109  0.1002
  459ANI     CH 6416   5.644   0.522   0.912  0.3375  0.2509  0.1543
  459ANI     CH 6417   5.646   0.433   0.803 -0.1170  0.2466  0.1459
  459ANI     CH 6418   5.769   0.421   0.737 -0.2615  0.2589 -0.1236
  459ANI     NH 6419   5.993   0.475   0.700 -0.0106 -0.4672  0.5017
  459ANI     HC 6420   5.967   0.635   0.913  0.9281 -0.9240 -0.5062
  459ANI     HC 6421   5.754   0.659   1.037 -0.0647  0.4889  0.1089
  459ANI     HC 6422   5.554   0.529   0.971 -1.8778 -2.0207 -2.7354
  459ANI     HC 6423   5.557   0.377   0.778  1.9552 -2.1871 -2.0760
  459ANI     HC 6424   5.774   0.345   0.661  0.9953 -1.6262  1.7952
  459ANI     HN 6425   6.078   0.440   0.742  1.6536  2.5495 -0.2352
  459ANI     HN 6426   5.975   0.400   0.635 -1.4298  0.4633 -0.2053
  460ANI     CN 6427   5.797   4.041   4.658 -0.2293 -0.1642  0.6690
  460ANI     CH 6428   5.928   3.994   4.638 -0.3863 -0.2162 -0.2538
  460ANI     CH 6429   5.974   3.882   4.706  0.7529  0.5516  0.2515
  460ANI     CH 6430   5.889   3.814   4.795 -0.1882 -0.2911 -1.2831
  460ANI     CH 6431   5.759   3.862   4.816  0.1675 -0.0471  0.3628
  460ANI     CH 6432   5.714   3.977   4.750 -0.1656  0.1759  0.9677
  460ANI     NH 6433   5.772   4.160   4.601  0.3271 -0.5797 -0.4651
  460ANI     HC 6434   5.990   4.027   4.556  0.1359  1.4742  0.7971
  460ANI     HC 6435   6.073   3.844   4.683  1.0124 -0.7656  3.2193
  460ANI     HC 6436   5.920   3.727   4.851 -1.5564 -0.7882 -1.2797
  460ANI     HC 6437   5.699   3.803   4.884  1.8344  0.5043  2.3677
  460ANI     HC 6438   5.617   4.020   4.770 -0.8880 -0.7763 -0.4090
  460ANI     HN 6439   5.690   4.206   4.637  0.7690 -0.9551  1.0603
  460ANI     HN 6440   5.853   4.218   4.584  0.0577 -0.1051 -0.1563
  461ANI     CN 6441   4.244   4.699   5.547  0.2534 -0.0414  0.4546
  461ANI     CH 6442   4.213   4.833   5.571  0.1944  0.0331 -0.0468
  461ANI     CH 6443   4.172   4.911   5.461  0.0215  0.4936  0.3409
  461ANI     CH 6444   4.159   4.855   5.333  0.8088  0.1703  0.4007
  461ANI     CH 6445   4.197   4.722   5.310  0.1724  0.1200 -0.3382
  461ANI     CH 6446   4.238   4.645   5.418 -0.1466  0.6606  0.1737
  461ANI     NH 6447   4.289   4.633   5.655 -0.0164 -0.6445  0.1980
  461ANI     HC 6448   4.222   4.881   5.667  0.1549 -0.8872  0.4179
  461ANI     HC 6449   4.151   5.015   5.477  0.6062  1.3595 -4.1238
  461ANI     HC 6450   4.117   4.910   5.251  1.2503 -0.1342 -0.0292
  461ANI     HC 6451   4.179   4.675   5.214  0.0500  2.1673 -1.3584
  461ANI     HC 6452   4.269   4.542   5.408  0.8800  0.9965 -0.1671
  461ANI     HN 6453   4.265   4.535   5.661 -1.2701 -0.5291 -2.0677
  461ANI     HN 6454   4.272   4.686   5.739  0.9952  1.1939 -0.7230
  462ANI     CN 6455   5.262   0.952   2.560  0.7393 -0.0154 -0.6052
  462ANI     CH 6456   5.235   0.832   2.629 -0.4978  0.7707  0.2998
  462ANI     CH 6457   5.139   0.746   2.574 -0.5323  0.6478  0.5523
  462ANI     CH 6458   5.076   0.778   2.453 -0.5513  0.7867  0.5990
  462ANI     CH 6459   5.109   0.892   2.379 -0.2949  0.2705 -0.0852
  462ANI     CH 6460   5.194   0.984   2.442 -0.3687  0.2156  0.0916
  462ANI     NH 6461   5.352   1.031   2.620  0.2356 -0.0939  0.2726
  462ANI     HC 6462   5.288   0.804   2.719 -1.2205  2.1320  1.1693
  462ANI     HC 6463   5.105   0.661   2.630  1.3722 -0.1007  0.6002
  462ANI     HC 6464   4.993   0.717   2.421  0.8211 -0.8657  0.1126
  462ANI     HC 6465   5.060   0.900   2.283  4.1667 -0.1502 -2.5150
  462ANI     HC 6466   5.211   1.077   2.389  0.0397 -0.1660 -0.4498
  462ANI     HN 6467   5.404   1.088   2.554  0.6547 -0.5064  0.2447
  462ANI     HN 6468   5.421   0.974   2.665 -0.5321 -0.5206  0.9161
  463ANI     CN 6469   3.549   4.175   4.066  0.0180  0.1026 -0.0542
  463ANI     CH 6470   3.443   4.248   4.012 -0.3704 -0.3823  0.0465
  463ANI     CH 6471   3.323   4.271   4.082 -0.2055  0.3892  0.0862
  463ANI     CH 6472   3.313   4.225   4.214  0.4883 -0.0026  0.0085
  463ANI     CH 6473   3.420   4.156   4.271  0.0621 -0.9438 -0.3115
  463ANI     CH 6474   3.532   4.121   4.194  0.1528 -0.6114 -0.3335
  463ANI     NH 6475   3.653   4.141   3.989  0.0727  0.1668 -0.0075
  463ANI     HC 6476   3.462   4.293   3.916  0.0461 -0.8567 -0.0919
  463ANI     HC 6477   3.240   4.323   4.036  0.6651  1.2627 -0.5319
  463ANI     HC 6478   3.222   4.245   4.269  1.7994  1.6705  1.6445
  463ANI     HC 6479   3.412   4.126   4.374  1.5486  3.0108  1.0492
  463ANI     HC 6480   3.600   4.066   4.257 -0.4556  0.6972  1.4968
  463ANI     HN 6481   3.702   4.222   3.952  0.1334 -0.5183 -1.4957
  463ANI     HN 6482   3.722   4.100   4.050 -0.7905 -1.8611 -0.3445
  464ANI     CN 6483   6.183   5.592   0.455  0.1252  0.0349 -0.2298
  464ANI     CH 6484   6.150   5.671   0.344 -1.0170  0.3748  0.3395
  464ANI     CH 6485   6.066   5.626   0.242 -0.0620 -0.0951 -0.2454
  464ANI     CH 6486   6.010   5.499   0.255 -0.5217  0.1481  0.1459
  464ANI     CH 6487   6.041   5.414   0.362  0.8417 -0.0384 -0.3932
  464ANI     CH 6488   6.125   5.464   0.462  0.0883  0.0753  0.1904
  464ANI     NH 6489   6.264   5.638   0.550 -0.7616  0.5970  0.2644
  464ANI     HC 6490   6.179   5.775   0.346  2.1260 -0.4355  0.5707
  464ANI     HC 6491   6.045   5.685   0.154  0.7170  1.2961  0.4759
  464ANI     HC 6492   5.946   5.459   0.178 -1.0095  3.5517 -1.2853
  464ANI     HC 6493   6.008   5.311   0.362  0.2839  0.1362 -1.6586
  464ANI     HC 6494   6.160   5.399   0.541 -1.3065 -2.5815 -1.3344
  464ANI     HN 6495   6.224   5.625   0.641  0.2497 -0.0216  0.6302
  464ANI     HN 6496   6.250   5.737   0.537  3.1634  1.1215 -0.7750
  465ANI     CN 6497   1.841   4.417   4.751 -0.1830 -0.3457  0.0271
  465ANI     CH 6498   1.835   4.306   4.667  0.3115  0.2775 -0.8469
  465ANI     CH 6499   1.953   4.261   4.607  0.2113 -0.5085 -0.4761
  465ANI     CH 6500   2.075   4.325   4.634 -0.0582 -0.2497  0.1248
  465ANI     CH 6501   2.077   4.445   4.708  0.0600 -0.0616 -0.1813
  465ANI     CH 6502   1.958   4.494   4.761 -0.1803 -0.2810 -0.5152
  465ANI     NH 6503   1.734   4.454   4.824 -0.0530  0.3341 -0.1205
  465ANI     HC 6504   1.744   4.248   4.673 -0.4473  1.4084 -1.3102
  465ANI     HC 6505   1.942   4.170   4.551  0.0403 -0.4144 -0.5983
  465ANI     HC 6506   2.173   4.310   4.592  0.8092  1.7042  1.3599
  465ANI     HC 6507   2.173   4.494   4.719 -0.9064  2.0095 -0.8310
  465ANI     HC 6508   1.958   4.588   4.814  0.6160 -0.8914  0.5739
  465ANI     HN 6509   1.701   4.546   4.800 -1.2294  0.1760  0.8456
  465ANI     HN 6510   1.665   4.385   4.796  1.0243 -0.7418 -0.1865
  466ANI     CN 6511   2.423   2.313   4.180  0.0148 -0.3711 -0.3171
  466ANI     CH 6512   2.398   2.200   4.101 -0.8517 -0.3502 -0.0800
  466ANI     CH 6513   2.402   2.071   4.155 -0.2682 -0.2829  0.0495
  466ANI     CH 6514   2.422   2.056   4.293  0.5487 -0.7343 -0.1192
  466ANI     CH 6515   2.448   2.168   4.372 -0.6436 -0.2465 -0.4037
  466ANI     CH 6516   2.450   2.297   4.316  0.0793 -0.2157 -0.3114
  466ANI     NH 6517   2.425   2.437   4.128  0.1036  0.0558  0.6893
  466ANI     HC 6518   2.361   2.206   4.000 -1.9357 -0.1435  0.3291
  466ANI     HC 6519   2.376   1.987   4.092  0.7033 -2.0825  1.9646
  466ANI     HC 6520   2.420   1.959   4.340 -2.9254 -1.9934 -2.6183
  466ANI     HC 6521   2.472   2.148   4.475 -1.3359 -0.4769 -0.2904
  466ANI     HC 6522   2.469   2.375   4.388  0.9569  0.4303 -1.2314
  466ANI     HN 6523   2.446   2.426   4.030 -1.6649 -0.4911  0.3542
  466ANI     HN 6524   2.503   2.490   4.165  2.7529 -2.1599 -1.4229
  467ANI     CN 6525   5.329   3.135   3.863  0.5558 -0.8362 -0.5022
  467ANI     CH 6526   5.427   3.101   3.957  0.2309 -0.1881  0.0797
  467ANI     CH 6527   5.383   3.077   4.088 -0.2574  1.2221  0.1821
  467ANI     CH 6528   5.249   3.086   4.130 -0.3125  0.1930  0.2531
  467ANI     CH 6529   5.156   3.123   4.033 -0.0156  0.5272  0.0914
  467ANI     CH 6530   5.194   3.146   3.900  0.7250 -0.7053  0.0817
  467ANI     NH 6531   5.362   3.159   3.736 -0.2843 -0.7617 -0.7109
  467ANI     HC 6532   5.532   3.092   3.934  0.7051 -1.3439  2.5294
  467ANI     HC 6533   5.447   3.051   4.171  0.3605  1.7652 -0.1275
  467ANI     HC 6534   5.223   3.069   4.234  1.7770 -0.2192  0.7548
  467ANI     HC 6535   5.053   3.116   4.064 -0.8509  0.2786 -2.5929
  467ANI     HC 6536   5.114   3.148   3.827 -0.2007 -3.6020  0.9509
  467ANI     HN 6537   5.287   3.140   3.671 -0.7576  1.2528 -0.8049
  467ANI     HN 6538   5.446   3.113   3.703  0.4509 -1.5071  2.1082
  468ANI     CN 6539   3.737   5.609   2.931 -0.1047  0.2702  0.1152
  468ANI     CH 6540   3.839   5.587   3.026 -0.2843 -0.0657  0.2281
  468ANI     CH 6541   3.944   5.677   3.048 -0.8028  0.4970  0.4211
  468ANI     CH 6542   3.959   5.786   2.961 -0.0746 -0.1376 -0.2617
  468ANI     CH 6543   3.863   5.803   2.861 -0.3470 -0.5402 -0.0723
  468ANI     CH 6544   3.753   5.718   2.845 -0.7567  0.0326 -0.3061
  468ANI     NH 6545   3.638   5.521   2.919  0.4466 -0.3441  0.0396
  468ANI     HC 6546   3.826   5.504   3.094  1.5192  0.0078  0.6642
  468ANI     HC 6547   4.021   5.656   3.120 -1.1260 -1.9652  0.1192
  468ANI     HC 6548   4.042   5.856   2.958 -2.4628  2.8994  1.4597
  468ANI     HC 6549   3.871   5.890   2.797  3.1031 -1.0894 -0.4766
  468ANI     HC 6550   3.680   5.736   2.768 -1.5008 -1.0752  0.1382
  468ANI     HN 6551   3.594   5.478   2.999  1.5453  1.2161  1.5024
  468ANI     HN 6552   3.549   5.565   2.896  0.3448 -0.9388 -0.7363
  469ANI     CN 6553   3.793   1.221   0.472  0.2765  0.0826 -0.2127
  469ANI     CH 6554   3.745   1.271   0.351 -0.4225  0.4073  0.1983
  469ANI     CH 6555   3.676   1.186   0.265 -0.8226  0.4038  0.5209
  469ANI     CH 6556   3.663   1.050   0.295 -0.0818  0.0706 -0.6459
  469ANI     CH 6557   3.711   1.005   0.419 -0.7166  0.4861 -0.2504
  469ANI     CH 6558   3.774   1.088   0.512 -0.8072  0.2906 -0.0155
  469ANI     NH 6559   3.852   1.311   0.552 -0.3066  0.2639  0.0157
  469ANI     HC 6560   3.743   1.376   0.326 -1.8400  0.1722 -0.7544
  469ANI     HC 6561   3.633   1.233   0.177 -1.6025 -0.4212  0.4450
  469ANI     HC 6562   3.605   0.994   0.223 -0.7009 -1.0120  0.6521
  469ANI     HC 6563   3.709   0.902   0.451 -0.6199  0.0779 -1.5101
  469ANI     HC 6564   3.803   1.038   0.604 -0.9208 -0.3236 -0.3144
  469ANI     HN 6565   3.897   1.384   0.499  0.4746 -0.0967  0.1761
  469ANI     HN 6566   3.918   1.264   0.611 -2.2408 -0.7668  1.4308
  470ANI     CN 6567   5.230   1.975   3.388  0.2018 -0.6614  0.3126
  470ANI     CH 6568   5.108   1.968   3.320  0.2629 -0.7723  0.2155
  470ANI     CH 6569   5.107   1.940   3.183 -0.3357  0.2416  0.0060
  470ANI     CH 6570   5.225   1.924   3.108 -0.2334  0.2633  0.1628
  470ANI     CH 6571   5.348   1.940   3.174 -0.1175  0.1094 -0.0133
  470ANI     CH 6572   5.347   1.964   3.312  0.0684  0.4343 -0.0679
  470ANI     NH 6573   5.239   2.004   3.518  0.2839  0.4663  0.0629
  470ANI     HC 6574   5.016   1.993   3.372 -0.4505  1.5715 -2.0677
  470ANI     HC 6575   5.015   1.926   3.128  0.7577  0.7740 -2.0485
  470ANI     HC 6576   5.212   1.894   3.006 -1.8034  0.5455  0.2721
  470ANI     HC 6577   5.434   1.914   3.116 -0.6148 -0.0536 -0.6810
  470ANI     HC 6578   5.436   1.961   3.373  0.3716 -0.6336 -0.5514
  470ANI     HN 6579   5.152   2.049   3.544  0.1820  1.3068 -1.6532
  470ANI     HN 6580   5.314   2.071   3.521  2.2496 -1.7226  1.0391
  471ANI     CN 6581   6.153   4.573   4.757  0.1906 -0.1907 -0.4523
  471ANI     CH 6582   6.202   4.588   4.627  0.1178  0.5527 -0.4024
  471ANI     CH 6583   6.316   4.514   4.593  0.0905 -0.0251  0.7377
  471ANI     CH 6584   6.376   4.429   4.687  0.6569  0.0428  0.4388
  471ANI     CH 6585   6.331   4.425   4.819  0.6307 -0.6329  0.4103
  471ANI     CH 6586   6.216   4.496   4.855  0.9837  0.4112 -0.4801
  471ANI     NH 6587   6.037   4.630   4.792  0.3988  0.1798 -0.3630
  471ANI     HC 6588   6.145   4.634   4.548 -0.9159 -0.2703 -0.1473
  471ANI     HC 6589   6.349   4.505   4.490  1.4030 -0.6788  1.2049
  471ANI     HC 6590   6.455   4.366   4.651  1.1307  0.2545  1.0972
  471ANI     HC 6591   6.392   4.372   4.892  0.7698  0.7878  1.3661
  471ANI     HC 6592   6.185   4.495   4.958 -0.6056 -0.0253 -0.9451
  471ANI     HN 6593   6.013   4.710   4.735 -0.3128  0.3064  0.0958
  471ANI     HN 6594   6.026   4.663   4.887 -0.5604  0.0293 -0.4095
  472ANI     CN 6595   1.930   3.552   0.093  0.1669 -0.3129  0.1619
  472ANI     CH 6596   2.038   3.603   0.166  0.1691 -0.1833  0.0681
  472ANI     CH 6597   2.106   3.518   0.254  0.2740  0.4918  0.6440
  472ANI     CH 6598   2.077   3.381   0.255  0.0368  0.5342 -0.0206
  472ANI     CH 6599   1.969   3.335   0.180 -0.6139  0.1020  1.1609
  472ANI     CH 6600   1.885   3.420   0.106 -0.4159 -0.0646  0.7441
  472ANI     NH 6601   1.874   3.640   0.009  0.6029  0.1566  0.3579
  472ANI     HC 6602   2.051   3.710   0.162 -2.0144  0.0529 -1.5354
  472ANI     HC 6603   2.183   3.555   0.320  2.9464 -0.3696 -1.9034
  472ANI     HC 6604   2.136   3.320   0.322  1.1129  0.9577 -0.5729
  472ANI     HC 6605   1.940   3.232   0.192 -0.5875  0.1248  1.4078
  472ANI     HC 6606   1.811   3.380   0.038 -0.4440 -1.7526  1.7450
  472ANI     HN 6607   1.853   3.596  -0.080  4.6341 -0.6794 -0.2754
  472ANI     HN 6608   1.952   3.686  -0.035  1.8604 -2.6095 -0.4819
  473ANI     CN 6609   1.023   1.059   2.927 -0.3499  0.1094  0.1049
  473ANI     CH 6610   1.082   0.977   2.830 -0.0553 -0.2192  0.5583
  473ANI     CH 6611   1.173   1.032   2.738 -0.3326 -0.2946  0.2369
  473ANI     CH 6612   1.222   1.162   2.755 -0.6108 -0.1273 -0.2499
  473ANI     CH 6613   1.153   1.247   2.843 -0.0465  0.1184 -0.0482
  473ANI     CH 6614   1.063   1.193   2.934 -0.2804  0.1114 -0.2839
  473ANI     NH 6615   0.926   1.010   3.005 -0.2072 -0.0639  0.1761
  473ANI     HC 6616   1.051   0.873   2.834 -0.7249 -0.0817 -0.7514
  473ANI     HC 6617   1.203   0.964   2.660 -0.5387  1.1541 -1.1322
  473ANI     HC 6618   1.285   1.215   2.685 -0.4092  0.4772  0.3843
  473ANI     HC 6619   1.183   1.349   2.861  0.6172 -0.5254  2.6412
  473ANI     HC 6620   1.009   1.259   3.001  1.7866  1.7330 -0.1863
  473ANI     HN 6621   0.885   1.065   3.079  1.7098  4.1002 -1.7270
  473ANI     HN 6622   0.847   1.001   2.942 -0.1777  0.3928  0.0703
  474ANI     CN 6623   2.129   1.495   4.731 -0.2376 -0.1196 -0.3881
  474ANI     CH 6624   2.197   1.616   4.745  0.0147 -0.3265  0.2114
  474ANI     CH 6625   2.187   1.687   4.864 -0.1261 -0.1192  0.0768
  474ANI     CH 6626   2.110   1.635   4.969  0.4309  0.2133  0.6578
  474ANI     CH 6627   2.042   1.513   4.954  0.1768  0.3878  0.3883
  474ANI     CH 6628   2.049   1.442   4.834  0.8218  0.1347  0.5734
  474ANI     NH 6629   2.142   1.429   4.616 -0.1323 -0.2093 -0.3248
  474ANI     HC 6630   2.247   1.653   4.656 -0.3987 -1.0397 -0.3283
  474ANI     HC 6631   2.231   1.786   4.874  0.6517 -0.4909  0.4166
  474ANI     HC 6632   2.110   1.692   5.060 -2.4435  0.1854  0.6996
  474ANI     HC 6633   1.979   1.481   5.036  2.2895  1.1903  2.3774
  474ANI     HC 6634   2.005   1.344   4.825 -1.0040  1.0342 -0.8171
  474ANI     HN 6635   2.123   1.329   4.612 -0.2690 -0.2278  0.8329
  474ANI     HN 6636   2.221   1.458   4.560 -2.0942  0.5496 -2.8061
  475ANI     CN 6637   1.661   5.662   4.640  0.0673 -0.1127  0.3113
  475ANI     CH 6638   1.732   5.776   4.681  0.1288 -0.2064  0.4661
  475ANI     CH 6639   1.665   5.887   4.734 -0.4271 -0.2575 -0.1198
  475ANI     CH 6640   1.527   5.880   4.758 -0.4210  0.8544  0.2711
  475ANI     CH 6641   1.457   5.765   4.720  0.8856  0.0509  0.2747
  475ANI     CH 6642   1.522   5.657   4.658  0.0033 -0.2110 -0.2047
  475ANI     NH 6643   1.730   5.550   4.616 -0.1241 -0.0017 -0.7993
  475ANI     HC 6644   1.839   5.762   4.680 -0.0489 -1.6235  0.4242
  475ANI     HC 6645   1.722   5.968   4.777 -1.0202 -0.9337  2.0291
  475ANI     HC 6646   1.480   5.967   4.801 -2.1634 -0.6291  1.3994
  475ANI     HC 6647   1.352   5.755   4.743  1.0257 -0.1845  0.8307
  475ANI     HC 6648   1.462   5.574   4.623  0.0097  0.1971 -1.1840
  475ANI     HN 6649   1.827   5.577   4.605  0.7269 -1.0727  3.1802
  475ANI     HN 6650   1.706   5.485   4.543 -0.8855 -0.2605 -0.3194
  476ANI     CN 6651   1.318   2.826   3.722  0.0477 -0.3897 -0.7039
  476ANI     CH 6652   1.428   2.798   3.804 -0.1610  0.1976 -0.2244
  476ANI     CH 6653   1.554   2.773   3.750  0.1222 -0.0337  0.5265
  476ANI     CH 6654   1.574   2.794   3.612 -0.3073  0.0071  0.4705
  476ANI     CH 6655   1.464   2.826   3.532  0.0125 -0.6066 -0.2155
  476ANI     CH 6656   1.334   2.837   3.583 -0.1560 -0.2210 -0.7154
  476ANI     NH 6657   1.193   2.843   3.767  0.4716 -0.6850  0.6084
  476ANI     HC 6658   1.419   2.786   3.911  0.9840 -0.2907 -0.1802
  476ANI     HC 6659   1.629   2.746   3.823  1.3857 -1.7832 -1.3647
  476ANI     HC 6660   1.672   2.783   3.568 -0.5180  0.2766 -0.0637
  476ANI     HC 6661   1.485   2.857   3.430 -0.0112 -1.4568 -0.4828
  476ANI     HC 6662   1.248   2.875   3.531 -0.1905 -0.7402 -1.0429
  476ANI     HN 6663   1.129   2.817   3.693  0.4026 -0.8269  0.7190
  476ANI     HN 6664   1.168   2.778   3.840 -0.7318  0.6017  1.3599
  477ANI     CN 6665   2.960   2.544   2.622  0.0164 -0.2480 -0.1742
  477ANI     CH 6666   2.854   2.624   2.579  0.1550  0.1503  0.2295
  477ANI     CH 6667   2.740   2.645   2.659 -0.1377  0.0465 -0.1584
  477ANI     CH 6668   2.727   2.575   2.779  0.3290  0.2154 -0.0044
  477ANI     CH 6669   2.831   2.492   2.820  0.3110  0.2811  0.1729
  477ANI     CH 6670   2.948   2.476   2.743  0.1063 -0.0719 -0.0663
  477ANI     NH 6671   3.068   2.525   2.544  0.2183  0.4365 -0.0636
  477ANI     HC 6672   2.873   2.673   2.484  1.7273 -0.0771  0.4146
  477ANI     HC 6673   2.657   2.701   2.618 -2.5070 -2.1691  1.4939
  477ANI     HC 6674   2.636   2.570   2.838  0.3672 -3.4736 -0.1216
  477ANI     HC 6675   2.819   2.433   2.910 -0.2332  0.5079  0.2466
  477ANI     HC 6676   3.027   2.417   2.786  0.4055  0.0896 -0.3989
  477ANI     HN 6677   3.149   2.510   2.603  0.0642  3.0550  0.8757
  477ANI     HN 6678   3.084   2.609   2.491  0.9701  0.1732 -0.2544
  478ANI     CN 6679   3.711   2.889   0.369 -0.0868  0.0828  0.1493
  478ANI     CH 6680   3.749   2.755   0.389 -0.1077  0.0214 -0.2139
  478ANI     CH 6681   3.883   2.717   0.383 -0.1614 -0.1193 -0.5047
  478ANI     CH 6682   3.985   2.812   0.372 -0.0452 -0.1767  0.0643
  478ANI     CH 6683   3.947   2.946   0.354 -0.3400 -0.3452 -0.5765
  478ANI     CH 6684   3.812   2.985   0.352 -0.2070  0.1404 -0.2344
  478ANI     NH 6685   3.585   2.931   0.380  0.0653  0.4211  0.6305
  478ANI     HC 6686   3.680   2.672   0.395  2.0571 -1.8557 -0.7493
  478ANI     HC 6687   3.905   2.612   0.388 -2.8132 -0.7385 -0.9621
  478ANI     HC 6688   4.089   2.784   0.367  0.3424  1.3892 -1.2090
  478ANI     HC 6689   4.028   3.015   0.341 -0.4075  0.0962  1.2166
  478ANI     HC 6690   3.778   3.087   0.342  0.7900  0.3446 -1.7557
  478ANI     HN 6691   3.568   3.012   0.321 -0.7870  1.1548  1.8643
  478ANI     HN 6692   3.529   2.853   0.349  1.6054 -0.5935  0.3812
  479ANI     CN 6693   1.380   0.523   1.427  0.4710 -0.1255 -0.6326
  479ANI     CH 6694   1.470   0.429   1.375  0.5216 -0.3601 -0.1255
  479ANI     CH 6695   1.432   0.297   1.349 -0.4120 -0.1383  0.1020
  479ANI     CH 6696   1.299   0.257   1.369 -0.4801 -0.1366 -0.3594
  479ANI     CH 6697   1.205   0.349   1.416 -0.3336  0.1553 -0.6340
  479ANI     CH 6698   1.248   0.479   1.444  0.6755 -0.3782  0.3073
  479ANI     NH 6699   1.416   0.650   1.450  0.1949 -0.1078 -0.2953
  479ANI     HC 6700   1.572   0.461   1.365  0.0737  1.2526  0.2843
  479ANI     HC 6701   1.503   0.221   1.320  2.0934  1.6419  1.4548
  479ANI     HC 6702   1.274   0.152   1.357 -2.2077  0.2714 -0.5311
  479ANI     HC 6703   1.106   0.324   1.452 -0.6190  2.5566  0.3159
  479ANI     HC 6704   1.172   0.546   1.481  1.5300 -0.0274  1.4634
  479ANI     HN 6705   1.336   0.704   1.479  0.3225  0.9416 -1.8527
  479ANI     HN 6706   1.460   0.689   1.368 -1.0350  0.6462 -0.6129
  480ANI     CN 6707   4.827   3.091   1.633 -0.2287  0.3903  0.2925
  480ANI     CH 6708   4.768   3.191   1.554  0.7336 -0.2007 -1.1869
  480ANI     CH 6709   4.830   3.316   1.553  0.0177  0.1598 -0.4856
  480ANI     CH 6710   4.945   3.337   1.630 -0.3270 -0.1012  0.1106
  480ANI     CH 6711   4.987   3.240   1.722  0.0578 -0.4358 -0.4157
  480ANI     CH 6712   4.934   3.111   1.721 -0.1605 -0.3498  0.3745
  480ANI     NH 6713   4.763   2.974   1.633  0.7252 -0.1357 -0.8330
  480ANI     HC 6714   4.691   3.161   1.484  0.5991 -0.5720 -0.8865
  480ANI     HC 6715   4.795   3.392   1.484 -0.8977 -0.1696 -0.3901
  480ANI     HC 6716   4.999   3.430   1.618  0.7577 -0.7859 -0.4113
  480ANI     HC 6717   5.066   3.268   1.789 -0.4634  2.2374 -0.8404
  480ANI     HC 6718   4.980   3.039   1.787  0.6826 -1.4329 -1.3525
  480ANI     HN 6719   4.766   2.920   1.718 -3.1544  1.6603  0.5658
  480ANI     HN 6720   4.667   2.983   1.604  0.8929  1.4632 -0.9217
  481ANI     CN 6721   1.385   5.078   0.383 -0.1677  0.1026  0.2641
  481ANI     CH 6722   1.256   5.053   0.432 -0.1647 -0.3456  0.0474
  481ANI     CH 6723   1.214   4.923   0.460 -0.0710 -0.5086 -0.5611
  481ANI     CH 6724   1.296   4.817   0.420 -0.0531 -0.5779 -0.3429
  481ANI     CH 6725   1.424   4.840   0.366 -0.2796 -0.1159 -0.6879
  481ANI     CH 6726   1.463   4.971   0.338 -0.6024  0.0470 -0.3809
  481ANI     NH 6727   1.433   5.203   0.379 -0.7737  0.3348  0.0651
  481ANI     HC 6728   1.187   5.135   0.447  3.1360  2.6976 -0.7132
  481ANI     HC 6729   1.112   4.904   0.493 -0.1419 -1.9612 -1.5516
  481ANI     HC 6730   1.267   4.715   0.435  0.1725 -0.4701  0.8594
  481ANI     HC 6731   1.483   4.753   0.343  2.5816  1.9199 -1.2031
  481ANI     HC 6732   1.566   4.985   0.307 -0.5265  0.2644 -0.0389
  481ANI     HN 6733   1.394   5.263   0.450 -0.9755 -1.3390  1.3906
  481ANI     HN 6734   1.534   5.203   0.386 -0.7598 -2.3592  0.1890
  482ANI     CN 6735   5.378   1.355   3.368  0.2954 -0.0345  0.1412
  482ANI     CH 6736   5.375   1.494   3.385  0.6316  0.0343 -0.3303
  482ANI     CH 6737   5.413   1.584   3.285  0.3949  0.5842  0.0709
  482ANI     CH 6738   5.460   1.527   3.166  0.2606  0.1856  0.2070
  482ANI     CH 6739   5.464   1.389   3.142 -0.1707  0.2227 -0.0725
  482ANI     CH 6740   5.421   1.303   3.245 -0.1586  0.1742 -0.1079
  482ANI     NH 6741   5.344   1.279   3.473 -0.4632  0.4292  0.2347
  482ANI     HC 6742   5.345   1.547   3.475  1.1921 -1.9679  1.0878
  482ANI     HC 6743   5.415   1.691   3.295  0.9662  0.5909 -0.1004
  482ANI     HC 6744   5.488   1.592   3.085  2.8081  2.5774  2.8811
  482ANI     HC 6745   5.491   1.355   3.044 -1.1333  0.2782 -0.3648
  482ANI     HC 6746   5.408   1.198   3.223 -1.1657 -0.1230  1.8151
  482ANI     HN 6747   5.301   1.333   3.547  0.2365 -1.5826  2.1559
  482ANI     HN 6748   5.419   1.223   3.512 -0.7116  0.4699  0.7701
  483ANI     CN 6749   1.977   3.645   3.788 -0.0032 -0.6582 -0.3673
  483ANI     CH 6750   1.876   3.626   3.883 -0.0194 -0.1543 -0.2828
  483ANI     CH 6751   1.745   3.656   3.843  0.0304  0.2971 -0.1063
  483ANI     CH 6752   1.713   3.690   3.711 -0.0197  0.0807 -0.1483
  483ANI     CH 6753   1.815   3.708   3.617  0.1368  0.8076  0.1608
  483ANI     CH 6754   1.947   3.680   3.656 -0.0228 -0.7296 -0.3814
  483ANI     NH 6755   2.103   3.633   3.834 -0.2394 -0.0969  0.4453
  483ANI     HC 6756   1.901   3.594   3.983 -0.7641  0.2191  0.0319
  483ANI     HC 6757   1.668   3.639   3.918  0.7633  1.8397  1.0228
  483ANI     HC 6758   1.610   3.701   3.680 -0.9112  0.7562  2.9046
  483ANI     HC 6759   1.798   3.753   3.521  0.7558 -0.7930 -0.7143
  483ANI     HC 6760   2.019   3.686   3.576 -0.5591  0.4220 -0.7810
  483ANI     HN 6761   2.160   3.630   3.750 -0.7023  1.4897  0.0605
  483ANI     HN 6762   2.116   3.541   3.873  2.3951  0.2594  0.5161
  484ANI     CN 6763   2.993   5.203   0.680 -0.0216 -0.1243  0.8550
  484ANI     CH 6764   2.875   5.127   0.682 -0.0117 -0.1591  0.2394
  484ANI     CH 6765   2.872   5.010   0.606 -0.4080 -0.0196  0.0363
  484ANI     CH 6766   2.980   4.968   0.528 -0.1452 -0.1816  0.4832
  484ANI     CH 6767   3.098   5.044   0.528 -0.1057 -0.2413  0.8495
  484ANI     CH 6768   3.101   5.163   0.601 -0.1911 -0.0852  0.6004
  484ANI     NH 6769   3.004   5.315   0.752 -0.1669  0.3481  0.1406
  484ANI     HC 6770   2.785   5.155   0.736 -0.1463  0.2502 -0.1927
  484ANI     HC 6771   2.786   4.947   0.625  0.5740 -1.0992  0.9694
  484ANI     HC 6772   2.975   4.869   0.485  0.9453  0.2046 -0.5813
  484ANI     HC 6773   3.176   5.006   0.464 -0.5814  1.9806 -1.1132
  484ANI     HC 6774   3.186   5.230   0.594  0.8135 -1.4556 -0.7163
  484ANI     HN 6775   2.924   5.324   0.812  1.0614 -0.3747  1.8979
  484ANI     HN 6776   3.089   5.316   0.805  0.2259  2.6451 -0.4389
  485ANI     CN 6777   2.991   0.070   2.390 -0.2507 -0.0319  0.5411
  485ANI     CH 6778   3.079   0.128   2.482  0.0380  0.4183 -0.0096
  485ANI     CH 6779   3.196   0.193   2.443 -0.0591  0.3636 -0.3895
  485ANI     CH 6780   3.223   0.194   2.305  0.6676 -0.1786 -0.2538
  485ANI     CH 6781   3.137   0.135   2.212 -0.3452  0.5350  0.2239
  485ANI     CH 6782   3.021   0.068   2.253 -0.1850  0.4564  0.5475
  485ANI     NH 6783   2.875   0.018   2.432 -0.5183  0.3608  0.3022
  485ANI     HC 6784   3.056   0.116   2.587  0.7911  1.9910  0.3435
  485ANI     HC 6785   3.259   0.255   2.505  2.0040 -0.7955 -1.2600
  485ANI     HC 6786   3.318   0.242   2.288  0.7688  1.4812  4.2353
  485ANI     HC 6787   3.170   0.140   2.109  0.2404 -0.6170  0.3466
  485ANI     HC 6788   2.962   0.017   2.178  1.5877 -1.1653  0.2177
  485ANI     HN 6789   2.803   0.043   2.366  0.5169  1.6117 -0.3701
  485ANI     HN 6790   2.853   0.050   2.526  1.0354  1.1359  0.4262
  486ANI     CN 6791   1.207   0.239   2.207 -0.1543  0.0336  0.3185
  486ANI     CH 6792   1.121   0.284   2.107 -0.1969 -0.3714  0.1724
  486ANI     CH 6793   1.095   0.195   2.002  0.4885 -0.3676 -0.0042
  486ANI     CH 6794   1.136   0.061   2.007 -0.4136 -0.6519  0.0366
  486ANI     CH 6795   1.220   0.019   2.111  0.3319  0.1718 -0.2220
  486ANI     CH 6796   1.251   0.106   2.217 -0.5785 -0.1077  0.2781
  486ANI     NH 6797   1.247   0.329   2.298  0.5563  0.5273 -0.4745
  486ANI     HC 6798   1.091   0.388   2.106 -1.7141 -0.7638  1.9087
  486ANI     HC 6799   1.043   0.233   1.916 -0.6582 -1.5314  0.1512
  486ANI     HC 6800   1.112  -0.002   1.923  0.3515 -0.5652 -0.2530
  486ANI     HC 6801   1.260  -0.081   2.118 -0.5929 -0.2754 -1.2478
  486ANI     HC 6802   1.316   0.079   2.298  0.2794 -1.6870 -0.9014
  486ANI     HN 6803   1.178   0.400   2.317  0.9844  0.1885  2.5753
  486ANI     HN 6804   1.267   0.297   2.392 -0.4081 -0.5440 -0.6204
  487ANI     CN 6805   0.549   2.292   2.571 -0.1680  0.0741  0.3012
  487ANI     CH 6806   0.507   2.168   2.618  0.5073 -0.2780 -0.0149
  487ANI     CH 6807   0.568   2.104   2.727  0.4499 -0.6306 -0.1860
  487ANI     CH 6808   0.685   2.164   2.777  0.0773 -0.2315  0.2066
  487ANI     CH 6809   0.735   2.283   2.724  0.1697 -0.3343  0.0637
  487ANI     CH 6810   0.667   2.349   2.621 -0.4036  0.1624  0.7564
  487ANI     NH 6811   0.490   2.349   2.464 -0.3194 -0.2093  0.2349
  487ANI     HC 6812   0.421   2.121   2.573  1.1623  0.4424 -2.0339
  487ANI     HC 6813   0.533   2.009   2.763  0.2401 -0.1394  0.9259
  487ANI     HC 6814   0.729   2.102   2.853  0.4047 -1.1368 -0.7241
  487ANI     HC 6815   0.831   2.321   2.756 -0.0897  0.5842 -0.2157
  487ANI     HC 6816   0.708   2.432   2.566 -1.7702  0.0032 -0.5320
  487ANI     HN 6817   0.401   2.308   2.439  0.3499 -0.9786 -0.9125
  487ANI     HN 6818   0.478   2.447   2.480  1.0737 -0.2183  1.4782
  488ANI     CN 6819   5.953   4.129   5.756  0.2971  0.0309 -0.3910
  488ANI     CH 6820   6.044   4.160   5.654  0.2623 -0.6742 -0.6390
  488ANI     CH 6821   6.181   4.163   5.684  0.0590  0.4062  0.2031
  488ANI     CH 6822   6.225   4.134   5.814  0.0075  0.7336  0.2943
  488ANI     CH 6823   6.134   4.104   5.916 -0.2925  0.0768 -0.1640
  488ANI     CH 6824   5.998   4.092   5.883 -0.3137  0.2031 -0.1199
  488ANI     NH 6825   5.820   4.140   5.740  0.1344 -0.5518  0.5418
  488ANI     HC 6826   6.018   4.202   5.558 -2.9748  0.9427  0.8669
  488ANI     HC 6827   6.244   4.206   5.608 -1.1093  1.4788 -0.1799
  488ANI     HC 6828   6.331   4.132   5.837 -0.2021  0.9171  1.2759
  488ANI     HC 6829   6.164   4.093   6.019 -0.9809 -0.8463 -0.0603
  488ANI     HC 6830   5.936   4.046   5.958 -0.7027 -2.2817 -1.9147
  488ANI     HN 6831   5.777   4.055   5.773 -1.5568 -0.1272 -0.5087
  488ANI     HN 6832   5.799   4.143   5.642 -0.3465 -0.1482  0.6614
  489ANI     CN 6833   5.707   3.660   5.134 -0.2131 -0.0775  0.5964
  489ANI     CH 6834   5.669   3.794   5.147  0.6588  0.2190  0.1770
  489ANI     CH 6835   5.536   3.825   5.180  0.4084 -0.9131  0.2488
  489ANI     CH 6836   5.441   3.723   5.194 -0.2088 -0.2802  0.6596
  489ANI     CH 6837   5.482   3.590   5.178 -0.1207 -0.1093 -0.5447
  489ANI     CH 6838   5.615   3.556   5.152 -0.1306 -0.3152 -0.3292
  489ANI     NH 6839   5.835   3.624   5.115 -0.3344 -0.0318 -0.3608
  489ANI     HC 6840   5.747   3.868   5.138 -0.3335  1.4039  1.0300
  489ANI     HC 6841   5.517   3.929   5.200  1.8764 -0.4781 -0.5388
  489ANI     HC 6842   5.338   3.750   5.215 -0.2821 -1.6177  2.1303
  489ANI     HC 6843   5.390   3.533   5.177 -1.6117  2.1874 -0.1445
  489ANI     HC 6844   5.647   3.455   5.133  0.2322 -0.1110 -0.8168
  489ANI     HN 6845   5.856   3.527   5.132 -0.2292  0.2997  1.5657
  489ANI     HN 6846   5.909   3.680   5.157  0.5631 -1.8169  0.5026
  490ANI     CN 6847   5.550   3.278   0.270 -0.6200  0.0459 -0.0563
  490ANI     CH 6848   5.597   3.406   0.303  0.0252 -0.0886 -0.4335
  490ANI     CH 6849   5.547   3.472   0.416 -0.6455 -0.2772 -0.6187
  490ANI     CH 6850   5.458   3.409   0.505  0.1737  0.3496  0.6597
  490ANI     CH 6851   5.425   3.275   0.478  0.1776  0.5063 -0.1336
  490ANI     CH 6852   5.470   3.210   0.362 -0.1246 -0.2416  0.1670
  490ANI     NH 6853   5.586   3.226   0.152  0.0733 -0.5038  0.3911
  490ANI     HC 6854   5.672   3.460   0.248  1.3526 -0.7521  0.6927
  490ANI     HC 6855   5.581   3.572   0.437  0.0453 -0.6778  0.2136
  490ANI     HC 6856   5.404   3.456   0.585 -3.9561  0.6718 -2.1354
  490ANI     HC 6857   5.345   3.226   0.530  2.1780 -1.0165  1.5707
  490ANI     HC 6858   5.430   3.113   0.335  1.0516 -0.7910  0.3858
  490ANI     HN 6859   5.604   3.127   0.152 -1.4414 -0.7958  0.5592
  490ANI     HN 6860   5.655   3.280   0.102 -1.1895  2.0402  1.3201
  491ANI     CN 6861   0.551   3.514   6.137  0.1276  0.5145 -0.1962
  491ANI     CH 6862   0.657   3.501   6.227 -0.2893 -0.3898  0.1688
  491ANI     CH 6863   0.689   3.369   6.263  0.4487 -0.1477  0.4133
  491ANI     CH 6864   0.636   3.258   6.197  0.3392  0.3643 -0.3628
  491ANI     CH 6865   0.532   3.272   6.104  0.0008 -0.2624 -0.0809
  491ANI     CH 6866   0.494   3.403   6.073  0.6563 -0.0023  0.2214
  491ANI     NH 6867   0.503   3.635   6.108 -0.1364  0.3486 -0.4542
  491ANI     HC 6868   0.693   3.583   6.287 -1.1901 -2.5396  3.8527
  491ANI     HC 6869   0.757   3.362   6.347  0.9132  2.6397  0.3085
  491ANI     HC 6870   0.644   3.155   6.229 -0.7740  0.4708  0.2983
  491ANI     HC 6871   0.478   3.187   6.064  2.1833 -0.3689 -2.9193
  491ANI     HC 6872   0.408   3.410   6.009  1.3323 -0.3343 -0.7425
  491ANI     HN 6873   0.439   3.645   6.030 -1.6599  2.0757  0.9554
  491ANI     HN 6874   0.567   3.713   6.113  0.4688 -0.0984 -1.2458
  492ANI     CN 6875   1.960   2.119   4.778 -0.1945 -0.1396  0.1493
  492ANI     CH 6876   1.917   2.223   4.861  1.3700  0.3340  0.3886
  492ANI     CH 6877   1.849   2.193   4.980  0.2004  0.1453 -0.3117
  492ANI     CH 6878   1.832   2.062   5.024 -0.4790  0.2699 -0.1972
  492ANI     CH 6879   1.873   1.961   4.936  0.1435 -0.1096  0.5128
  492ANI     CH 6880   1.944   1.986   4.817 -0.2816 -0.0962  0.2601
  492ANI     NH 6881   2.017   2.144   4.659 -0.1188 -1.2765 -0.0555
  492ANI     HC 6882   1.926   2.328   4.836 -0.5490  0.1721 -1.1138
  492ANI     HC 6883   1.819   2.278   5.039  1.8429  0.6686 -0.1945
  492ANI     HC 6884   1.778   2.036   5.114  0.1663 -2.0258 -0.4253
  492ANI     HC 6885   1.861   1.855   4.953 -2.3652 -0.0451 -0.6462
  492ANI     HC 6886   1.996   1.910   4.762 -0.8936  0.8381 -1.6524
  492ANI     HN 6887   2.052   2.239   4.658 -0.1832 -1.2528 -0.0775
  492ANI     HN 6888   2.082   2.077   4.619  0.6801 -0.0766 -0.7937
  493ANI     CN 6889   1.681   4.247   0.750  0.1507  0.0842 -0.0807
  493ANI     CH 6890   1.698   4.190   0.876 -0.7612 -0.3188 -0.1362
  493ANI     CH 6891   1.758   4.064   0.891  0.7980  0.4358 -0.0060
  493ANI     CH 6892   1.803   3.996   0.778  0.1440 -0.2276  0.1270
  493ANI     CH 6893   1.782   4.051   0.650  0.3863  0.1338  0.2392
  493ANI     CH 6894   1.719   4.175   0.637  0.1838  0.0026 -0.0171
  493ANI     NH 6895   1.627   4.369   0.737  0.7133  0.2464 -0.9593
  493ANI     HC 6896   1.664   4.234   0.969 -2.9129  1.4300 -1.7090
  493ANI     HC 6897   1.768   4.014   0.987  1.0103  0.5505  0.0330
  493ANI     HC 6898   1.844   3.897   0.788 -0.3865 -0.2941  1.6149
  493ANI     HC 6899   1.811   3.997   0.561  0.3929 -0.3241  0.5175
  493ANI     HC 6900   1.699   4.207   0.535  1.1930 -2.5139 -1.0534
  493ANI     HN 6901   1.632   4.440   0.809 -0.8818  0.3615 -0.9395
  493ANI     HN 6902   1.667   4.414   0.656 -0.3834  0.5453 -1.3372
  494ANI     CN 6903   6.254   5.844   6.222  0.4376  0.1621 -0.4034
  494ANI     CH 6904   6.203   5.965   6.174 -0.3428 -0.1237 -0.3136
  494ANI     CH 6905   6.146   5.979   6.047 -0.6294 -0.0190 -0.1723
  494ANI     CH 6906   6.154   5.866   5.965  0.6747  0.1470 -0.2852
  494ANI     CH 6907   6.210   5.744   6.004  0.0180 -0.1389 -0.2158
  494ANI     CH 6908   6.263   5.736   6.133 -0.3727 -0.1964 -0.0581
  494ANI     NH 6909   6.292   5.844   6.350  0.1550  0.0977 -0.3194
  494ANI     HC 6910   6.196   6.050   6.241 -2.5030 -1.1576  0.8023
  494ANI     HC 6911   6.105   6.072   6.010 -0.7071  0.1850  0.4178
  494ANI     HC 6912   6.117   5.878   5.865  0.7302  2.0800 -0.0874
  494ANI     HC 6913   6.206   5.662   5.934  0.5707  0.4498 -0.9485
  494ANI     HC 6914   6.311   5.649   6.177  0.8736  0.4905 -0.0232
  494ANI     HN 6915   6.339   5.766   6.394  0.2360  0.2192 -0.1917
  494ANI     HN 6916   6.242   5.898   6.419  0.0703 -0.2154 -0.1317
  495ANI     CN 6917   1.506   4.251   4.532 -0.0634 -0.4466 -0.4080
  495ANI     CH 6918   1.522   4.112   4.528  0.0690 -0.4398 -0.1167
  495ANI     CH 6919   1.602   4.049   4.432  0.9123  0.3517  0.0524
  495ANI     CH 6920   1.666   4.124   4.333  0.9488  0.2793  0.0211
  495ANI     CH 6921   1.658   4.263   4.345  0.7104  0.2113  0.6606
  495ANI     CH 6922   1.578   4.328   4.440  0.1282  0.1347  0.2289
  495ANI     NH 6923   1.438   4.303   4.636  0.8821  0.8164 -0.4122
  495ANI     HC 6924   1.472   4.047   4.598  0.8110 -0.5534  0.3174
  495ANI     HC 6925   1.612   3.941   4.424 -0.3708  0.2014  0.4024
  495ANI     HC 6926   1.725   4.076   4.257  1.6523  1.3301 -0.1052
  495ANI     HC 6927   1.704   4.322   4.268 -0.9981  0.3962 -0.2428
  495ANI     HC 6928   1.579   4.436   4.452 -0.2085  0.0401  1.1521
  495ANI     HN 6929   1.396   4.394   4.624  1.9117  1.2660 -0.6614
  495ANI     HN 6930   1.384   4.242   4.695  0.6616  2.8076  1.5242
  496ANI     CN 6931   4.897   1.002   4.071 -0.4148 -0.1341  0.1760
  496ANI     CH 6932   4.842   0.931   3.965 -0.1679  0.1123 -0.1204
  496ANI     CH 6933   4.708   0.944   3.924 -0.1876  0.2005 -0.0300
  496ANI     CH 6934   4.627   1.035   3.993  0.0490  0.1949  0.2543
  496ANI     CH 6935   4.681   1.108   4.100  0.4586  0.7997 -0.3606
  496ANI     CH 6936   4.814   1.092   4.140  0.0430 -0.1013  0.6909
  496ANI     NH 6937   5.027   0.983   4.100 -0.5351 -0.7116  0.3207
  496ANI     HC 6938   4.903   0.861   3.909  0.7493 -0.6859  1.8633
  496ANI     HC 6939   4.667   0.890   3.840  1.8381 -0.9123 -0.3478
  496ANI     HC 6940   4.529   1.061   3.957  0.3213 -0.3180 -0.9015
  496ANI     HC 6941   4.620   1.186   4.142  2.1356  2.7008 -1.3467
  496ANI     HC 6942   4.863   1.144   4.221 -0.0981  0.8984  0.1422
  496ANI     HN 6943   5.076   0.917   4.041  0.0736  0.0781 -0.0712
  496ANI     HN 6944   5.056   0.977   4.197 -1.3427  0.7359  0.6670
  497ANI     CN 6945   3.882   3.848   1.489 -0.1380 -0.1860  0.0098
  497ANI     CH 6946   3.995   3.909   1.544 -0.2339 -0.5623  0.6307
  497ANI     CH 6947   4.071   3.848   1.645  0.1485 -0.1415  0.6011
  497ANI     CH 6948   4.042   3.716   1.681 -0.0712 -0.3429 -0.2813
  497ANI     CH 6949   3.929   3.649   1.633 -0.4744 -0.0662  0.2736
  497ANI     CH 6950   3.855   3.720   1.538 -0.0432 -0.2997 -0.2377
  497ANI     NH 6951   3.821   3.905   1.384  0.2100  0.2681  0.0546
  497ANI     HC 6952   4.034   4.004   1.510  2.4331 -1.4809  0.9716
  497ANI     HC 6953   4.161   3.896   1.681  1.1699 -1.1885 -0.4859
  497ANI     HC 6954   4.098   3.658   1.753 -0.7070 -2.0954 -1.1591
  497ANI     HC 6955   3.912   3.550   1.673 -0.9780  0.7591  2.1962
  497ANI     HC 6956   3.776   3.664   1.490 -0.8356  0.0549  0.6434
  497ANI     HN 6957   3.827   4.005   1.399  0.6359  0.2571 -0.0383
  497ANI     HN 6958   3.722   3.891   1.370 -0.0455  1.3288  0.6932
  498ANI     CN 6959   2.619   4.320   1.481 -0.2060  0.4982  0.6632
  498ANI     CH 6960   2.622   4.225   1.583 -0.3877  0.3924  0.5697
  498ANI     CH 6961   2.504   4.149   1.597 -0.1423 -0.1677 -0.3419
  498ANI     CH 6962   2.384   4.177   1.531 -0.5248 -0.3025  0.2884
  498ANI     CH 6963   2.385   4.282   1.438  0.2463 -0.1115  0.5015
  498ANI     CH 6964   2.503   4.352   1.410 -0.1485  0.6026  0.6163
  498ANI     NH 6965   2.732   4.381   1.442 -0.3675  0.0757 -0.5070
  498ANI     HC 6966   2.709   4.208   1.644 -0.5396  2.7315  1.4775
  498ANI     HC 6967   2.499   4.068   1.668  0.7470 -0.1533 -0.2472
  498ANI     HC 6968   2.297   4.114   1.539  0.1198 -1.0452  1.6657
  498ANI     HC 6969   2.303   4.299   1.369  0.3809  1.6280  0.7545
  498ANI     HC 6970   2.499   4.432   1.337  1.0099 -0.2715 -0.4155
  498ANI     HN 6971   2.811   4.347   1.495 -1.8675 -0.0518  1.7344
  498ANI     HN 6972   2.719   4.480   1.456 -2.0789 -0.4331  1.9473
  499ANI     CN 6973   4.915   1.974   0.437  0.2023  0.0117 -0.4736
  499ANI     CH 6974   4.829   2.007   0.332 -0.1874  0.2219 -0.0897
  499ANI     CH 6975   4.788   2.141   0.317 -0.1668  0.2112 -0.2392
  499ANI     CH 6976   4.846   2.242   0.395  0.3282 -0.2430 -0.0114
  499ANI     CH 6977   4.938   2.212   0.496  0.1504 -0.1975  0.1646
  499ANI     CH 6978   4.971   2.077   0.513  0.0041 -0.2510  0.0298
  499ANI     NH 6979   4.966   1.850   0.445 -0.0876 -0.0738  0.0666
  499ANI     HC 6980   4.789   1.935   0.262 -0.5163  0.3736 -0.0602
  499ANI     HC 6981   4.714   2.158   0.240  0.1538 -1.5797 -0.9896
  499ANI     HC 6982   4.818   2.343   0.370 -1.2388 -0.5503  0.4359
  499ANI     HC 6983   4.981   2.293   0.551  0.5553 -1.6275  2.0031
  499ANI     HC 6984   5.044   2.055   0.590  0.7373  4.0781  0.6787
  499ANI     HN 6985   5.007   1.804   0.525  0.5555  0.6922  0.1872
  499ANI     HN 6986   4.927   1.775   0.390 -0.2116  0.4959 -0.6290
  500ANI     CN 6987   3.508   4.912   3.723  0.1590  0.1910  0.3065
  500ANI     CH 6988   3.519   4.916   3.862  0.3135  0.1445  0.2954
  500ANI     CH 6989   3.442   5.005   3.939 -0.1169  0.0179  0.0099
  500ANI     CH 6990   3.347   5.088   3.878  0.4864  0.5548 -0.2122
  500ANI     CH 6991   3.332   5.081   3.739 -0.1087 -0.3610 -0.1070
  500ANI     CH 6992   3.410   4.993   3.663  0.0698 -0.2103 -0.0971
  500ANI     NH 6993   3.584   4.834   3.646  0.2651  0.5228  0.0739
  500ANI     HC 6994   3.595   4.853   3.906 -0.2959  0.9696  2.6515
  500ANI     HC 6995   3.459   5.014   4.045  1.7836 -1.7343 -0.1065
  500ANI     HC 6996   3.283   5.149   3.939  0.3938  1.0597 -0.8049
  500ANI     HC 6997   3.260   5.144   3.687  1.2799 -0.5430 -2.3382
  500ANI     HC 6998   3.408   4.997   3.556  0.1807 -0.9599 -0.1303
  500ANI     HN 6999   3.681   4.863   3.647  0.8386 -1.2739  0.1701
  500ANI     HN 7000   3.550   4.837   3.551 -1.2742  0.2704  0.6032
  501ANI     CN 7001   4.338   0.945   3.702  0.0506 -0.1521 -0.0828
  501ANI     CH 7002   4.224   1.021   3.735  0.1819 -0.0607  0.1636
  501ANI     CH 7003   4.125   0.957   3.810  0.1803  0.2996  0.4685
  501ANI     CH 7004   4.142   0.827   3.858 -0.0846 -0.1037 -0.5121
  501ANI     CH 7005   4.263   0.761   3.831  0.2578  0.3526 -0.1132
  501ANI     CH 7006   4.366   0.819   3.756  0.3319 -0.2614 -0.4886
  501ANI     NH 7007   4.429   1.003   3.624 -0.0427  0.9087  0.5880
  501ANI     HC 7008   4.212   1.121   3.697  0.5981 -0.0562  0.0434
  501ANI     HC 7009   4.035   1.014   3.831 -0.6496  0.2540 -2.6772
  501ANI     HC 7010   4.067   0.780   3.919  1.2972 -0.1917  1.1607
  501ANI     HC 7011   4.274   0.660   3.867 -0.2099  0.4912  0.4214
  501ANI     HC 7012   4.453   0.760   3.730  0.9702  0.4634  0.0022
  501ANI     HN 7013   4.426   1.104   3.634  0.0290  1.1105 -1.2539
  501ANI     HN 7014   4.524   0.972   3.639 -0.5677 -0.9106  0.1823
  502ANI     CN 7015   1.971   3.711   4.371  0.3326 -0.3680 -0.4016
  502ANI     CH 7016   1.920   3.619   4.463 -0.0874  0.1020 -0.1601
  502ANI     CH 7017   1.782   3.604   4.479 -0.0615  0.2020  0.1657
  502ANI     CH 7018   1.700   3.670   4.387 -0.1538 -0.2824 -0.1010
  502ANI     CH 7019   1.747   3.759   4.290  0.0470 -0.0197  0.2375
  502ANI     CH 7020   1.886   3.778   4.283  0.0580 -0.1756  0.0107
  502ANI     NH 7021   2.099   3.752   4.370  0.3282 -0.3430 -0.0341
  502ANI     HC 7022   2.003   3.583   4.522 -0.7663  0.0491  0.7768
  502ANI     HC 7023   1.744   3.526   4.544 -0.2617  2.5482  2.9384
  502ANI     HC 7024   1.593   3.653   4.387 -0.2093  0.0252  1.0090
  502ANI     HC 7025   1.679   3.816   4.229 -1.1287 -1.2210  0.4032
  502ANI     HC 7026   1.923   3.861   4.224  0.0618  1.7506  2.6226
  502ANI     HN 7027   2.167   3.699   4.318  0.6153  0.3172 -0.3322
  502ANI     HN 7028   2.106   3.829   4.305 -3.0552 -1.6380 -2.0423
  503ANI     CN 7029   5.364   0.243   5.804 -0.0739  0.0382 -0.0190
  503ANI     CH 7030   5.431   0.366   5.805  0.8085 -0.4354 -0.1402
  503ANI     CH 7031   5.390   0.474   5.725  0.2004 -0.5583  0.0053
  503ANI     CH 7032   5.274   0.460   5.648 -0.2918  0.0105  0.6322
  503ANI     CH 7033   5.205   0.339   5.648 -0.3544  0.0448  0.0586
  503ANI     CH 7034   5.248   0.232   5.727 -0.3493  0.2721  0.3633
  503ANI     NH 7035   5.404   0.140   5.880 -0.2643  0.1586  0.2440
  503ANI     HC 7036   5.520   0.372   5.866 -0.0503  3.2972  0.8683
  503ANI     HC 7037   5.453   0.562   5.733 -1.5268  0.6270  0.8326
  503ANI     HC 7038   5.258   0.545   5.582  1.6142 -0.2524 -0.2335
  503ANI     HC 7039   5.124   0.327   5.577 -0.7595  2.3724  0.0816
  503ANI     HC 7040   5.204   0.133   5.727  1.6296 -0.6648  2.9680
  503ANI     HN 7041   5.440   0.165   5.970  1.0954  0.3381 -0.3336
  503ANI     HN 7042   5.331   0.072   5.896 -0.2545 -0.2900 -1.4552
  504ANI     CN 7043   1.506   4.947   0.735 -0.0851  0.1343 -0.1385
  504ANI     CH 7044   1.564   4.837   0.799  0.0087  0.1389 -0.2151
  504ANI     CH 7045   1.702   4.813   0.785  0.0293 -0.0015  0.2249
  504ANI     CH 7046   1.776   4.892   0.697 -0.2868  0.4247  0.3355
  504ANI     CH 7047   1.721   5.001   0.629  0.5936  0.8416  0.2780
  504ANI     CH 7048   1.588   5.033   0.661  0.1326 -0.3209 -0.4306
  504ANI     NH 7049   1.375   4.966   0.753 -0.0046  0.1667  0.4391
  504ANI     HC 7050   1.502   4.780   0.866  1.0267  0.7070  1.2408
  504ANI     HC 7051   1.751   4.729   0.832  0.0593  1.0648  2.1780
  504ANI     HC 7052   1.881   4.870   0.684 -0.4895 -0.4730  0.2010
  504ANI     HC 7053   1.781   5.069   0.571 -0.2049  0.4045 -1.0782
  504ANI     HC 7054   1.539   5.121   0.623 -0.6063  0.2071  1.6708
  504ANI     HN 7055   1.333   4.875   0.763  0.8921 -0.3968 -0.7461
  504ANI     HN 7056   1.339   5.022   0.676 -0.6408  0.6619  1.0935
  505ANI     CN 7057   4.454   0.093   6.027  0.0925  0.3398 -0.2338
  505ANI     CH 7058   4.389  -0.031   6.029 -0.2085  0.4951 -0.3397
  505ANI     CH 7059   4.265  -0.053   6.091 -0.1490 -0.5502 -0.5982
  505ANI     CH 7060   4.215   0.057   6.160  0.5492 -0.5964 -0.0053
  505ANI     CH 7061   4.279   0.182   6.159 -0.2264 -0.1990 -0.2602
  505ANI     CH 7062   4.395   0.206   6.086 -0.0561  0.0873  0.1030
  505ANI     NH 7063   4.571   0.114   5.964  0.5645 -0.7298  0.2805
  505ANI     HC 7064   4.429  -0.115   5.976 -0.8067  0.4678 -0.7548
  505ANI     HC 7065   4.216  -0.149   6.090 -0.0083 -0.6423  0.3840
  505ANI     HC 7066   4.123   0.046   6.215  0.9904  0.2682  0.9302
  505ANI     HC 7067   4.232   0.263   6.213 -0.7080 -0.5952 -0.0829
  505ANI     HC 7068   4.446   0.300   6.069 -2.3379  1.2517 -0.5498
  505ANI     HN 7069   4.621   0.201   5.953 -1.8545  0.6059 -0.5352
  505ANI     HN 7070   4.623   0.051   5.905  0.5295 -1.6929  1.2491
  506ANI     CN 7071   0.950   4.330   4.849 -0.3538 -0.0400 -0.4449
  506ANI     CH 7072   0.843   4.364   4.765 -0.4490  0.1400 -0.2481
  506ANI     CH 7073   0.873   4.455   4.662 -0.0043 -0.1838 -0.4075
  506ANI     CH 7074   0.997   4.518   4.654 -0.1429  0.0851 -0.4188
  506ANI     CH 7075   1.095   4.489   4.749 -0.7473 -0.1192  0.1476
  506ANI     CH 7076   1.077   4.387   4.843 -0.4596  0.3147  0.6775
  506ANI     NH 7077   0.932   4.234   4.940 -0.4071 -0.1225 -0.5407
  506ANI     HC 7078   0.743   4.324   4.771 -0.1488 -0.4803  0.6277
  506ANI     HC 7079   0.800   4.477   4.586 -0.3404 -0.7502 -0.2562
  506ANI     HC 7080   1.009   4.590   4.573  1.3039  1.1215  0.6879
  506ANI     HC 7081   1.193   4.533   4.737  0.4388 -2.5867  0.5263
  506ANI     HC 7082   1.162   4.345   4.895  0.0028 -0.0516 -0.3709
  506ANI     HN 7083   0.837   4.236   4.976 -1.1604 -0.2689 -2.4717
  506ANI     HN 7084   0.996   4.231   5.018 -0.7296 -0.7153 -0.2885
  507ANI     CN 7085   0.024   4.709   4.162 -0.3268  0.4508 -0.3804
  507ANI     CH 7086  -0.104   4.657   4.184 -0.0535 -0.1176 -0.1264
  507ANI     CH 7087  -0.207   4.747   4.215  0.1025 -0.0406  0.1692
  507ANI     CH 7088  -0.183   4.884   4.233 -0.3691 -0.0112  0.5750
  507ANI     CH 7089  -0.056   4.932   4.200 -0.3863 -0.1937  0.2356
  507ANI     CH 7090   0.050   4.846   4.171 -0.1094  0.4262 -0.6176
  507ANI     NH 7091   0.127   4.631   4.125 -0.2091  0.2829  0.2902
  507ANI     HC 7092  -0.128   4.552   4.180  1.1038 -0.4931  2.0025
  507ANI     HC 7093  -0.304   4.704   4.234  0.3893 -0.1232  1.5436
  507ANI     HC 7094  -0.261   4.946   4.275 -0.2933  0.3944  0.1111
  507ANI     HC 7095  -0.031   5.034   4.225  1.9338 -1.3812  3.0461
  507ANI     HC 7096   0.149   4.880   4.144 -0.3488 -0.1927 -2.3652
  507ANI     HN 7097   0.193   4.672   4.060  0.1649  0.4401  0.7709
  507ANI     HN 7098   0.114   4.533   4.107 -0.4263  0.3479  0.0807
  508ANI     CN 7099   0.262   5.895   0.685 -0.2468  0.1616 -0.3927
  508ANI     CH 7100   0.243   5.909   0.547 -0.0863 -0.5103 -0.4868
  508ANI     CH 7101   0.313   6.003   0.470  0.1029 -0.5795 -0.4006
  508ANI     CH 7102   0.408   6.080   0.540 -0.1492 -0.7387  0.1209
  508ANI     CH 7103   0.434   6.066   0.677  0.0684 -0.1473  0.1374
  508ANI     CH 7104   0.360   5.971   0.748 -0.4795  0.1545 -0.0178
  508ANI     NH 7105   0.188   5.809   0.758  0.3572  0.0034  0.0360
  508ANI     HC 7106   0.179   5.839   0.496 -0.4012 -1.8665  1.6790
  508ANI     HC 7107   0.296   6.012   0.364  0.5518 -2.3094 -0.6400
  508ANI     HC 7108   0.463   6.142   0.471  0.8367  0.7750  2.2258
  508ANI     HC 7109   0.508   6.132   0.720 -1.3728  1.5179  0.1491
  508ANI     HC 7110   0.370   5.956   0.855  0.7659  3.8124  0.4652
  508ANI     HN 7111   0.159   5.731   0.702  0.2987  0.3673 -0.4492
  508ANI     HN 7112   0.231   5.771   0.841 -0.4433  0.4532  0.6639
  509ANI     CN 7113   0.112   5.023   1.512  0.1287  0.2207 -0.2214
  509ANI     CH 7114   0.172   5.037   1.386 -0.3304  0.5390 -0.4050
  509ANI     CH 7115   0.143   4.947   1.282 -0.3423 -0.2709  0.2971
  509ANI     CH 7116   0.054   4.841   1.302 -0.5108 -0.2338 -0.2545
  509ANI     CH 7117  -0.012   4.833   1.425  0.6778  0.1329  0.4156
  509ANI     CH 7118   0.019   4.920   1.530  0.5266 -0.0004  0.5717
  509ANI     NH 7119   0.143   5.100   1.617  0.1959 -0.2935  0.1379
  509ANI     HC 7120   0.236   5.121   1.361  1.5992 -1.1682 -1.3323
  509ANI     HC 7121   0.197   4.954   1.189  0.7316  1.4353  1.0171
  509ANI     HC 7122   0.041   4.765   1.227  0.0118  0.9335 -1.5542
  509ANI     HC 7123  -0.080   4.752   1.446  0.0752  0.2219 -1.1640
  509ANI     HC 7124  -0.031   4.914   1.626  0.6350  0.2029  0.6426
  509ANI     HN 7125   0.192   5.181   1.579 -1.5711  1.9471  2.4701
  509ANI     HN 7126   0.065   5.126   1.675 -1.3824 -1.9090 -1.2246
  510ANI     CN 7127   5.149   4.038   5.648  0.3992  0.1390 -0.3627
  510ANI     CH 7128   5.219   3.954   5.736 -0.1839  0.2833  0.2412
  510ANI     CH 7129   5.274   3.836   5.685  0.1482  0.5182  0.0511
  510ANI     CH 7130   5.262   3.803   5.550  0.6558  0.1727  0.0911
  510ANI     CH 7131   5.191   3.888   5.465 -0.0764 -0.2161  0.3077
  510ANI     CH 7132   5.137   4.009   5.511  0.1513  0.1370 -0.3418
  510ANI     NH 7133   5.095   4.149   5.699  0.0775 -0.1400 -0.0942
  510ANI     HC 7134   5.222   3.978   5.841 -0.9388 -0.4444  0.4284
  510ANI     HC 7135   5.314   3.768   5.759  0.8013  0.2591 -0.5470
  510ANI     HC 7136   5.300   3.704   5.527 -0.2336 -1.0634  3.6688
  510ANI     HC 7137   5.169   3.858   5.363 -2.6086 -0.0380  0.7691
  510ANI     HC 7138   5.099   4.083   5.443  0.6554  0.3183 -0.4345
  510ANI     HN 7139   5.099   4.151   5.800 -0.6368 -0.4933 -0.0510
  510ANI     HN 7140   4.999   4.157   5.667  0.3324  2.5217 -0.3192
  511ANI     CN 7141   3.163   3.660   3.303  0.2220 -0.3225  0.0358
  511ANI     CH 7142   3.236   3.757   3.373 -0.6878  0.3904  0.0047
  511ANI     CH 7143   3.201   3.790   3.504 -0.1243  1.2665 -0.0638
  511ANI     CH 7144   3.098   3.720   3.568  0.5929  0.2036 -0.0524
  511ANI     CH 7145   3.025   3.626   3.495  0.4367  0.2557  0.0379
  511ANI     CH 7146   3.061   3.588   3.365  0.2124 -0.2364  0.1182
  511ANI     NH 7147   3.182   3.632   3.173  0.3722  0.5894 -0.1451
  511ANI     HC 7148   3.301   3.832   3.329  0.7715  0.1297  1.6771
  511ANI     HC 7149   3.259   3.866   3.555  3.0887 -1.8700  1.1578
  511ANI     HC 7150   3.063   3.751   3.665  2.7807 -2.9978  1.8606
  511ANI     HC 7151   2.949   3.565   3.541  1.1568 -1.6732 -1.2861
  511ANI     HC 7152   2.993   3.520   3.316 -0.7375  1.3332 -0.7814
  511ANI     HN 7153   3.218   3.717   3.132  0.1909 -0.0595 -1.6999
  511ANI     HN 7154   3.099   3.603   3.123  2.6087 -2.8807 -2.0845
  512ANI     CN 7155   1.677   1.361   6.038  0.0799 -0.3725 -0.0108
  512ANI     CH 7156   1.586   1.258   6.063 -0.0306 -0.2682  0.0121
  512ANI     CH 7157   1.568   1.155   5.970  0.2906 -0.1185 -0.2138
  512ANI     CH 7158   1.650   1.155   5.857  0.0346  0.1580 -0.3974
  512ANI     CH 7159   1.761   1.240   5.851  0.4111 -0.3091 -0.0570
  512ANI     CH 7160   1.776   1.348   5.939 -0.0836 -0.1146 -0.2098
  512ANI     NH 7161   1.693   1.463   6.123 -0.1617 -0.6435  0.3586
  512ANI     HC 7162   1.511   1.265   6.141  1.8460  0.6331  1.7843
  512ANI     HC 7163   1.490   1.081   5.984  0.0372  0.5193  2.0192
  512ANI     HC 7164   1.646   1.073   5.787 -0.5357 -2.2592  2.3807
  512ANI     HC 7165   1.832   1.214   5.774 -0.5271 -1.8417 -0.4179
  512ANI     HC 7166   1.858   1.415   5.922 -2.1367  1.7768 -3.0281
  512ANI     HN 7167   1.777   1.518   6.114  0.5316 -1.5001  1.4078
  512ANI     HN 7168   1.651   1.475   6.214 -3.1560 -0.7999 -0.9507
  513ANI     CN 7169   1.707   2.914   0.840  0.5077  0.3972 -0.0603
  513ANI     CH 7170   1.623   3.009   0.897  0.2463 -0.0397  0.2839
  513ANI     CH 7171   1.636   3.042   1.033  0.1881  0.0264  0.2736
  513ANI     CH 7172   1.743   2.985   1.102  0.1821  0.4157  0.6090
  513ANI     CH 7173   1.833   2.896   1.042 -0.4405  0.0584  0.1958
  513ANI     CH 7174   1.813   2.855   0.910  0.6839  0.6010 -0.1534
  513ANI     NH 7175   1.695   2.894   0.708 -0.3810  0.5693 -0.0041
  513ANI     HC 7176   1.547   3.063   0.842  0.9361  0.0232 -0.6079
  513ANI     HC 7177   1.570   3.114   1.080  0.0187 -0.2251  0.4219
  513ANI     HC 7178   1.763   3.009   1.205 -0.2696  1.1694  0.5220
  513ANI     HC 7179   1.914   2.858   1.103  0.6354  1.3333 -0.4037
  513ANI     HC 7180   1.878   2.786   0.857 -0.7514 -0.6497 -0.3297
  513ANI     HN 7181   1.781   2.868   0.662 -0.7087 -1.6296  0.5955
  513ANI     HN 7182   1.675   2.979   0.658  1.7719  2.6871  2.6018
  514ANI     CN 7183   4.981   1.602   3.309  0.2084  0.0510 -0.3839
  514ANI     CH 7184   4.845   1.591   3.276  0.1546  1.2264 -0.5544
  514ANI     CH 7185   4.754   1.629   3.375 -0.0777 -0.5623 -0.0670
  514ANI     CH 7186   4.796   1.687   3.496  0.4142 -0.9631 -0.0450
  514ANI     CH 7187   4.932   1.706   3.519  0.3206  0.0669 -0.3118
  514ANI     CH 7188   5.028   1.663   3.426  0.2750 -0.6934 -0.0146
  514ANI     NH 7189   5.071   1.554   3.223  0.5019 -0.1507  0.0314
  514ANI     HC 7190   4.814   1.532   3.192  0.0948  0.4004  0.0450
  514ANI     HC 7191   4.653   1.590   3.379  0.4993 -1.9163  2.3727
  514ANI     HC 7192   4.728   1.727   3.569 -1.1781 -0.8250 -1.5613
  514ANI     HC 7193   4.962   1.760   3.607  0.4040 -1.1718  0.4275
  514ANI     HC 7194   5.132   1.671   3.455  0.5584  1.3315 -1.4227
  514ANI     HN 7195   5.043   1.458   3.207  1.9319 -0.4936 -0.5201
  514ANI     HN 7196   5.155   1.538   3.278 -0.7224  2.0599  2.6550
  515ANI     CN 7197   2.845   3.251   5.531  0.1816  0.0886 -0.1415
  515ANI     CH 7198   2.863   3.206   5.400 -0.2726 -0.2250 -0.0990
  515ANI     CH 7199   2.987   3.219   5.337 -0.1734 -0.0870  0.1236
  515ANI     CH 7200   3.093   3.279   5.406 -0.2654  0.2801 -0.0482
  515ANI     CH 7201   3.079   3.317   5.540  0.3059 -0.1809  0.1479
  515ANI     CH 7202   2.954   3.302   5.602 -0.1090  1.0478 -0.3736
  515ANI     NH 7203   2.719   3.234   5.573  0.3276  0.3229  0.3957
  515ANI     HC 7204   2.783   3.159   5.344  1.0987 -0.5081 -1.8789
  515ANI     HC 7205   3.004   3.183   5.236  0.0766  0.1962  0.0618
  515ANI     HC 7206   3.189   3.291   5.357 -1.1793  0.5081 -1.8209
  515ANI     HC 7207   3.161   3.349   5.603  0.3253 -1.7312  0.9321
  515ANI     HC 7208   2.940   3.317   5.708 -1.8362  0.7663 -0.5420
  515ANI     HN 7209   2.711   3.222   5.673 -0.4741  0.6097  0.3689
  515ANI     HN 7210   2.676   3.147   5.544  3.0451 -1.4246  1.4859
  516ANI     CN 7211   0.603   1.122   1.742 -0.5725 -0.3492  0.0596
  516ANI     CH 7212   0.630   1.226   1.651 -0.6285 -0.1238  0.3012
  516ANI     CH 7213   0.602   1.196   1.517  0.0118  0.1631  0.1030
  516ANI     CH 7214   0.544   1.077   1.473 -0.4088  0.3525  0.1408
  516ANI     CH 7215   0.516   0.979   1.568  0.5113 -0.1310 -0.0830
  516ANI     CH 7216   0.550   0.998   1.702 -0.0621 -0.5895  0.1339
  516ANI     NH 7217   0.604   1.150   1.873  0.4182 -0.0456 -0.0067
  516ANI     HC 7218   0.651   1.328   1.679 -4.2931  0.3545  1.6499
  516ANI     HC 7219   0.630   1.272   1.445  1.8224  1.2090  1.8531
  516ANI     HC 7220   0.535   1.059   1.367  2.9700 -0.4928 -0.0506
  516ANI     HC 7221   0.479   0.881   1.540  0.0863 -0.9611  3.1602
  516ANI     HC 7222   0.515   0.923   1.771  0.8961 -1.4155 -0.2739
  516ANI     HN 7223   0.659   1.234   1.883 -0.8319  0.4913  2.7153
  516ANI     HN 7224   0.633   1.080   1.939  0.2267 -0.2167 -0.1028
  517ANI     CN 7225   5.868   5.626   4.294 -0.1055 -0.4204  0.2251
  517ANI     CH 7226   5.914   5.758   4.283 -0.4472 -0.3206 -0.0161
  517ANI     CH 7227   6.011   5.808   4.371 -0.5191 -0.3348  0.0722
  517ANI     CH 7228   6.048   5.729   4.481 -0.1264  0.3719  0.4524
  517ANI     CH 7229   5.999   5.599   4.495 -0.3596  0.4713  0.5798
  517ANI     CH 7230   5.910   5.545   4.401  0.7990 -0.3524 -0.0719
  517ANI     NH 7231   5.797   5.579   4.191  0.2071 -0.7359  0.1530
  517ANI     HC 7232   5.890   5.821   4.199  0.3656  1.0966  0.8043
  517ANI     HC 7233   6.057   5.902   4.344 -1.5391 -0.3389 -1.7569
  517ANI     HC 7234   6.116   5.776   4.551  1.1229 -0.8387  0.0646
  517ANI     HC 7235   6.037   5.532   4.571  0.2152 -0.8354 -0.8262
  517ANI     HC 7236   5.868   5.446   4.412  0.7843 -0.3245  0.1265
  517ANI     HN 7237   5.787   5.481   4.169  0.8130 -0.8370  0.3120
  517ANI     HN 7238   5.749   5.639   4.125 -1.7029  1.1218  3.1441
  518ANI     CN 7239   3.921   2.708   5.601 -0.3833  0.0530 -0.8882
  518ANI     CH 7240   3.921   2.800   5.707  0.2966 -0.6500 -0.2759
  518ANI     CH 7241   4.022   2.897   5.717 -0.1019 -0.2909  0.3349
  518ANI     CH 7242   4.122   2.905   5.620 -0.0968 -0.2715  0.3398
  518ANI     CH 7243   4.116   2.822   5.507  0.7599 -0.0007  0.0877
  518ANI     CH 7244   4.017   2.723   5.501  0.5472  0.2186  0.0159
  518ANI     NH 7245   3.821   2.620   5.596 -0.1632 -0.2362 -0.3059
  518ANI     HC 7246   3.852   2.790   5.790  1.9954  5.9178  2.2343
  518ANI     HC 7247   4.023   2.956   5.807 -1.3365  0.7358 -0.3151
  518ANI     HC 7248   4.180   2.996   5.617  0.0075 -0.3395  0.2853
  518ANI     HC 7249   4.177   2.837   5.420  0.8481 -1.4357 -0.1147
  518ANI     HC 7250   4.027   2.651   5.421 -2.3963  0.6841 -0.8545
  518ANI     HN 7251   3.802   2.585   5.688 -0.5488  2.1139  0.5357
  518ANI     HN 7252   3.834   2.544   5.529 -2.4671 -0.0380 -1.0322
  519ANI     CN 7253   2.672   0.560   3.770  0.1444 -0.0806  0.8118
  519ANI     CH 7254   2.643   0.697   3.775  0.1053 -0.0563 -0.0119
  519ANI     CH 7255   2.520   0.743   3.822 -0.0282 -0.1909 -0.2294
  519ANI     CH 7256   2.419   0.653   3.859 -0.4655  0.2142 -0.4321
  519ANI     CH 7257   2.449   0.516   3.860  0.2656  0.3758  0.2136
  519ANI     CH 7258   2.572   0.471   3.812 -0.0240 -0.2545  0.0575
  519ANI     NH 7259   2.790   0.514   3.726  0.1420  0.6343  0.0400
  519ANI     HC 7260   2.717   0.768   3.740 -0.2402 -0.0399 -0.7124
  519ANI     HC 7261   2.511   0.850   3.829 -1.3575 -0.2391 -0.8958
  519ANI     HC 7262   2.320   0.684   3.888 -0.6545 -0.8273  0.0272
  519ANI     HC 7263   2.385   0.442   3.905 -1.0506  1.3911  0.0610
  519ANI     HC 7264   2.590   0.365   3.812  0.2842 -0.2045  0.0274
  519ANI     HN 7265   2.859   0.587   3.725  0.1546  0.6478  1.4400
  519ANI     HN 7266   2.824   0.432   3.775  0.0471  0.0958 -0.7736
  520ANI     CN 7267   0.804   1.897   2.099 -0.0774  0.4363 -0.1593
  520ANI     CH 7268   0.717   2.002   2.066 -0.6491 -0.0113 -0.0927
  520ANI     CH 7269   0.648   2.074   2.164 -0.5050  0.2313 -0.1676
  520ANI     CH 7270   0.682   2.052   2.298 -0.2268  0.1608 -0.2483
  520ANI     CH 7271   0.780   1.959   2.332 -0.3019 -0.0205 -0.5276
  520ANI     CH 7272   0.839   1.879   2.233 -0.2299 -0.3488 -0.2195
  520ANI     NH 7273   0.860   1.818   2.007 -0.2204  0.1666 -0.0162
  520ANI     HC 7274   0.699   2.014   1.960  1.1938 -0.2685 -0.4692
  520ANI     HC 7275   0.568   2.142   2.140 -1.5501 -0.4457  1.3351
  520ANI     HC 7276   0.637   2.116   2.373  0.6135 -0.8197  1.0966
  520ANI     HC 7277   0.806   1.953   2.436 -0.9475 -2.3478 -0.4847
  520ANI     HC 7278   0.906   1.802   2.269 -0.4522 -0.9784 -1.1438
  520ANI     HN 7279   0.873   1.725   2.045  1.3685  0.2597 -0.2804
  520ANI     HN 7280   0.814   1.815   1.917  1.9785 -0.1422 -1.1671
  521ANI     CN 7281   4.845   4.850   6.124  0.2606 -0.0430  0.0694
  521ANI     CH 7282   4.763   4.807   6.019  0.1586 -0.0412  0.1472
  521ANI     CH 7283   4.692   4.687   6.025 -0.3541  0.2524  0.0397
  521ANI     CH 7284   4.684   4.614   6.144  0.3858 -0.3162 -0.2474
  521ANI     CH 7285   4.759   4.664   6.252  0.8611 -0.4229 -0.5276
  521ANI     CH 7286   4.835   4.780   6.245  0.2734  0.0065  0.0970
  521ANI     NH 7287   4.916   4.962   6.110 -0.2357  0.2496 -0.1180
  521ANI     HC 7288   4.758   4.859   5.924 -1.3177 -0.3318  0.0642
  521ANI     HC 7289   4.628   4.663   5.942 -1.4516 -0.1778  1.0002
  521ANI     HC 7290   4.628   4.522   6.154  2.7110 -1.7876 -0.5771
  521ANI     HC 7291   4.768   4.596   6.336  1.4445  0.1404 -0.1333
  521ANI     HC 7292   4.892   4.805   6.334  0.3554 -2.4238  0.7559
  521ANI     HN 7293   4.997   4.981   6.168 -0.2370  1.8782 -0.6315
  521ANI     HN 7294   4.948   4.963   6.014  1.6258  1.5710  0.4677
  522ANI     CN 7295   6.148   5.997   0.537 -0.3881 -0.0876  0.2207
  522ANI     CH 7296   6.044   5.969   0.448 -0.3036  0.1271  0.0543
  522ANI     CH 7297   6.038   6.032   0.323 -0.1934  0.2030  0.0879
  522ANI     CH 7298   6.150   6.105   0.281 -0.3789  0.5604  0.2224
  522ANI     CH 7299   6.258   6.133   0.366 -0.5856  0.4131  0.5372
  522ANI     CH 7300   6.251   6.082   0.496 -0.2600 -0.2014  0.3115
  522ANI     NH 7301   6.162   5.938   0.657 -0.2326  0.2866  0.3876
  522ANI     HC 7302   5.971   5.891   0.461  1.7152 -2.0064 -0.9718
  522ANI     HC 7303   5.951   6.021   0.260 -1.6601  0.0962  2.1129
  522ANI     HC 7304   6.163   6.142   0.181  0.8778 -3.2819 -1.1164
  522ANI     HC 7305   6.345   6.187   0.332 -0.8844 -0.3540 -1.5548
  522ANI     HC 7306   6.323   6.104   0.573 -0.8496  1.4072  0.4067
  522ANI     HN 7307   6.222   5.990   0.719  2.2182 -1.2437 -0.6471
  522ANI     HN 7308   6.070   5.941   0.699 -0.0770 -1.2080  0.8363
  523ANI     CN 7309   0.954   4.927   1.982  0.3380 -0.6111 -0.2341
  523ANI     CH 7310   0.991   4.907   2.116 -0.0594 -0.1039 -0.0480
  523ANI     CH 7311   0.902   4.872   2.218  0.4725 -0.1645  0.3949
  523ANI     CH 7312   0.770   4.842   2.183  0.4528  0.6671 -0.2563
  523ANI     CH 7313   0.732   4.854   2.049 -0.0999  0.1263 -0.1501
  523ANI     CH 7314   0.820   4.902   1.951  0.0502  0.4469  0.1415
  523ANI     NH 7315   1.040   4.976   1.892 -0.0825  0.0526 -0.2763
  523ANI     HC 7316   1.094   4.925   2.141 -0.5381 -0.8612  2.5702
  523ANI     HC 7317   0.927   4.862   2.323 -3.1989  1.2500  1.4980
  523ANI     HC 7318   0.696   4.808   2.254 -1.6248  1.9283 -1.7551
  523ANI     HC 7319   0.626   4.840   2.031 -0.0673 -0.0655 -0.1999
  523ANI     HC 7320   0.776   4.914   1.853  0.9959 -0.1740 -0.3660
  523ANI     HN 7321   1.136   4.981   1.923  0.2080 -2.3531 -0.6528
  523ANI     HN 7322   1.015   5.073   1.885  2.1700  0.7110  0.2375
  524ANI     CN 7323   5.238   1.738   4.858  0.1229 -0.1820 -0.3627
  524ANI     CH 7324   5.157   1.726   4.973  0.0241  0.2126 -0.3916
  524ANI     CH 7325   5.203   1.786   5.091  0.4145  0.0695 -0.4668
  524ANI     CH 7326   5.330   1.843   5.101  0.2516  0.3572  0.0121
  524ANI     CH 7327   5.410   1.847   4.986  0.4889 -0.4966  0.1381
  524ANI     CH 7328   5.363   1.801   4.862 -0.1285  0.2951  0.0683
  524ANI     NH 7329   5.200   1.677   4.745  0.0436  0.1914 -0.5372
  524ANI     HC 7330   5.063   1.674   4.966 -0.6698  1.3068  0.5757
  524ANI     HC 7331   5.138   1.783   5.177  1.8135  0.0025  0.5944
  524ANI     HC 7332   5.347   1.893   5.195 -1.8032  1.2259 -0.0538
  524ANI     HC 7333   5.508   1.891   4.996  0.0672  0.6936 -0.7041
  524ANI     HC 7334   5.419   1.824   4.773 -2.2202  0.5279 -1.2254
  524ANI     HN 7335   5.100   1.672   4.732 -0.2367 -0.1168  1.5093
  524ANI     HN 7336   5.240   1.713   4.659  0.1605  0.1073 -0.5183
  525ANI     CN 7337   0.217   2.273   2.189 -0.0739 -0.2238  0.3912
  525ANI     CH 7338   0.206   2.188   2.078 -0.0506  0.5167 -0.1820
  525ANI     CH 7339   0.158   2.057   2.090  0.7699  0.2382  0.1328
  525ANI     CH 7340   0.121   2.011   2.217 -0.2231  0.0923 -0.2090
  525ANI     CH 7341   0.127   2.097   2.327 -0.3367 -0.4098  0.1930
  525ANI     CH 7342   0.177   2.227   2.315  0.9182 -0.8608  0.4807
  525ANI     NH 7343   0.264   2.396   2.165 -0.3964 -0.2257 -0.2522
  525ANI     HC 7344   0.234   2.233   1.984  0.2497  0.6589 -0.0271
  525ANI     HC 7345   0.149   1.992   2.005  1.9612  0.1457  0.0650
  525ANI     HC 7346   0.090   1.908   2.230  2.2035 -0.5716  0.6087
  525ANI     HC 7347   0.105   2.071   2.430 -1.8167  0.9347  0.2463
  525ANI     HC 7348   0.179   2.287   2.405  0.3980 -0.2288  0.0778
  525ANI     HN 7349   0.319   2.443   2.235 -0.6554  0.4042 -0.4639
  525ANI     HN 7350   0.314   2.411   2.079  0.1456  0.9783  0.2591
  526ANI     CN 7351   1.743   4.577   1.704  0.1942 -0.2245 -0.6382
  526ANI     CH 7352   1.640   4.602   1.612 -0.0383 -0.1308 -0.3565
  526ANI     CH 7353   1.522   4.528   1.602 -0.0017 -0.2633  0.1807
  526ANI     CH 7354   1.511   4.418   1.689  0.0883 -0.6111 -0.2473
  526ANI     CH 7355   1.611   4.385   1.781  0.1701  0.1553 -0.0525
  526ANI     CH 7356   1.725   4.465   1.787  0.2956 -0.0057 -0.3180
  526ANI     NH 7357   1.859   4.643   1.700 -0.0097  0.1344 -0.6670
  526ANI     HC 7358   1.645   4.693   1.554  2.5093  1.9509  2.9773
  526ANI     HC 7359   1.451   4.560   1.527 -0.4833  0.0715  0.7719
  526ANI     HC 7360   1.425   4.353   1.693 -0.7206  0.5465  1.9516
  526ANI     HC 7361   1.591   4.299   1.845  0.2107  0.3311  0.1962
  526ANI     HC 7362   1.800   4.448   1.863 -0.2613  2.4774  0.8426
  526ANI     HN 7363   1.889   4.658   1.796 -0.9445 -0.2410 -0.3085
  526ANI     HN 7364   1.830   4.732   1.662 -2.2718 -0.9947 -1.6584
  527ANI     CN 7365   3.307   3.641   4.210 -0.1285  0.1063  0.2450
  527ANI     CH 7366   3.298   3.674   4.074 -0.1115  0.7246  0.3970
  527ANI     CH 7367   3.401   3.748   4.015  0.4866 -0.1379  0.3622
  527ANI     CH 7368   3.519   3.780   4.083  0.4978  0.1206  0.2219
  527ANI     CH 7369   3.529   3.729   4.213 -0.6034  0.4737  0.4528
  527ANI     CH 7370   3.426   3.664   4.281 -0.0860 -0.4569  0.3639
  527ANI     NH 7371   3.213   3.557   4.254  0.0145 -0.1224  0.1192
  527ANI     HC 7372   3.216   3.641   4.012  0.5031 -0.3448  0.1563
  527ANI     HC 7373   3.401   3.765   3.908 -1.9483 -1.1404  0.1698
  527ANI     HC 7374   3.597   3.835   4.033 -1.9327  0.9760 -2.7723
  527ANI     HC 7375   3.627   3.741   4.256 -0.3827  1.6090 -0.3685
  527ANI     HC 7376   3.433   3.641   4.387  2.1139 -1.8769 -0.0720
  527ANI     HN 7377   3.236   3.492   4.328 -0.8591 -0.5784  0.0031
  527ANI     HN 7378   3.157   3.511   4.184 -1.4964  1.8762 -0.0357
  528ANI     CN 7379   2.888   1.707   3.240  0.2201 -0.3158 -0.0317
  528ANI     CH 7380   2.785   1.743   3.327  0.2621 -0.3058  0.0131
  528ANI     CH 7381   2.661   1.679   3.316  0.3369 -0.5533  0.5602
  528ANI     CH 7382   2.629   1.596   3.208 -0.5518  0.4966  0.0022
  528ANI     CH 7383   2.727   1.578   3.110  0.2717  0.0129  0.9070
  528ANI     CH 7384   2.858   1.625   3.130  0.5149 -0.1832 -0.2122
  528ANI     NH 7385   3.012   1.754   3.259  0.6559 -1.5186  0.1802
  528ANI     HC 7386   2.807   1.811   3.409  1.9715 -1.7600  0.8077
  528ANI     HC 7387   2.584   1.692   3.391  0.6113 -0.1804  0.7784
  528ANI     HC 7388   2.534   1.546   3.197 -0.2192  0.2742 -2.0342
  528ANI     HC 7389   2.726   1.498   3.038  1.0074  0.3148  0.5604
  528ANI     HC 7390   2.940   1.589   3.070 -0.7032 -2.0692 -0.8138
  528ANI     HN 7391   3.070   1.738   3.178 -0.5410 -3.3385 -0.3583
  528ANI     HN 7392   3.013   1.853   3.279  0.4019 -1.7098  1.1638
  529ANI     CN 7393   1.162   1.709   1.840  0.2335  0.6960  0.0058
  529ANI     CH 7394   1.090   1.769   1.736 -0.2382  0.2366  0.0652
  529ANI     CH 7395   1.119   1.734   1.604  0.0939  0.3969  0.0949
  529ANI     CH 7396   1.223   1.644   1.574 -0.5254 -0.4396  0.4369
  529ANI     CH 7397   1.302   1.596   1.679  0.4595  0.2084 -0.0104
  529ANI     CH 7398   1.272   1.627   1.812 -0.0897  0.3144 -0.1583
  529ANI     NH 7399   1.125   1.730   1.967  0.0792  0.1426  0.0531
  529ANI     HC 7400   1.015   1.844   1.756 -1.6252 -0.6244 -1.8181
  529ANI     HC 7401   1.060   1.762   1.518  0.4782  0.1147 -0.2656
  529ANI     HC 7402   1.238   1.611   1.473 -0.2917  2.0217 -0.3792
  529ANI     HC 7403   1.373   1.517   1.658 -1.8874 -1.4227 -2.0823
  529ANI     HC 7404   1.339   1.583   1.885  2.4729  1.2296 -1.8805
  529ANI     HN 7405   1.038   1.780   1.976 -0.1678 -0.1811 -0.5000
  529ANI     HN 7406   1.128   1.648   2.027 -0.2241 -0.6401 -0.9827
  530ANI     CN 7407   0.176   3.469   0.701  0.4304  0.1874 -0.0712
  530ANI     CH 7408   0.244   3.427   0.586 -0.1702 -0.2066 -0.2889
  530ANI     CH 7409   0.275   3.521   0.487  0.0881  0.0824  0.0642
  530ANI     CH 7410   0.239   3.656   0.502  0.1517  0.0976  0.0774
  530ANI     CH 7411   0.161   3.693   0.612  0.3638  0.4164  0.1192
  530ANI     CH 7412   0.135   3.602   0.715  0.2826  0.1490 -0.1397
  530ANI     NH 7413   0.159   3.380   0.800  0.0627  0.1114 -0.2030
  530ANI     HC 7414   0.272   3.325   0.565 -3.5072 -1.0628 -0.7715
  530ANI     HC 7415   0.335   3.495   0.402 -0.3093 -2.5818  0.5465
  530ANI     HC 7416   0.277   3.728   0.431  1.3996  1.5410  2.1524
  530ANI     HC 7417   0.126   3.795   0.623 -1.0075 -0.0272 -0.1015
  530ANI     HC 7418   0.081   3.632   0.804  0.2132 -0.0587 -0.1106
  530ANI     HN 7419   0.083   3.390   0.866  1.0360  0.1907  0.9266
  530ANI     HN 7420   0.179   3.283   0.782 -0.5753  0.0923 -0.8206
  531ANI     CN 7421   1.656   1.393   1.962  0.3312  0.2577  0.3214
  531ANI     CH 7422   1.623   1.462   2.079  0.2977  0.1252  0.3906
  531ANI     CH 7423   1.669   1.420   2.204 -0.0258 -0.5637  0.2795
  531ANI     CH 7424   1.746   1.305   2.220 -0.5265 -0.8989  0.2856
  531ANI     CH 7425   1.774   1.235   2.102 -0.2200 -0.3686  0.0437
  531ANI     CH 7426   1.728   1.273   1.975 -1.1535 -0.6488  0.2921
  531ANI     NH 7427   1.617   1.438   1.842  0.8371  0.1876  0.1288
  531ANI     HC 7428   1.568   1.555   2.076 -1.9527 -1.2186 -1.4365
  531ANI     HC 7429   1.646   1.476   2.293  0.2428 -2.5421  1.6266
  531ANI     HC 7430   1.765   1.277   2.323 -0.9625 -0.2155  0.5552
  531ANI     HC 7431   1.838   1.148   2.107  0.4704  0.1127 -0.2881
  531ANI     HC 7432   1.755   1.206   1.895  1.8398  0.9995 -0.1656
  531ANI     HN 7433   1.658   1.389   1.764  0.0363  0.1239 -0.2522
  531ANI     HN 7434   1.637   1.537   1.838 -0.1688  0.4074  0.4872
  532ANI     CN 7435   3.182   4.563   2.897 -0.3138  0.1848  0.2345
  532ANI     CH 7436   3.085   4.542   2.798 -0.3042  0.2088  0.2204
  532ANI     CH 7437   3.031   4.657   2.738  0.3281  0.1609 -0.4620
  532ANI     CH 7438   3.055   4.784   2.790 -0.3828  0.1785 -0.1601
  532ANI     CH 7439   3.147   4.803   2.894 -0.4574 -0.7009  0.0660
  532ANI     CH 7440   3.210   4.690   2.948  0.2033 -0.0783  0.6061
  532ANI     NH 7441   3.246   4.454   2.942 -0.1948 -0.0538 -0.4968
  532ANI     HC 7442   3.065   4.451   2.744  0.8312  0.7628 -1.1837
  532ANI     HC 7443   2.965   4.637   2.655  1.9493  1.4776 -2.0860
  532ANI     HC 7444   2.992   4.865   2.756  0.5077  3.0952  4.5191
  532ANI     HC 7445   3.160   4.895   2.950  0.5885 -1.1788  0.6327
  532ANI     HC 7446   3.273   4.696   3.036 -1.9515  2.2658  2.0544
  532ANI     HN 7447   3.295   4.469   3.029  0.2848 -0.6444 -0.6604
  532ANI     HN 7448   3.176   4.383   2.955  0.5554 -0.8315 -0.6362
  533ANI     CN 7449   5.523   0.064   2.856  0.1508 -0.3828 -0.0444
  533ANI     CH 7450   5.482   0.193   2.892 -0.2582 -0.4527 -0.2574
  533ANI     CH 7451   5.544   0.260   2.998 -0.6721 -0.2462 -0.1433
  533ANI     CH 7452   5.648   0.199   3.070 -0.4190 -0.1949 -0.4608
  533ANI     CH 7453   5.689   0.073   3.027 -0.2982 -0.4268  0.3344
  533ANI     CH 7454   5.633   0.004   2.919  0.8745  0.2440 -0.7055
  533ANI     NH 7455   5.449  -0.004   2.768 -0.7316  0.1313  0.2959
  533ANI     HC 7456   5.412   0.254   2.836 -0.1361 -0.5945 -0.5644
  533ANI     HC 7457   5.525   0.364   3.019 -0.7312  0.4159 -3.2052
  533ANI     HC 7458   5.704   0.244   3.151  1.6756 -0.8126 -1.5520
  533ANI     HC 7459   5.752   0.015   3.094 -1.2787  0.0021  1.6468
  533ANI     HC 7460   5.653  -0.100   2.902 -1.5750 -0.3964  0.1434
  533ANI     HN 7461   5.502  -0.085   2.740 -1.7739  0.2928 -2.3237
  533ANI     HN 7462   5.424   0.051   2.687 -1.6238  2.0705  1.8378
  534ANI     CN 7463   0.052   5.224   3.378 -0.1737  0.0035  0.3048
  534ANI     CH 7464  -0.007   5.103   3.340  0.0406  0.0829 -0.2900
  534ANI     CH 7465  -0.141   5.079   3.373  0.1044 -0.0161 -0.1006
  534ANI     CH 7466  -0.209   5.168   3.455  0.8933  0.2217  0.3003
  534ANI     CH 7467  -0.148   5.287   3.499  0.2693  0.3658  0.7897
  534ANI     CH 7468  -0.018   5.317   3.457  0.2321  0.1379  0.5082
  534ANI     NH 7469   0.178   5.252   3.344 -0.2495 -0.0114  0.0146
  534ANI     HC 7470   0.053   5.038   3.278 -1.7722  0.2192 -2.2274
  534ANI     HC 7471  -0.199   4.991   3.346 -0.0385 -0.1133  0.5293
  534ANI     HC 7472  -0.314   5.157   3.479  0.4603  0.4753 -1.4297
  534ANI     HC 7473  -0.203   5.360   3.556 -0.5839  2.0454 -2.0718
  534ANI     HC 7474   0.034   5.402   3.497  1.3422 -0.0402 -0.5457
  534ANI     HN 7475   0.234   5.175   3.310 -0.3041 -0.2246  0.4115
  534ANI     HN 7476   0.236   5.298   3.412  0.6601 -1.0945 -0.0073
  535ANI     CN 7477   0.415   4.387   0.452 -0.0150  0.4864  0.1417
  535ANI     CH 7478   0.481   4.408   0.330  0.1713  0.4377  0.2338
  535ANI     CH 7479   0.616   4.374   0.324  0.0353 -0.0777  0.0303
  535ANI     CH 7480   0.689   4.335   0.437 -0.2037  0.0649  0.2360
  535ANI     CH 7481   0.619   4.313   0.556 -0.1988 -0.0730  0.2139
  535ANI     CH 7482   0.480   4.330   0.561 -0.2280 -0.2071 -0.0925
  535ANI     NH 7483   0.285   4.419   0.464  0.1217  0.9986  0.2955
  535ANI     HC 7484   0.422   4.442   0.246 -0.8307  0.2253  0.8344
  535ANI     HC 7485   0.665   4.382   0.228 -0.2976 -1.3690 -0.2483
  535ANI     HC 7486   0.796   4.320   0.426 -0.2346  0.3359 -0.4777
  535ANI     HC 7487   0.678   4.287   0.643 -1.9179 -1.5861  0.9501
  535ANI     HC 7488   0.434   4.308   0.656 -0.1654 -0.1084 -0.0392
  535ANI     HN 7489   0.229   4.434   0.381  0.7341  0.8227 -0.1561
  535ANI     HN 7490   0.259   4.470   0.546 -1.2801  0.5451  0.1405
  536ANI     CN 7491   4.476   1.503   5.353 -0.0835  0.3579  0.0818
  536ANI     CH 7492   4.562   1.494   5.463 -0.2454 -0.0037  0.1805
  536ANI     CH 7493   4.640   1.379   5.479 -0.4752 -0.2071 -0.1396
  536ANI     CH 7494   4.649   1.285   5.376 -0.0397 -0.5766  0.2325
  536ANI     CH 7495   4.575   1.304   5.258 -0.5157  0.1014  0.6384
  536ANI     CH 7496   4.484   1.409   5.248 -0.2341  0.2999  0.1217
  536ANI     NH 7497   4.402   1.614   5.340 -0.1758  0.2004 -0.8211
  536ANI     HC 7498   4.566   1.576   5.533 -1.7630 -0.2211  0.5404
  536ANI     HC 7499   4.701   1.369   5.568  0.1739  1.9904 -0.2908
  536ANI     HC 7500   4.706   1.194   5.389 -0.5352 -0.9984 -0.4812
  536ANI     HC 7501   4.579   1.244   5.169 -1.6886  1.6452 -0.4639
  536ANI     HC 7502   4.421   1.423   5.162 -2.0704 -0.7473  1.2514
  536ANI     HN 7503   4.377   1.663   5.425 -0.8648  0.0251 -0.9268
  536ANI     HN 7504   4.341   1.625   5.261  0.0111  0.5113 -0.9246
  537ANI     CN 7505   2.606   4.644   5.456 -0.1987  0.1995  0.1318
  537ANI     CH 7506   2.695   4.729   5.523  0.0718  0.2657 -0.3075
  537ANI     CH 7507   2.647   4.822   5.616 -0.4765 -0.3233  0.0076
  537ANI     CH 7508   2.513   4.815   5.654 -0.3122  0.2498  0.7155
  537ANI     CH 7509   2.428   4.715   5.603 -0.0123  0.3348  0.0326
  537ANI     CH 7510   2.472   4.638   5.496 -0.2521  0.2895 -0.0339
  537ANI     NH 7511   2.653   4.562   5.360 -0.0232 -0.3014  0.6422
  537ANI     HC 7512   2.800   4.728   5.499 -0.5657 -1.2949 -3.2580
  537ANI     HC 7513   2.705   4.903   5.657 -1.8296  1.8417 -2.2313
  537ANI     HC 7514   2.480   4.891   5.723 -0.7679  0.7941 -0.0896
  537ANI     HC 7515   2.331   4.707   5.651  0.4622 -0.0218  0.9541
  537ANI     HC 7516   2.406   4.566   5.449  0.4270 -1.0294  0.9987
  537ANI     HN 7517   2.592   4.483   5.342 -0.4329 -0.3533  2.1092
  537ANI     HN 7518   2.746   4.527   5.373 -0.1263 -0.8723 -0.1254
  538ANI     CN 7519   1.889   1.761   1.594  0.5074 -0.3924 -0.0885
  538ANI     CH 7520   1.766   1.751   1.661  0.5306  0.3244  0.0578
  538ANI     CH 7521   1.644   1.765   1.595  0.5150  0.3115  0.0839
  538ANI     CH 7522   1.648   1.792   1.458 -0.3242 -0.6874 -0.1473
  538ANI     CH 7523   1.767   1.800   1.385  0.0369 -0.7102  0.4432
  538ANI     CH 7524   1.887   1.789   1.457  0.3890 -0.3899 -0.0863
  538ANI     NH 7525   2.003   1.736   1.660  0.3846 -0.1187  0.2267
  538ANI     HC 7526   1.763   1.736   1.768  0.4588 -2.9169 -0.3547
  538ANI     HC 7527   1.546   1.755   1.640 -0.1919 -0.2908 -1.5182
  538ANI     HC 7528   1.552   1.790   1.408 -1.9186 -0.6923  2.8373
  538ANI     HC 7529   1.772   1.820   1.279 -3.3948  1.5905  0.6227
  538ANI     HC 7530   1.975   1.791   1.395 -0.0368 -1.3018 -0.7330
  538ANI     HN 7531   2.005   1.768   1.756 -2.6059 -0.8407  0.5635
  538ANI     HN 7532   2.094   1.746   1.619  0.0814 -2.0610 -0.9860
  539ANI     CN 7533   4.015   1.449   3.542  0.1962 -0.3292  0.1391
  539ANI     CH 7534   3.978   1.365   3.648 -0.3277  0.0753  0.2823
  539ANI     CH 7535   3.978   1.227   3.623  0.7445  0.1697 -0.2540
  539ANI     CH 7536   4.009   1.172   3.498  0.9033  0.2049 -0.2304
  539ANI     CH 7537   4.035   1.259   3.391 -0.6603  0.0384 -0.7474
  539ANI     CH 7538   4.031   1.397   3.413  0.3645 -0.0569  0.0501
  539ANI     NH 7539   4.004   1.581   3.562 -0.0599 -0.1574 -1.0834
  539ANI     HC 7540   3.952   1.405   3.745 -2.2125  0.9272 -0.5601
  539ANI     HC 7541   3.964   1.161   3.707 -0.1477  0.7676  0.0710
  539ANI     HC 7542   4.001   1.067   3.472 -1.4007  0.9480 -2.6972
  539ANI     HC 7543   4.056   1.222   3.292 -2.4427 -0.5434 -0.9415
  539ANI     HC 7544   4.037   1.462   3.327 -0.9411 -0.2261 -0.1734
  539ANI     HN 7545   4.034   1.606   3.655 -0.1370 -0.5716 -0.9429
  539ANI     HN 7546   4.038   1.645   3.493  2.1380 -1.2568 -1.0385
  540ANI     CN 7547   6.095   2.580   2.976  0.2115 -0.1898 -0.6447
  540ANI     CH 7548   5.992   2.577   2.881  0.0127 -0.1567 -0.4315
  540ANI     CH 7549   5.991   2.672   2.778  0.4242  0.3192 -0.0058
  540ANI     CH 7550   6.093   2.767   2.771  0.5779  0.1413 -0.2064
  540ANI     CH 7551   6.181   2.779   2.880  0.1590 -0.0297  0.1529
  540ANI     CH 7552   6.182   2.689   2.987 -0.2137  0.0676  0.2391
  540ANI     NH 7553   6.119   2.476   3.057  0.3205  0.0122 -0.4160
  540ANI     HC 7554   5.927   2.491   2.884  2.1521 -1.7933  1.0372
  540ANI     HC 7555   5.914   2.675   2.702  0.4005 -2.4149 -0.1606
  540ANI     HC 7556   6.099   2.831   2.684  2.1790 -2.5891 -2.1867
  540ANI     HC 7557   6.262   2.848   2.864 -0.2790  0.4659  0.0554
  540ANI     HC 7558   6.266   2.699   3.054 -0.2248 -0.0602  0.2707
  540ANI     HN 7559   6.158   2.498   3.147 -0.6786 -1.8332  0.5114
  540ANI     HN 7560   6.040   2.413   3.062  0.1648  0.2646  0.5279
  541ANI     CN 7561   2.120   5.203   1.023  0.2214  0.2025 -0.1033
  541ANI     CH 7562   2.014   5.190   0.931 -0.1450  0.0328  0.3412
  541ANI     CH 7563   1.922   5.086   0.948  0.0645 -0.2172 -0.0449
  541ANI     CH 7564   1.939   4.995   1.052  0.3910 -0.4533 -0.3040
  541ANI     CH 7565   2.050   5.004   1.138  0.1575  0.2925 -0.0737
  541ANI     CH 7566   2.137   5.113   1.129  0.2424  0.2236 -0.0882
  541ANI     NH 7567   2.208   5.301   0.998  0.2477  0.2755  0.2804
  541ANI     HC 7568   2.016   5.247   0.840 -1.1916  3.1014  2.1885
  541ANI     HC 7569   1.847   5.069   0.872  2.6123  0.3560 -2.7705
  541ANI     HC 7570   1.880   4.905   1.046 -1.3449  0.6934 -0.6968
  541ANI     HC 7571   2.059   4.932   1.218 -0.2047  0.6725  0.3114
  541ANI     HC 7572   2.223   5.117   1.194 -0.5927 -3.6131  1.3779
  541ANI     HN 7573   2.205   5.379   1.062 -1.7964  1.0036 -0.6682
  541ANI     HN 7574   2.189   5.340   0.907 -0.0115  0.8326  0.5728
  542ANI     CN 7575   3.003   0.453   3.016  0.3587  0.3459 -0.1659
  542ANI     CH 7576   2.940   0.333   2.980  0.4102  0.2613  0.0263
  542ANI     CH 7577   2.945   0.296   2.845  0.0997  0.4758 -0.0428
  542ANI     CH 7578   2.995   0.381   2.746 -0.1505  0.4600 -0.1842
  542ANI     CH 7579   3.056   0.502   2.784 -0.0614  0.4364 -0.2499
  542ANI     CH 7580   3.060   0.537   2.919  0.1178  0.4124 -0.2486
  542ANI     NH 7581   3.002   0.481   3.147  0.0717 -0.3203 -0.0247
  542ANI     HC 7582   2.903   0.271   3.060  0.2809 -0.6528 -0.7306
  542ANI     HC 7583   2.902   0.199   2.824  0.6452 -0.0807  1.3854
  542ANI     HC 7584   2.986   0.346   2.644  3.7607  0.2807 -0.5791
  542ANI     HC 7585   3.092   0.561   2.700  0.0489  2.0556  0.9174
  542ANI     HC 7586   3.099   0.633   2.950 -1.1028  0.7937  0.1298
  542ANI     HN 7587   3.003   0.582   3.150  1.9442 -0.3500  1.3816
  542ANI     HN 7588   2.917   0.450   3.193  0.1185 -2.4621 -1.2971
  543ANI     CN 7589   5.303   0.117   2.069  0.3466 -0.3629  0.2885
  543ANI     CH 7590   5.223   0.112   2.184  0.0925  0.2132  0.1392
  543ANI     CH 7591   5.156  -0.007   2.216  0.2722  0.1211  0.1705
  543ANI     CH 7592   5.174  -0.126   2.144 -0.1440  0.3934 -0.3852
  543ANI     CH 7593   5.259  -0.122   2.033 -0.0091 -0.7099 -0.3212
  543ANI     CH 7594   5.320  -0.001   1.997 -0.1245 -0.4557  0.3286
  543ANI     NH 7595   5.366   0.231   2.040 -0.3825  0.2324  0.9921
  543ANI     HC 7596   5.222   0.195   2.253  1.7094  0.9731 -0.7447
  543ANI     HC 7597   5.082  -0.003   2.294 -1.3386 -1.7072 -1.2352
  543ANI     HC 7598   5.122  -0.216   2.172 -1.1267  1.5643  1.6367
  543ANI     HC 7599   5.277  -0.208   1.969  1.0052 -0.2605 -0.6565
  543ANI     HC 7600   5.375   0.005   1.904 -1.2875 -0.6857 -0.3882
  543ANI     HN 7601   5.317   0.318   2.053  1.3765  1.1912  1.4283
  543ANI     HN 7602   5.402   0.243   1.946 -1.1556  3.0691  1.0157
  544ANI     CN 7603   0.250   2.504   4.509  0.2860  0.0908  0.4136
  544ANI     CH 7604   0.179   2.623   4.491  0.3598 -0.0370 -0.7375
  544ANI     CH 7605   0.252   2.741   4.472  0.2754  0.1941  0.3273
  544ANI     CH 7606   0.392   2.741   4.476  0.2917  0.3362 -0.1710
  544ANI     CH 7607   0.461   2.621   4.499  0.2763  0.3162 -0.2300
  544ANI     CH 7608   0.390   2.501   4.512  0.2916  0.3797  0.4752
  544ANI     NH 7609   0.187   2.386   4.517  0.3369  0.1058  1.0770
  544ANI     HC 7610   0.071   2.626   4.489  0.2926 -0.2510  1.5535
  544ANI     HC 7611   0.221   2.838   4.438  1.1365  0.3693  0.0069
  544ANI     HC 7612   0.442   2.836   4.459 -2.3103  1.5923 -0.9872
  544ANI     HC 7613   0.568   2.612   4.503 -0.0613 -3.8929  1.4432
  544ANI     HC 7614   0.437   2.404   4.524  0.9837  0.5670 -0.6544
  544ANI     HN 7615   0.242   2.325   4.576 -0.8135 -2.7002 -0.6604
  544ANI     HN 7616   0.089   2.383   4.540  0.1291  1.3006  0.3830
  545ANI     CN 7617   0.386   3.429   4.388 -0.2355 -0.2138 -0.3823
  545ANI     CH 7618   0.369   3.303   4.330  0.4096 -0.3148 -0.3574
  545ANI     CH 7619   0.339   3.188   4.404 -0.1611 -0.0603 -0.1879
  545ANI     CH 7620   0.327   3.197   4.543  0.7604  0.0355 -0.1131
  545ANI     CH 7621   0.342   3.322   4.604  0.0415  0.0662 -0.0039
  545ANI     CH 7622   0.367   3.436   4.527  0.6486 -0.2413 -0.2593
  545ANI     NH 7623   0.409   3.541   4.319 -0.5066 -0.1694 -0.3991
  545ANI     HC 7624   0.382   3.300   4.222  1.1114  1.5187 -0.3379
  545ANI     HC 7625   0.309   3.097   4.355  1.0966 -1.1837  1.0823
  545ANI     HC 7626   0.287   3.116   4.602  0.5814  1.2077  1.4325
  545ANI     HC 7627   0.329   3.338   4.710  0.8844  2.3556 -0.2235
  545ANI     HC 7628   0.374   3.532   4.575  0.8129 -0.0990 -0.5646
  545ANI     HN 7629   0.437   3.621   4.374  1.0890  0.2766 -1.8165
  545ANI     HN 7630   0.483   3.529   4.251 -0.5102 -0.5379 -0.3370
  546ANI     CN 7631   4.800   2.848   4.148  0.4012 -0.0362  0.4620
  546ANI     CH 7632   4.842   2.763   4.045  0.4470  0.1218  0.3527
  546ANI     CH 7633   4.878   2.814   3.919  0.2086  0.2429  0.3309
  546ANI     CH 7634   4.862   2.949   3.888 -0.1920  0.1022 -0.0738
  546ANI     CH 7635   4.816   3.034   3.990  0.1624  0.2533 -0.0394
  546ANI     CH 7636   4.791   2.984   4.118  0.1769 -0.2000 -0.2119
  546ANI     NH 7637   4.774   2.799   4.270 -0.4550 -0.3269  0.1632
  546ANI     HC 7638   4.861   2.658   4.056  0.0540 -0.2589 -2.2636
  546ANI     HC 7639   4.927   2.753   3.845 -1.5903  1.2796 -1.7479
  546ANI     HC 7640   4.906   2.988   3.797  0.4969  1.1982  0.7019
  546ANI     HC 7641   4.815   3.140   3.968  0.8980  0.8256  2.5798
  546ANI     HC 7642   4.752   3.050   4.194 -1.8398 -0.8910 -0.5988
  546ANI     HN 7643   4.708   2.857   4.319  0.3340  0.1152  0.7054
  546ANI     HN 7644   4.746   2.703   4.286  2.0238 -1.1535 -0.2751
  547ANI     CN 7645   4.847   5.973   1.404  0.1594 -0.4268 -0.0761
  547ANI     CH 7646   4.848   5.883   1.511  0.3240 -0.0187  0.2662
  547ANI     CH 7647   4.972   5.826   1.543  0.3901 -0.2857 -0.4656
  547ANI     CH 7648   5.087   5.855   1.468  0.3080  0.0813 -0.4496
  547ANI     CH 7649   5.077   5.948   1.364 -0.3816 -0.0935 -0.5449
  547ANI     CH 7650   4.959   6.014   1.329 -0.3541 -0.1120 -0.6791
  547ANI     NH 7651   4.732   6.035   1.372  0.4903  0.3120  0.1348
  547ANI     HC 7652   4.755   5.869   1.563  0.2612  1.5978  0.6423
  547ANI     HC 7653   4.968   5.758   1.626 -0.3629 -1.9318 -1.8003
  547ANI     HC 7654   5.172   5.791   1.484  0.4221  0.4063  0.2653
  547ANI     HC 7655   5.164   5.955   1.299  0.1931 -1.9821 -0.0147
  547ANI     HC 7656   4.947   6.079   1.244 -0.7161  0.2563 -0.3460
  547ANI     HN 7657   4.729   6.115   1.311 -0.8832 -1.0595 -1.6312
  547ANI     HN 7658   4.640   6.022   1.411  0.0986 -2.6974 -1.5714
  548ANI     CN 7659   0.722   4.789   0.427  0.0509  0.1938 -0.1995
  548ANI     CH 7660   0.822   4.886   0.410  0.1614  0.0511 -0.3722
  548ANI     CH 7661   0.871   4.918   0.283  0.7651  0.3424 -0.0670
  548ANI     CH 7662   0.804   4.870   0.170  0.0393 -0.0065  0.5044
  548ANI     CH 7663   0.699   4.779   0.185 -0.0490 -0.0667 -0.4588
  548ANI     CH 7664   0.663   4.734   0.312  0.1439  0.2738 -0.2852
  548ANI     NH 7665   0.675   4.752   0.547  0.2940 -0.4071 -0.2861
  548ANI     HC 7666   0.873   4.929   0.495 -0.0285  0.1602 -0.3134
  548ANI     HC 7667   0.952   4.989   0.274  1.6022 -0.5423  0.5122
  548ANI     HC 7668   0.843   4.903   0.075 -2.1970  1.4644  0.0647
  548ANI     HC 7669   0.648   4.740   0.098 -1.4575 -3.1457  1.6756
  548ANI     HC 7670   0.584   4.662   0.322 -0.2653  1.0006  2.2842
  548ANI     HN 7671   0.641   4.657   0.543  0.8698 -0.5980 -0.7289
  548ANI     HN 7672   0.748   4.745   0.616 -0.1941 -2.9891  0.0292
  549ANI     CN 7673   3.759   4.077   0.743  0.2568 -0.0705 -0.0824
  549ANI     CH 7674   3.861   4.128   0.662  0.3925 -0.1189  0.0555
  549ANI     CH 7675   3.823   4.237   0.582 -0.0596 -0.1946  0.1644
  549ANI     CH 7676   3.694   4.291   0.581  0.2717  0.6035  0.5992
  549ANI     CH 7677   3.596   4.238   0.665 -0.1345 -0.1947 -0.3727
  549ANI     CH 7678   3.629   4.128   0.745  0.3277  0.1141 -0.1369
  549ANI     NH 7679   3.790   3.990   0.841 -0.0750 -0.4438 -0.3083
  549ANI     HC 7680   3.961   4.089   0.650  0.4902 -0.2673  1.2625
  549ANI     HC 7681   3.895   4.273   0.509 -1.0824  3.4726  0.8959
  549ANI     HC 7682   3.678   4.370   0.509 -0.4383  0.2417  0.3607
  549ANI     HC 7683   3.496   4.279   0.679 -0.8336 -1.4569 -1.5752
  549ANI     HC 7684   3.550   4.076   0.796 -1.1865  3.1095  0.6315
  549ANI     HN 7685   3.860   3.928   0.803  0.7132  0.4919 -0.4089
  549ANI     HN 7686   3.713   3.928   0.860 -1.2644  0.6487 -1.5303
  550ANI     CN 7687   3.722   3.845   3.680  0.0919 -0.0757 -0.3103
  550ANI     CH 7688   3.781   3.760   3.586  0.3868  0.0777 -0.2639
  550ANI     CH 7689   3.703   3.658   3.529 -0.3497  0.2709  0.3914
  550ANI     CH 7690   3.569   3.647   3.565 -0.3920 -0.3140  0.0613
  550ANI     CH 7691   3.510   3.740   3.653 -0.0422 -0.0470  0.0124
  550ANI     CH 7692   3.587   3.839   3.715 -0.0498  0.4569 -0.7815
  550ANI     NH 7693   3.797   3.935   3.745 -0.5892  0.1165  0.2150
  550ANI     HC 7694   3.885   3.767   3.557  0.1840  0.7271 -0.8446
  550ANI     HC 7695   3.756   3.583   3.471 -0.5900  1.1430 -0.9927
  550ANI     HC 7696   3.510   3.571   3.516  0.4339 -0.6930 -0.3423
  550ANI     HC 7697   3.403   3.736   3.666 -0.1825  1.5476 -0.5763
  550ANI     HC 7698   3.554   3.918   3.781 -1.2633  1.2607 -2.3046
  550ANI     HN 7699   3.738   4.007   3.785 -2.8707 -0.5034 -1.9148
  550ANI     HN 7700   3.864   3.984   3.687 -1.2823  0.2972 -0.4491
  551ANI     CN 7701   4.454   1.370   4.423  0.2630  0.1472  0.1245
  551ANI     CH 7702   4.576   1.385   4.491 -0.0415  0.2010  0.6598
  551ANI     CH 7703   4.694   1.405   4.420 -0.2913 -0.0911  0.1531
  551ANI     CH 7704   4.690   1.420   4.281 -0.3237 -0.3198  0.1291
  551ANI     CH 7705   4.569   1.416   4.211 -0.3663 -0.0078  0.1809
  551ANI     CH 7706   4.452   1.402   4.287 -0.4068  0.5134  0.2170
  551ANI     NH 7707   4.347   1.331   4.494  0.2242  0.0362  0.0066
  551ANI     HC 7708   4.585   1.382   4.598 -0.9481 -1.7523  0.7212
  551ANI     HC 7709   4.788   1.409   4.474  0.3689 -3.1488 -0.6884
  551ANI     HC 7710   4.781   1.444   4.228  0.7093 -1.9977  1.0943
  551ANI     HC 7711   4.569   1.422   4.103 -0.4025 -0.9192  0.1248
  551ANI     HC 7712   4.365   1.374   4.229  0.9023 -2.3326 -0.4691
  551ANI     HN 7713   4.393   1.276   4.565 -0.4689 -0.8379 -0.2202
  551ANI     HN 7714   4.276   1.279   4.446  0.2285  0.4109 -0.4085
  552ANI     CN 7715   5.669   4.342   2.827 -0.1988  0.1522  0.1880
  552ANI     CH 7716   5.554   4.307   2.756 -0.4855  0.7036  0.3806
  552ANI     CH 7717   5.543   4.329   2.618 -0.0338 -0.0776  0.2183
  552ANI     CH 7718   5.655   4.376   2.548 -0.2052  0.2927  0.1930
  552ANI     CH 7719   5.769   4.411   2.621  0.1971 -0.3701 -0.1168
  552ANI     CH 7720   5.781   4.393   2.759 -0.2745  0.0321 -0.0255
  552ANI     NH 7721   5.682   4.318   2.958 -0.1105  0.2052  0.1889
  552ANI     HC 7722   5.475   4.247   2.799  0.2574 -0.7248 -0.2049
  552ANI     HC 7723   5.453   4.305   2.563  0.4277 -1.7515  0.1517
  552ANI     HC 7724   5.656   4.389   2.441 -2.3197  1.4123  0.2824
  552ANI     HC 7725   5.857   4.454   2.575 -0.7129 -0.0366 -1.5669
  552ANI     HC 7726   5.868   4.431   2.811  1.4458  0.9425 -3.4356
  552ANI     HN 7727   5.735   4.387   3.009  0.0784  0.4017 -0.2727
  552ANI     HN 7728   5.594   4.307   3.006  0.5261 -1.9209  0.9551
  553ANI     CN 7729   4.979   5.735   2.076 -0.6188 -0.1932  0.0626
  553ANI     CH 7730   4.973   5.597   2.094  0.4047 -0.2451  0.0601
  553ANI     CH 7731   4.893   5.535   2.191  0.0007  0.1697 -0.0058
  553ANI     CH 7732   4.816   5.615   2.276  0.1217  0.0860  0.1846
  553ANI     CH 7733   4.825   5.754   2.260 -0.1600  0.1046  0.1891
  553ANI     CH 7734   4.903   5.816   2.161  0.0988  0.1271  0.4091
  553ANI     NH 7735   5.047   5.796   1.977  0.6886 -0.4496  0.7816
  553ANI     HC 7736   5.025   5.534   2.024 -1.9756 -1.1882 -0.9152
  553ANI     HC 7737   4.881   5.428   2.196  0.6831  0.0690 -0.4055
  553ANI     HC 7738   4.759   5.579   2.361  0.4243  3.7108  2.0465
  553ANI     HC 7739   4.767   5.824   2.319 -0.1085  0.7499 -0.5150
  553ANI     HC 7740   4.894   5.922   2.142  0.1547 -0.2166 -1.6424
  553ANI     HN 7741   5.105   5.734   1.922  0.6594  1.7624 -1.8555
  553ANI     HN 7742   5.025   5.885   1.934  0.8073 -1.2524 -1.0041
  554ANI     CN 7743   4.565   0.293   0.925  0.1266 -0.1280  0.2339
  554ANI     CH 7744   4.428   0.276   0.946 -0.0091  0.4747 -0.1447
  554ANI     CH 7745   4.362   0.168   0.888  0.1200  0.0793  0.4360
  554ANI     CH 7746   4.429   0.087   0.796  0.2650 -0.1277  0.7237
  554ANI     CH 7747   4.562   0.117   0.760 -0.0256 -0.2440 -0.4906
  554ANI     CH 7748   4.633   0.216   0.829 -0.5008 -0.0455 -0.2803
  554ANI     NH 7749   4.636   0.377   1.001 -0.3504  0.6446 -0.1776
  554ANI     HC 7750   4.376   0.333   1.022 -0.6006  1.1134 -1.0283
  554ANI     HC 7751   4.262   0.149   0.925  0.1822  1.3254  1.2430
  554ANI     HC 7752   4.378   0.006   0.746 -1.3062  1.2894 -0.0193
  554ANI     HC 7753   4.614   0.056   0.688 -0.4699 -0.1759 -0.8688
  554ANI     HC 7754   4.739   0.225   0.813 -0.4089  0.6343  0.6763
  554ANI     HN 7755   4.585   0.398   1.086  0.1782  0.4166  0.1901
  554ANI     HN 7756   4.731   0.344   1.008 -0.3637  0.3581 -1.3215
  555ANI     CN 7757   2.836   3.896   1.533 -0.4273  0.2458  0.3721
  555ANI     CH 7758   2.701   3.859   1.525 -0.5328  0.6915  0.0352
  555ANI     CH 7759   2.629   3.863   1.405 -0.4648  0.2235 -0.0226
  555ANI     CH 7760   2.697   3.917   1.296 -0.1724 -0.2674 -0.0812
  555ANI     CH 7761   2.826   3.972   1.306 -0.0335 -0.5809 -0.1356
  555ANI     CH 7762   2.898   3.962   1.426 -0.6395  0.3665  0.3214
  555ANI     NH 7763   2.897   3.888   1.651 -0.4435  0.1110  0.3708
  555ANI     HC 7764   2.660   3.801   1.606 -0.8409  2.2108  0.9806
  555ANI     HC 7765   2.530   3.819   1.402 -0.6720  0.7243 -0.6234
  555ANI     HC 7766   2.652   3.919   1.198 -0.8903 -0.4280  0.2481
  555ANI     HC 7767   2.873   4.016   1.219 -1.4427  0.2294 -0.5089
  555ANI     HC 7768   2.997   4.002   1.440  0.2562 -1.9242  0.8219
  555ANI     HN 7769   2.991   3.923   1.667 -0.1393 -1.0513  1.2284
  555ANI     HN 7770   2.867   3.830   1.728 -0.3483  1.2303  1.2681
  556ANI     CN 7771   3.318   4.585   0.494  0.3335 -0.3654  0.2966
  556ANI     CH 7772   3.239   4.659   0.583  0.4280  0.1115 -0.0174
  556ANI     CH 7773   3.293   4.702   0.705  0.1276  0.4740 -0.0138
  556ANI     CH 7774   3.425   4.672   0.738  0.0080 -0.1580 -0.1083
  556ANI     CH 7775   3.500   4.590   0.652  0.5305  0.1417  0.0547
  556ANI     CH 7776   3.453   4.559   0.524  0.3533 -0.3353  0.2321
  556ANI     NH 7777   3.268   4.558   0.373 -0.7256  0.2649  0.5944
  556ANI     HC 7778   3.142   4.697   0.556  1.2491  1.7510 -0.7789
  556ANI     HC 7779   3.229   4.763   0.767  0.4409  0.4676  0.3145
  556ANI     HC 7780   3.463   4.702   0.834  0.7829 -1.8101  0.1200
  556ANI     HC 7781   3.598   4.557   0.682 -0.1668 -0.3752  1.8211
  556ANI     HC 7782   3.519   4.526   0.445 -0.1461  0.8418 -0.7039
  556ANI     HN 7783   3.237   4.637   0.318  3.4270  0.9414 -0.9312
  556ANI     HN 7784   3.316   4.499   0.307  0.8978  0.9733  1.1368
  557ANI     CN 7785   5.411   5.214   6.011  0.3120 -0.0247  0.1973
  557ANI     CH 7786   5.355   5.189   5.885  0.3323  0.5258  0.0755
  557ANI     CH 7787   5.440   5.180   5.774 -0.1582  0.0357 -0.2614
  557ANI     CH 7788   5.579   5.191   5.788 -0.1932  0.2651 -0.0891
  557ANI     CH 7789   5.630   5.223   5.914 -0.1871  0.4304 -0.1339
  557ANI     CH 7790   5.548   5.238   6.026  0.2611  0.2447  0.2193
  557ANI     NH 7791   5.339   5.206   6.123 -0.0351  0.3224 -0.0026
  557ANI     HC 7792   5.250   5.171   5.866 -0.1748  1.0293  2.3074
  557ANI     HC 7793   5.391   5.168   5.678 -0.9101  0.9783 -0.0007
  557ANI     HC 7794   5.633   5.172   5.696 -2.0095  0.3324 -1.2027
  557ANI     HC 7795   5.736   5.237   5.931 -0.3120  1.5231 -0.2639
  557ANI     HC 7796   5.595   5.251   6.123  3.1424  1.6870 -1.3047
  557ANI     HN 7797   5.366   5.282   6.185  1.0395 -0.8788  1.0182
  557ANI     HN 7798   5.242   5.217   6.094 -0.2141 -1.1636 -0.0075
  558ANI     CN 7799   0.079   0.573   0.934 -0.3757  0.0022 -0.1969
  558ANI     CH 7800   0.007   0.645   0.838 -0.0612 -0.1753 -0.5718
  558ANI     CH 7801   0.077   0.715   0.739  0.0526  0.4075 -0.0804
  558ANI     CH 7802   0.216   0.728   0.749  0.0655 -0.1239  0.4936
  558ANI     CH 7803   0.287   0.663   0.851  0.6399  0.1343  0.2631
  558ANI     CH 7804   0.218   0.583   0.943 -0.4161  0.5474 -0.1521
  558ANI     NH 7805   0.016   0.502   1.029  0.1499  0.6516  0.6413
  558ANI     HC 7806  -0.101   0.644   0.834 -0.2223  0.1911  2.5966
  558ANI     HC 7807   0.021   0.761   0.659  0.5198  0.2946 -0.4713
  558ANI     HC 7808   0.269   0.777   0.669  0.2290 -1.3333 -0.1543
  558ANI     HC 7809   0.395   0.669   0.846  0.6130  3.6515  2.6679
  558ANI     HC 7810   0.281   0.533   1.016 -0.4556 -0.3715 -0.7362
  558ANI     HN 7811  -0.082   0.484   1.013 -0.1466 -0.8804  3.8916
  558ANI     HN 7812   0.059   0.419   1.067 -0.3268 -0.6369 -1.5075
  559ANI     CN 7813   4.039   0.738   0.354  0.1050  0.4476 -0.1474
  559ANI     CH 7814   3.953   0.713   0.461  0.3823  0.2048  0.0176
  559ANI     CH 7815   3.973   0.767   0.589  0.5537 -0.5144  0.3009
  559ANI     CH 7816   4.087   0.846   0.609 -0.0087  0.3877 -0.0155
  559ANI     CH 7817   4.180   0.866   0.506 -0.1147  0.6242 -0.0674
  559ANI     CH 7818   4.155   0.811   0.379 -0.1641  0.8885 -0.1719
  559ANI     NH 7819   4.006   0.700   0.230  0.1923  0.1719 -0.0859
  559ANI     HC 7820   3.865   0.652   0.443  0.7671 -0.9098  1.7034
  559ANI     HC 7821   3.903   0.745   0.668  2.1255  0.7144  2.0834
  559ANI     HC 7822   4.086   0.905   0.699  0.4824  0.7515 -0.2418
  559ANI     HC 7823   4.252   0.946   0.514  1.1005 -0.4204 -0.3040
  559ANI     HC 7824   4.223   0.834   0.298 -1.1293 -0.9916 -1.5509
  559ANI     HN 7825   4.077   0.693   0.158 -0.8754  1.7583 -1.3391
  559ANI     HN 7826   3.948   0.617   0.235  0.4973  0.0254  1.4168
  560ANI     CN 7827   5.144   3.491   0.204 -0.4055 -0.5833 -0.0776
  560ANI     CH 7828   5.008   3.496   0.172 -0.3866 -0.1662 -0.0969
  560ANI     CH 7829   4.963   3.541   0.047 -0.1891  0.4361  0.0490
  560ANI     CH 7830   5.058   3.578  -0.049  0.1229 -0.4311  0.0171
  560ANI     CH 7831   5.195   3.574  -0.018  0.1497  0.0239 -0.0389
  560ANI     CH 7832   5.238   3.530   0.108 -0.3993 -0.3665  0.0170
  560ANI     NH 7833   5.186   3.470   0.330  0.0384  0.5546 -0.0322
  560ANI     HC 7834   4.929   3.459   0.236 -1.2320 -0.1169 -1.0853
  560ANI     HC 7835   4.859   3.557   0.025  0.0352  0.0229 -1.3478
  560ANI     HC 7836   5.030   3.604  -0.150  1.1690  1.8391  0.2760
  560ANI     HC 7837   5.270   3.599  -0.091  0.5344 -0.1906  0.2801
  560ANI     HC 7838   5.345   3.539   0.123 -0.3832 -0.3630 -0.1009
  560ANI     HN 7839   5.137   3.394   0.375  0.5316  0.4039  0.2457
  560ANI     HN 7840   5.283   3.446   0.336  0.3021  1.2950 -1.0814
  561ANI     CN 7841   6.267   1.502   2.732  0.8949  0.3488 -0.1148
  561ANI     CH 7842   6.330   1.380   2.705 -0.1528 -0.2052 -0.0679
  561ANI     CH 7843   6.282   1.297   2.603  0.1302  0.2118 -0.5407
  561ANI     CH 7844   6.177   1.347   2.524 -0.4878 -0.0917  0.0773
  561ANI     CH 7845   6.124   1.476   2.537 -0.6371 -0.1571  0.1127
  561ANI     CH 7846   6.178   1.556   2.638  0.1354 -0.5954  0.0559
  561ANI     NH 7847   6.316   1.587   2.823  0.4764  0.3087  0.1502
  561ANI     HC 7848   6.413   1.341   2.762  0.3079 -1.0654 -1.2924
  561ANI     HC 7849   6.321   1.197   2.592 -1.3646 -0.3734 -0.6514
  561ANI     HC 7850   6.148   1.289   2.438 -1.1319  0.4977 -0.1063
  561ANI     HC 7851   6.042   1.501   2.471  0.6952 -1.5052 -2.1419
  561ANI     HC 7852   6.133   1.655   2.645  2.3858  0.3356  1.9827
  561ANI     HN 7853   6.363   1.538   2.898  1.8038  1.3604  0.0242
  561ANI     HN 7854   6.233   1.626   2.865  0.8642  0.4167  0.8145
  562ANI     CN 7855   2.202   0.730   0.485  0.1587 -0.1870  0.3206
  562ANI     CH 7856   2.177   0.830   0.579 -0.3429 -0.4950  0.5145
  562ANI     CH 7857   2.255   0.844   0.695  0.0491 -0.7087  0.2777
  562ANI     CH 7858   2.353   0.747   0.719  0.4877 -0.2614  0.2895
  562ANI     CH 7859   2.379   0.644   0.628  0.0936 -0.0662 -0.0475
  562ANI     CH 7860   2.303   0.635   0.511  0.3735 -0.1093 -0.2280
  562ANI     NH 7861   2.128   0.720   0.375 -0.1716  0.1063  0.5162
  562ANI     HC 7862   2.099   0.898   0.549  0.2372 -0.5417 -1.1535
  562ANI     HC 7863   2.231   0.921   0.767 -0.8678 -1.4318  0.7513
  562ANI     HC 7864   2.410   0.757   0.810  1.6405  0.5274 -0.5022
  562ANI     HC 7865   2.462   0.577   0.640  0.5671  0.7142  1.1135
  562ANI     HC 7866   2.318   0.551   0.445 -0.0704 -0.1236 -0.3183
  562ANI     HN 7867   2.039   0.769   0.373  0.2574  0.8730 -0.8308
  562ANI     HN 7868   2.125   0.628   0.333  0.4737 -0.0143  0.7279
  563ANI     CN 7869   5.503   4.579   0.890 -0.0604  0.3671  0.3472
  563ANI     CH 7870   5.640   4.582   0.864  0.0187  0.1417  0.7317
  563ANI     CH 7871   5.684   4.602   0.732  0.0084  0.0991  0.7220
  563ANI     CH 7872   5.593   4.618   0.627  0.2095  0.7688  0.6434
  563ANI     CH 7873   5.456   4.614   0.654  0.2219  0.4833  0.6645
  563ANI     CH 7874   5.411   4.596   0.786 -0.2416 -0.1107  0.4269
  563ANI     NH 7875   5.455   4.542   1.010 -1.0987 -0.5554 -0.3387
  563ANI     HC 7876   5.712   4.554   0.939  2.1205 -0.8900 -1.6035
  563ANI     HC 7877   5.790   4.591   0.711 -0.5638 -2.6047 -0.8674
  563ANI     HC 7878   5.633   4.624   0.527 -0.2892  0.2861  0.4150
  563ANI     HC 7879   5.379   4.624   0.579  0.5284 -0.8261  0.1662
  563ANI     HC 7880   5.303   4.593   0.798 -0.5116 -0.2709 -1.7750
  563ANI     HN 7881   5.406   4.454   1.005 -1.5737 -0.4290  1.7565
  563ANI     HN 7882   5.532   4.532   1.074 -0.2813  1.3060 -0.9861
  564ANI     CN 7883   2.411   0.597   3.368 -0.0312  0.7315  0.4218
  564ANI     CH 7884   2.484   0.673   3.460  0.4322  0.1435  0.5450
  564ANI     CH 7885   2.546   0.794   3.425  0.3392 -0.0883 -0.4334
  564ANI     CH 7886   2.531   0.847   3.296  0.4468 -0.0854 -0.4448
  564ANI     CH 7887   2.459   0.773   3.201  0.4343 -0.3929 -0.1979
  564ANI     CH 7888   2.400   0.652   3.239  0.0120 -0.1058  0.0558
  564ANI     NH 7889   2.351   0.480   3.391  0.7461  0.1954 -0.2348
  564ANI     HC 7890   2.498   0.635   3.560  1.0974  2.9947  1.6007
  564ANI     HC 7891   2.593   0.858   3.498 -1.3430  1.7978 -0.9685
  564ANI     HC 7892   2.576   0.942   3.276  2.3037 -0.9591 -0.4962
  564ANI     HC 7893   2.450   0.823   3.106  1.1355  1.0656  0.4916
  564ANI     HC 7894   2.348   0.589   3.168 -1.2421  0.6670  0.2714
  564ANI     HN 7895   2.402   0.427   3.461  0.7910 -0.8359 -1.0378
  564ANI     HN 7896   2.330   0.423   3.310  0.4644 -0.1105  0.0515
  565ANI     CN 7897   1.780   3.248   4.209 -0.3489  0.2139 -0.0924
  565ANI     CH 7898   1.709   3.335   4.126  0.5389  0.6231 -0.4292
  565ANI     CH 7899   1.602   3.278   4.055  0.1427 -0.2425  0.8573
  565ANI     CH 7900   1.568   3.142   4.054  0.0606 -0.2175 -0.2742
  565ANI     CH 7901   1.652   3.060   4.131  0.2140  0.0215 -0.1862
  565ANI     CH 7902   1.753   3.110   4.213  0.2482  0.0899 -0.2689
  565ANI     NH 7903   1.875   3.300   4.288 -0.0749  0.1146 -0.3535
  565ANI     HC 7904   1.726   3.441   4.129 -0.6101  0.7637  1.3171
  565ANI     HC 7905   1.546   3.350   3.997  0.8046 -1.4426 -1.3128
  565ANI     HC 7906   1.489   3.109   3.988 -0.5266  0.2356  0.1960
  565ANI     HC 7907   1.631   2.954   4.135  1.1324 -0.1623 -0.1063
  565ANI     HC 7908   1.799   3.036   4.277 -0.3329 -0.3627 -0.3817
  565ANI     HN 7909   1.858   3.394   4.321 -0.8534  0.4381 -1.6571
  565ANI     HN 7910   1.911   3.238   4.359  0.6215  0.1822 -0.6447
  566ANI     CN 7911   4.207   5.592   4.321  0.3967 -0.0478 -0.2579
  566ANI     CH 7912   4.266   5.467   4.341  0.2576 -0.1827 -0.6977
  566ANI     CH 7913   4.405   5.456   4.340  0.3353  0.6588  0.0910
  566ANI     CH 7914   4.486   5.570   4.327  0.4382  0.5942  0.1742
  566ANI     CH 7915   4.426   5.695   4.312  0.5096  0.6326  0.1978
  566ANI     CH 7916   4.286   5.707   4.311  0.4529  0.0020  0.6817
  566ANI     NH 7917   4.073   5.595   4.308  0.3193 -0.4211  0.4282
  566ANI     HC 7918   4.206   5.379   4.362  1.3325 -1.0481 -1.1961
  566ANI     HC 7919   4.458   5.362   4.341  2.0309  1.5442 -1.4226
  566ANI     HC 7920   4.594   5.566   4.324  0.5753  1.3926  2.8154
  566ANI     HC 7921   4.489   5.782   4.303  0.4430  0.6594 -0.0132
  566ANI     HC 7922   4.242   5.804   4.297 -2.2582 -0.8739  2.7030
  566ANI     HN 7923   4.027   5.509   4.334 -1.5755  0.8608  1.3611
  566ANI     HN 7924   4.034   5.667   4.367 -0.9036 -0.5902 -0.1750
  567ANI     CN 7925   0.419   4.680   3.221 -0.3031 -0.3055 -0.4594
  567ANI     CH 7926   0.478   4.557   3.253  0.5284  0.0724 -0.5232
  567ANI     CH 7927   0.606   4.531   3.203  0.5726 -0.3153 -0.2132
  567ANI     CH 7928   0.669   4.622   3.117 -0.2895  0.4724 -0.0154
  567ANI     CH 7929   0.606   4.742   3.083  0.4216  0.8908  0.1609
  567ANI     CH 7930   0.479   4.771   3.134  0.2593  0.0142  0.2582
  567ANI     NH 7931   0.295   4.701   3.267  0.1697  0.5964  0.4024
  567ANI     HC 7932   0.429   4.489   3.322  1.1310  0.5522  0.3940
  567ANI     HC 7933   0.650   4.440   3.242 -2.1766 -0.4285  2.8766
  567ANI     HC 7934   0.764   4.593   3.076 -0.2938  0.8026 -0.2585
  567ANI     HC 7935   0.668   4.801   3.017  1.6020 -0.4573  0.0458
  567ANI     HC 7936   0.430   4.859   3.095  2.0361  0.1293 -1.8019
  567ANI     HN 7937   0.253   4.610   3.273 -1.6592  1.3598 -0.4591
  567ANI     HN 7938   0.222   4.747   3.215  1.0832  1.6919  0.0679
  568ANI     CN 7939   0.806   3.003   5.032 -0.2122  0.1779  0.0679
  568ANI     CH 7940   0.698   2.920   5.065 -0.4316  0.4448  0.0171
  568ANI     CH 7941   0.592   2.895   4.976 -0.1277 -0.1751 -0.1750
  568ANI     CH 7942   0.603   2.932   4.842 -0.3010 -0.5205 -0.2828
  568ANI     CH 7943   0.713   3.010   4.804 -0.7587  0.4825  0.4356
  568ANI     CH 7944   0.813   3.041   4.897 -0.0444 -0.3037 -0.0612
  568ANI     NH 7945   0.907   3.022   5.118  0.2832 -0.4229 -0.3736
  568ANI     HC 7946   0.683   2.873   5.161  1.5912  0.2318  0.2540
  568ANI     HC 7947   0.502   2.844   5.006  0.5658 -0.8034  0.8676
  568ANI     HC 7948   0.528   2.913   4.766 -1.3080 -0.5763  0.7170
  568ANI     HC 7949   0.726   3.033   4.699 -1.6640 -1.1638 -0.0454
  568ANI     HC 7950   0.906   3.091   4.876 -1.2868  1.7926 -0.7227
  568ANI     HN 7951   0.984   3.074   5.078  0.7822  0.2787  1.4635
  568ANI     HN 7952   0.877   3.058   5.207  2.0601  1.9279 -0.6572
  569ANI     CN 7953   0.742   4.058   2.385 -0.2606 -0.3724  0.3391
  569ANI     CH 7954   0.825   4.102   2.281 -0.3666 -0.0409  0.3970
  569ANI     CH 7955   0.907   4.215   2.294 -0.2873 -0.0313 -0.1705
  569ANI     CH 7956   0.920   4.274   2.421 -0.1485  0.2614 -0.3208
  569ANI     CH 7957   0.847   4.225   2.530  0.1088 -0.2815 -0.3906
  569ANI     CH 7958   0.759   4.118   2.511 -0.3255 -0.0319  0.1856
  569ANI     NH 7959   0.680   3.940   2.369 -0.7032 -0.1875  0.7028
  569ANI     HC 7960   0.814   4.047   2.189 -0.9190  0.0200  0.4214
  569ANI     HC 7961   0.964   4.249   2.209  2.2181  0.2113  1.5671
  569ANI     HC 7962   0.979   4.363   2.437 -0.3132  0.5023 -1.0115
  569ANI     HC 7963   0.865   4.271   2.626  2.3020  0.5310 -1.1673
  569ANI     HC 7964   0.715   4.076   2.600  1.7687 -0.1473  1.1951
  569ANI     HN 7965   0.610   3.920   2.439 -3.1339 -0.5243 -1.7236
  569ANI     HN 7966   0.640   3.933   2.277  1.3819  3.8454 -0.6412
  570ANI     CN 7967   1.863   0.531   5.008 -0.0980  0.0862  0.0821
  570ANI     CH 7968   1.748   0.583   4.948  0.1203  0.7411  0.2263
  570ANI     CH 7969   1.731   0.594   4.810 -0.2045 -0.3847  0.1694
  570ANI     CH 7970   1.835   0.548   4.727 -0.3991 -0.3892 -0.0723
  570ANI     CH 7971   1.954   0.505   4.787 -0.2560 -0.4879 -0.4300
  570ANI     CH 7972   1.969   0.494   4.925 -0.2601  0.5610 -0.3394
  570ANI     NH 7973   1.852   0.505   5.140 -0.0083 -0.7160 -0.0618
  570ANI     HC 7974   1.663   0.610   5.009 -1.3366 -0.0759 -1.3854
  570ANI     HC 7975   1.641   0.632   4.764  0.7936 -0.7556 -2.1954
  570ANI     HC 7976   1.823   0.573   4.623  0.8583  1.1989  0.1434
  570ANI     HC 7977   2.043   0.484   4.729 -0.3190 -1.7179 -0.0867
  570ANI     HC 7978   2.063   0.460   4.968 -0.2138  2.3040  1.0141
  570ANI     HN 7979   1.919   0.527   5.212  0.6163  0.2354 -0.9084
  570ANI     HN 7980   1.767   0.546   5.175 -0.8361  2.4070 -5.0880
  571ANI     CN 7981   3.052   5.240   4.612 -0.0688  0.0468 -0.1648
  571ANI     CH 7982   3.148   5.322   4.673  0.1111 -0.3828  0.1395
  571ANI     CH 7983   3.165   5.332   4.811  0.0560  0.4752  0.0914
  571ANI     CH 7984   3.092   5.246   4.895  0.7061 -0.2837 -0.1148
  571ANI     CH 7985   3.005   5.155   4.836 -0.0248  0.3987 -0.1011
  571ANI     CH 7986   2.984   5.152   4.697 -0.2859  0.3162 -0.0616
  571ANI     NH 7987   3.046   5.233   4.478 -0.2008 -0.0863 -0.1520
  571ANI     HC 7988   3.216   5.382   4.613  1.7541 -0.4812  1.8882
  571ANI     HC 7989   3.237   5.401   4.852 -0.2692  2.2044 -2.1749
  571ANI     HC 7990   3.114   5.239   5.001 -3.8645  0.1648  0.9649
  571ANI     HC 7991   2.951   5.086   4.900  1.7394 -0.7883  0.1403
  571ANI     HC 7992   2.922   5.077   4.651 -0.4415  1.6893 -2.1523
  571ANI     HN 7993   3.007   5.147   4.443  2.0435 -0.5941 -1.4542
  571ANI     HN 7994   3.136   5.239   4.433  0.3854 -1.6769  0.7812
  572ANI     CN 7995   4.189   3.331   4.530 -0.3284 -0.0811  0.9826
  572ANI     CH 7996   4.159   3.195   4.548 -0.5379 -0.0183  1.1227
  572ANI     CH 7997   4.266   3.115   4.591 -0.1335  0.0392  0.2421
  572ANI     CH 7998   4.396   3.159   4.617  0.0038  0.0502 -0.4607
  572ANI     CH 7999   4.425   3.294   4.597 -0.0893  0.2052  0.4423
  572ANI     CH 8000   4.318   3.377   4.561 -0.0631 -0.0297 -0.1789
  572ANI     NH 8001   4.090   3.420   4.514  0.1320  0.1461 -0.6453
  572ANI     HC 8002   4.057   3.161   4.537 -0.5954  0.8014 -1.2554
  572ANI     HC 8003   4.251   3.009   4.608 -0.3559 -0.2253 -1.5208
  572ANI     HC 8004   4.473   3.089   4.645  0.4946  0.2790 -1.2287
  572ANI     HC 8005   4.520   3.338   4.624 -0.1243 -0.7633  2.2456
  572ANI     HC 8006   4.348   3.478   4.540  1.7190 -0.7184 -1.0121
  572ANI     HN 8007   4.001   3.383   4.541  0.5386  0.1714  0.7607
  572ANI     HN 8008   4.103   3.516   4.542 -1.6748  0.1179  0.3376
  573ANI     CN 8009   3.372   5.203   2.878 -0.3920 -0.3163 -0.6332
  573ANI     CH 8010   3.388   5.068   2.911 -0.1081 -0.0253  0.4289
  573ANI     CH 8011   3.450   4.977   2.825 -0.5165  0.2252 -0.1330
  573ANI     CH 8012   3.498   5.026   2.703 -0.4315 -0.1537 -0.2515
  573ANI     CH 8013   3.485   5.161   2.668  0.5170 -0.1291 -0.5416
  573ANI     CH 8014   3.420   5.249   2.754  0.4339 -0.3858 -0.3408
  573ANI     NH 8015   3.295   5.285   2.950  0.3617 -0.1094 -0.0680
  573ANI     HC 8016   3.349   5.034   3.006 -2.3130 -1.9342 -1.1101
  573ANI     HC 8017   3.466   4.873   2.847  2.3919  0.4033 -1.1516
  573ANI     HC 8018   3.547   4.958   2.635 -1.3713  0.6192 -1.7279
  573ANI     HC 8019   3.521   5.196   2.573 -0.8323  1.1604 -0.5990
  573ANI     HC 8020   3.404   5.351   2.722 -1.4131 -1.0119 -1.4615
  573ANI     HN 8021   3.304   5.380   2.915 -1.6429  0.5782  1.2012
  573ANI     HN 8022   3.321   5.294   3.048 -0.4820 -3.5427  0.5271
  574ANI     CN 8023   5.412   4.069   3.403  0.0657 -0.1650 -0.4196
  574ANI     CH 8024   5.416   3.981   3.512 -0.2807  0.1657 -0.1372
  574ANI     CH 8025   5.524   3.896   3.539 -0.0129  0.4837 -0.2052
  574ANI     CH 8026   5.634   3.909   3.453 -0.2262 -0.4130 -0.6198
  574ANI     CH 8027   5.641   4.004   3.351  0.4694 -0.2541 -0.4220
  574ANI     CH 8028   5.529   4.085   3.329  0.6725  0.3362  0.6325
  574ANI     NH 8029   5.310   4.156   3.394  0.1430 -0.0934 -0.5954
  574ANI     HC 8030   5.328   3.979   3.574  1.4723  4.9962  2.7828
  574ANI     HC 8031   5.515   3.827   3.621 -1.8779  1.3870  0.3872
  574ANI     HC 8032   5.718   3.842   3.465  0.7156  0.8903  0.1649
  574ANI     HC 8033   5.729   4.016   3.290  0.2465  1.9000 -0.3703
  574ANI     HC 8034   5.539   4.160   3.252  0.0107  1.7714  1.9168
  574ANI     HN 8035   5.271   4.150   3.301 -0.4713  2.8670 -0.5776
  574ANI     HN 8036   5.239   4.118   3.455  2.3039 -2.1117  0.7627
  575ANI     CN 8037   1.345   3.952   0.986  0.4275  0.4481  0.0561
  575ANI     CH 8038   1.437   3.894   0.898  0.3730  0.1363  0.2052
  575ANI     CH 8039   1.397   3.774   0.838 -0.3722  0.4195  0.1313
  575ANI     CH 8040   1.271   3.718   0.861 -0.0412 -0.2499  0.3242
  575ANI     CH 8041   1.186   3.776   0.957  0.1724 -0.3467  0.5709
  575ANI     CH 8042   1.219   3.898   1.017  0.5193  0.0076 -0.3411
  575ANI     NH 8043   1.370   4.077   1.028 -0.0450  0.5847 -0.0601
  575ANI     HC 8044   1.536   3.935   0.886  0.4644  0.2346  1.2146
  575ANI     HC 8045   1.460   3.719   0.770  1.0683  0.8371  1.1212
  575ANI     HC 8046   1.249   3.622   0.817  3.6790 -0.8569 -0.3307
  575ANI     HC 8047   1.089   3.734   0.976  0.3628 -0.6619  0.8622
  575ANI     HC 8048   1.148   3.946   1.082  0.0376 -1.8168  0.5140
  575ANI     HN 8049   1.317   4.101   1.110 -0.5786  1.4101 -0.6338
  575ANI     HN 8050   1.465   4.109   1.040  0.6034 -1.6924  1.2495
  576ANI     CN 8051   2.400   1.698   5.984 -0.9909  0.6303 -0.3597
  576ANI     CH 8052   2.369   1.631   5.865  0.3442 -0.2382 -0.2269
  576ANI     CH 8053   2.402   1.685   5.741 -0.4548  0.4863 -0.1280
  576ANI     CH 8054   2.490   1.794   5.734 -0.0644  0.1562 -0.3539
  576ANI     CH 8055   2.520   1.866   5.850 -0.2226  0.0293 -0.2337
  576ANI     CH 8056   2.479   1.814   5.973  0.2205 -0.1649 -0.1669
  576ANI     NH 8057   2.364   1.654   6.105  0.7262 -0.6268 -0.2875
  576ANI     HC 8058   2.310   1.540   5.861  0.4761 -0.3201 -0.3227
  576ANI     HC 8059   2.361   1.630   5.657 -0.8854 -1.1678  1.1495
  576ANI     HC 8060   2.514   1.833   5.636  1.2640  1.4996  0.4907
  576ANI     HC 8061   2.580   1.955   5.836  0.7103 -0.4319  0.8220
  576ANI     HC 8062   2.507   1.878   6.055  0.1530 -0.1146 -0.1825
  576ANI     HN 8063   2.275   1.607   6.114 -0.3767  1.7564  2.1613
  576ANI     HN 8064   2.350   1.727   6.174 -0.0804 -0.8257 -0.2412
  577ANI     CN 8065   2.002   0.155   5.410  0.1770 -0.3384 -0.3468
  577ANI     CH 8066   1.989   0.188   5.275 -0.0983  0.0341 -0.2331
  577ANI     CH 8067   2.106   0.191   5.198  0.2664 -0.0936  0.3194
  577ANI     CH 8068   2.232   0.167   5.255  0.4328  0.5685  0.2367
  577ANI     CH 8069   2.244   0.142   5.392  0.1257  0.8811  0.3218
  577ANI     CH 8070   2.127   0.133   5.468  0.0333 -0.0421  0.0776
  577ANI     NH 8071   1.892   0.137   5.485  0.0070  0.3474 -0.4237
  577ANI     HC 8072   1.892   0.214   5.233 -1.1981 -0.3310  1.9904
  577ANI     HC 8073   2.111   0.202   5.091  2.2426 -2.1939  0.1599
  577ANI     HC 8074   2.322   0.177   5.198 -0.3805 -0.4659 -1.2638
  577ANI     HC 8075   2.343   0.125   5.432 -0.5209  0.4676  1.8025
  577ANI     HC 8076   2.151   0.103   5.569 -0.5066 -0.3333  0.1201
  577ANI     HN 8077   1.802   0.109   5.448  0.6783 -1.1913 -0.9162
  577ANI     HN 8078   1.915   0.081   5.566 -3.5584 -1.0017 -0.2753
  578ANI     CN 8079   3.602   1.212   4.720  0.1400  0.6536  0.1818
  578ANI     CH 8080   3.514   1.103   4.717  0.2686  0.5509  0.1646
  578ANI     CH 8081   3.435   1.075   4.605  0.1221  0.3963  0.3045
  578ANI     CH 8082   3.453   1.152   4.489  0.3384  0.1681  0.1858
  578ANI     CH 8083   3.537   1.265   4.491  0.0900  0.3597 -0.2660
  578ANI     CH 8084   3.611   1.292   4.606 -0.0750  0.2379 -0.1300
  578ANI     NH 8085   3.674   1.238   4.830 -0.1802  0.3850  0.4560
  578ANI     HC 8086   3.509   1.028   4.795  1.3964  0.0624 -0.2130
  578ANI     HC 8087   3.368   0.991   4.599 -0.7125  0.8345  2.8225
  578ANI     HC 8088   3.404   1.131   4.395 -2.0009  0.7266  1.2493
  578ANI     HC 8089   3.547   1.326   4.403  4.5598  1.2589  0.7847
  578ANI     HC 8090   3.679   1.376   4.605  1.2281 -0.8016  0.4691
  578ANI     HN 8091   3.706   1.159   4.884 -0.1740  1.5277  2.1910
  578ANI     HN 8092   3.750   1.302   4.815 -0.6154  0.8494  0.2160
  579ANI     CN 8093   4.051   0.403   0.934 -0.6425 -0.1631 -0.1222
  579ANI     CH 8094   4.088   0.533   0.896  0.0813 -0.3225  0.0169
  579ANI     CH 8095   4.128   0.626   0.993 -0.4427 -0.4649  0.3760
  579ANI     CH 8096   4.132   0.595   1.129  0.2987  0.5101  0.5797
  579ANI     CH 8097   4.097   0.465   1.165 -0.0862  0.3978 -0.1934
  579ANI     CH 8098   4.053   0.372   1.070  0.5485 -0.0050 -0.0962
  579ANI     NH 8099   4.024   0.307   0.844 -0.5749  0.2281 -0.5634
  579ANI     HC 8100   4.106   0.561   0.793  0.4616  2.1414  0.7130
  579ANI     HC 8101   4.146   0.729   0.964  0.4461 -0.2315  1.7286
  579ANI     HC 8102   4.163   0.667   1.204 -0.4446  0.1298  1.2665
  579ANI     HC 8103   4.086   0.430   1.267  1.2201 -0.2946 -0.2685
  579ANI     HC 8104   4.023   0.273   1.101  2.5395 -0.5946  0.0372
  579ANI     HN 8105   4.028   0.335   0.747  1.2836  0.4670 -0.4496
  579ANI     HN 8106   4.081   0.225   0.859 -0.7409  0.0954 -0.6716
  580ANI     CN 8107   1.114   0.132   3.752  1.0264  0.5336  0.0144
  580ANI     CH 8108   1.138   0.041   3.649  0.5208  0.0896  0.2842
  580ANI     CH 8109   1.121   0.076   3.514  0.4603  0.0076  0.2703
  580ANI     CH 8110   1.093   0.210   3.486  0.8855  0.0226 -0.0898
  580ANI     CH 8111   1.078   0.306   3.587 -0.1374 -0.0690 -0.1475
  580ANI     CH 8112   1.086   0.265   3.721 -0.0994  0.2903 -0.0399
  580ANI     NH 8113   1.099   0.090   3.879 -0.6130  0.4124 -0.2134
  580ANI     HC 8114   1.154  -0.064   3.667 -0.6814 -0.0127  0.8286
  580ANI     HC 8115   1.130  -0.004   3.442  0.7560  0.2982 -0.0172
  580ANI     HC 8116   1.070   0.238   3.385  0.8165 -1.3842 -0.4701
  580ANI     HC 8117   1.054   0.408   3.562  0.4433  0.3353  0.8840
  580ANI     HC 8118   1.058   0.342   3.791  1.5594  1.3920 -0.5452
  580ANI     HN 8119   1.077  -0.007   3.899 -0.0639  0.0128 -1.4855
  580ANI     HN 8120   1.034   0.148   3.931 -0.4320  0.3926  0.0355
  581ANI     CN 8121   0.161   2.117   3.437 -0.1239 -0.0034 -0.2962
  581ANI     CH 8122   0.061   2.033   3.387 -0.3006 -0.1398  0.2848
  581ANI     CH 8123  -0.015   2.070   3.276 -0.5047  0.1233  0.5129
  581ANI     CH 8124  -0.003   2.193   3.211  0.5282 -0.2859 -0.0793
  581ANI     CH 8125   0.096   2.277   3.265 -0.1212  0.4464 -0.0219
  581ANI     CH 8126   0.174   2.242   3.375  0.2722 -0.1352 -0.4839
  581ANI     NH 8127   0.236   2.094   3.546 -0.2854 -0.0591 -0.1971
  581ANI     HC 8128   0.044   1.935   3.430 -2.6367  0.1154  0.0131
  581ANI     HC 8129  -0.087   2.009   3.222 -1.4416  0.1962  1.6659
  581ANI     HC 8130  -0.060   2.212   3.122  1.6378  0.1611 -0.7052
  581ANI     HC 8131   0.102   2.376   3.220  0.8604  1.2555  1.8462
  581ANI     HC 8132   0.235   2.319   3.420 -1.6535  1.1549 -0.0329
  581ANI     HN 8133   0.172   2.103   3.624 -0.4712  1.6143 -0.5352
  581ANI     HN 8134   0.305   2.166   3.562  0.5375 -0.1098 -3.2138
  582ANI     CN 8135   0.462   1.911   3.124  0.1900 -0.2259 -0.3093
  582ANI     CH 8136   0.596   1.878   3.102  0.3750  0.1638  0.2228
  582ANI     CH 8137   0.629   1.779   3.009  0.3728 -0.1653  0.5719
  582ANI     CH 8138   0.530   1.687   2.972  0.3536  0.3925 -0.7815
  582ANI     CH 8139   0.396   1.704   3.007  0.5700 -0.6634  0.6027
  582ANI     CH 8140   0.365   1.818   3.082  0.1623 -0.2605 -0.1696
  582ANI     NH 8141   0.425   2.012   3.205 -0.3273 -0.7342  0.0987
  582ANI     HC 8142   0.674   1.946   3.133  0.2264  1.0312 -1.2702
  582ANI     HC 8143   0.733   1.752   2.993  0.3478  0.2306 -0.2780
  582ANI     HC 8144   0.563   1.604   2.913  1.9579 -1.3941  2.4942
  582ANI     HC 8145   0.310   1.647   2.975  1.4085 -1.3249 -0.5022
  582ANI     HC 8146   0.260   1.836   3.100 -0.0038  0.7867 -2.0557
  582ANI     HN 8147   0.489   2.089   3.189 -1.1001 -0.1653 -0.2757
  582ANI     HN 8148   0.329   2.041   3.198 -0.6858 -1.4334  2.0058
  583ANI     CN 8149   2.961   3.065   0.353 -0.5066  0.3290 -0.0997
  583ANI     CH 8150   2.928   2.976   0.249  0.1724 -0.2228  0.1524
  583ANI     CH 8151   2.855   3.020   0.138  0.3671  0.4730  0.2987
  583ANI     CH 8152   2.817   3.155   0.136 -0.3257  0.2793  0.0692
  583ANI     CH 8153   2.851   3.249   0.234  0.6359  0.5849 -0.5417
  583ANI     CH 8154   2.923   3.199   0.344  0.1567  0.5096 -0.2624
  583ANI     NH 8155   3.038   3.026   0.455 -1.0518  0.2741  0.2963
  583ANI     HC 8156   2.961   2.874   0.238 -0.0113 -0.0336 -2.5285
  583ANI     HC 8157   2.840   2.959   0.051 -1.4186  0.6639  0.4450
  583ANI     HC 8158   2.753   3.177   0.052  0.6037  2.8478 -0.0170
  583ANI     HC 8159   2.812   3.349   0.239  2.0469  1.0516  2.2267
  583ANI     HC 8160   2.957   3.258   0.428 -2.4068  1.3468  0.2423
  583ANI     HN 8161   3.037   3.097   0.527  2.1310  1.7152 -0.9580
  583ANI     HN 8162   2.989   2.948   0.495 -0.9606 -1.1070 -2.1813
  584ANI     CN 8163   4.857   4.099   5.233  0.0914 -0.3959 -0.1118
  584ANI     CH 8164   4.891   4.223   5.288 -0.4650 -0.1917 -0.2291
  584ANI     CH 8165   4.861   4.250   5.422 -0.1302 -0.2047 -0.1505
  584ANI     CH 8166   4.790   4.155   5.497 -0.3308  0.2088  0.1930
  584ANI     CH 8167   4.758   4.031   5.440  0.4634 -0.1769  0.5754
  584ANI     CH 8168   4.794   3.999   5.308  0.1714 -0.0178  0.4572
  584ANI     NH 8169   4.885   4.071   5.105 -0.1401 -0.5200 -0.1362
  584ANI     HC 8170   4.943   4.297   5.230 -1.1528  0.4050 -0.0902
  584ANI     HC 8171   4.884   4.343   5.471  0.1947 -0.4496  0.1607
  584ANI     HC 8172   4.776   4.182   5.600 -3.0320  0.4424 -0.2136
  584ANI     HC 8173   4.704   3.961   5.503 -3.0205 -0.4098 -2.4711
  584ANI     HC 8174   4.775   3.899   5.273 -0.2981  0.0656  0.4700
  584ANI     HN 8175   4.984   4.052   5.093 -0.0122  0.0563  0.0014
  584ANI     HN 8176   4.838   3.984   5.084  3.9178 -2.5329 -1.5925
  585ANI     CN 8177   0.649   0.361   2.637  0.1839  0.0178  0.5372
  585ANI     CH 8178   0.693   0.247   2.569 -0.4601 -0.0688  0.2683
  585ANI     CH 8179   0.612   0.134   2.561 -0.7469  0.1864 -0.5741
  585ANI     CH 8180   0.483   0.138   2.616 -0.8483 -0.0918 -0.7900
  585ANI     CH 8181   0.439   0.249   2.688 -0.1274 -0.5884  0.4485
  585ANI     CH 8182   0.522   0.362   2.696 -0.0935 -0.5785 -0.0600
  585ANI     NH 8183   0.723   0.473   2.634 -0.3183  0.3301 -0.1212
  585ANI     HC 8184   0.786   0.235   2.514 -0.7328 -0.9201 -0.0062
  585ANI     HC 8185   0.642   0.046   2.506 -0.9490  0.1780 -0.6714
  585ANI     HC 8186   0.419   0.051   2.613 -0.0219 -0.9290  2.6715
  585ANI     HC 8187   0.346   0.261   2.743  0.8791  0.3781  2.0013
  585ANI     HC 8188   0.495   0.453   2.747  0.1825  0.1645 -1.2031
  585ANI     HN 8189   0.716   0.514   2.727  0.9148 -2.5032  1.2715
  585ANI     HN 8190   0.822   0.469   2.618 -0.2727  0.6983  0.0492
  586ANI     CN 8191   2.638   0.198   1.562 -0.0148  0.3064  0.0315
  586ANI     CH 8192   2.679   0.143   1.683  0.2631  0.5467  0.0495
  586ANI     CH 8193   2.579   0.112   1.777  0.0977  0.2241 -0.2306
  586ANI     CH 8194   2.443   0.141   1.756  0.0076  0.3359  0.4836
  586ANI     CH 8195   2.405   0.199   1.634  0.3923 -0.5457 -0.0682
  586ANI     CH 8196   2.503   0.228   1.539 -0.0443 -0.1462 -0.3994
  586ANI     NH 8197   2.730   0.241   1.474  0.4186  0.3833  0.5218
  586ANI     HC 8198   2.784   0.135   1.705  0.0242 -0.3357  0.9587
  586ANI     HC 8199   2.609   0.089   1.878  1.4426  0.9560 -0.4508
  586ANI     HC 8200   2.373   0.118   1.834 -0.3079 -1.1889 -0.2186
  586ANI     HC 8201   2.303   0.231   1.618  1.1833  1.6439 -0.8782
  586ANI     HC 8202   2.476   0.286   1.452  0.6098 -0.6549 -0.9399
  586ANI     HN 8203   2.686   0.292   1.399  1.6319 -0.1618 -0.5969
  586ANI     HN 8204   2.811   0.296   1.499  0.8417  1.5821 -3.1932
  587ANI     CN 8205   3.461   4.320   0.128  0.1603  0.2249  0.2272
  587ANI     CH 8206   3.522   4.251   0.233 -0.1233 -0.2178  0.1020
  587ANI     CH 8207   3.660   4.226   0.230 -0.0882 -0.0384  0.2507
  587ANI     CH 8208   3.730   4.251   0.112  0.3759  0.9660  0.7278
  587ANI     CH 8209   3.671   4.314   0.002 -0.0920  0.3769  0.6423
  587ANI     CH 8210   3.538   4.355   0.016 -0.3815 -0.2266 -0.2851
  587ANI     NH 8211   3.328   4.339   0.127  0.1725  0.2930 -0.2923
  587ANI     HC 8212   3.469   4.210   0.317  1.5585 -2.4991  0.0934
  587ANI     HC 8213   3.704   4.161   0.305  0.6874  0.4973  0.2704
  587ANI     HC 8214   3.833   4.219   0.097 -0.5675 -1.6725 -0.5157
  587ANI     HC 8215   3.724   4.335  -0.090 -0.8751  0.5949  0.2346
  587ANI     HC 8216   3.489   4.404  -0.068 -0.0110  0.6807  0.0261
  587ANI     HN 8217   3.288   4.323   0.036  0.2350  1.6198 -0.5560
  587ANI     HN 8218   3.281   4.279   0.194 -1.1225  1.8638  0.2388
  588ANI     CN 8219   2.361   5.232   1.636 -0.3926 -0.7582  0.1244
  588ANI     CH 8220   2.401   5.176   1.514  0.4051 -0.1100  0.0858
  588ANI     CH 8221   2.416   5.256   1.401  0.2330 -0.4993 -0.2138
  588ANI     CH 8222   2.382   5.392   1.405  0.6724 -0.3808 -0.5436
  588ANI     CH 8223   2.333   5.442   1.526  0.1075 -0.4561 -0.7432
  588ANI     CH 8224   2.318   5.365   1.642  0.5686 -0.4084 -0.6515
  588ANI     NH 8225   2.345   5.156   1.746 -0.2615  0.0474  0.7047
  588ANI     HC 8226   2.419   5.070   1.507  3.2717  0.3943 -1.0749
  588ANI     HC 8227   2.448   5.202   1.313  1.4559 -0.7746  0.3858
  588ANI     HC 8228   2.387   5.452   1.315 -1.6192 -2.6432 -2.2484
  588ANI     HC 8229   2.298   5.543   1.540 -0.8238 -0.3486 -3.4366
  588ANI     HC 8230   2.275   5.411   1.730 -1.7222 -2.8823 -0.3890
  588ANI     HN 8231   2.408   5.079   1.729 -1.2097 -0.9671  1.7295
  588ANI     HN 8232   2.379   5.192   1.834  0.5038  1.0015  0.0424
  589ANI     CN 8233   5.952   3.025   4.982 -0.4162  0.2656 -0.0062
  589ANI     CH 8234   5.923   2.889   4.996  0.3356  0.1113  0.0307
  589ANI     CH 8235   5.801   2.843   4.947  0.2038  0.6847 -0.1805
  589ANI     CH 8236   5.712   2.925   4.876 -0.3911  0.2405  0.0501
  589ANI     CH 8237   5.747   3.059   4.854 -0.2181  0.1648 -0.1417
  589ANI     CH 8238   5.861   3.110   4.916 -0.4086  0.3348  0.0720
  589ANI     NH 8239   6.062   3.084   5.031  0.0138 -0.3888 -0.1793
  589ANI     HC 8240   5.991   2.822   5.046 -0.7455 -0.5421  0.6278
  589ANI     HC 8241   5.784   2.737   4.962  1.0234  0.8615  2.1430
  589ANI     HC 8242   5.620   2.880   4.843 -1.2334  1.5988  0.4914
  589ANI     HC 8243   5.683   3.129   4.802  2.0994  2.3143 -0.2084
  589ANI     HC 8244   5.883   3.214   4.899 -0.5200  0.3268 -0.1172
  589ANI     HN 8245   6.122   3.130   4.964 -0.7478  0.7520 -0.0959
  589ANI     HN 8246   6.119   3.026   5.091  0.8362 -1.3763 -1.8911
  590ANI     CN 8247   0.429   5.703   5.198 -0.3171  0.5357 -0.1904
  590ANI     CH 8248   0.510   5.748   5.303  0.0958 -0.1455 -0.2138
  590ANI     CH 8249   0.493   5.878   5.352  0.5147 -0.0452 -0.3409
  590ANI     CH 8250   0.395   5.962   5.298  0.4398 -0.2064 -0.4557
  590ANI     CH 8251   0.324   5.923   5.184 -0.5915  0.0168  0.1126
  590ANI     CH 8252   0.339   5.792   5.137 -0.3364  0.2779 -0.5425
  590ANI     NH 8253   0.435   5.577   5.152  0.6286  0.3800  0.3579
  590ANI     HC 8254   0.577   5.677   5.350 -0.1525  0.2983  0.8237
  590ANI     HC 8255   0.545   5.920   5.437  1.5356 -1.7140 -0.1017
  590ANI     HC 8256   0.365   6.062   5.324 -0.8111 -0.7778  0.3233
  590ANI     HC 8257   0.263   5.996   5.134 -0.1539  0.3581  0.0810
  590ANI     HC 8258   0.284   5.744   5.057 -0.5144 -0.8472  0.2267
  590ANI     HN 8259   0.459   5.574   5.054 -0.4065  0.0571  0.1104
  590ANI     HN 8260   0.492   5.507   5.197  0.7273 -2.7369 -4.2620
  591ANI     CN 8261   1.373   0.850   5.824  0.4848  0.0310  0.1913
  591ANI     CH 8262   1.464   0.856   5.718  0.0800  0.0855 -0.1510
  591ANI     CH 8263   1.543   0.748   5.678 -0.4761 -0.3263 -0.1469
  591ANI     CH 8264   1.522   0.622   5.736 -0.1428 -0.3486 -0.0689
  591ANI     CH 8265   1.424   0.610   5.835 -0.2374 -0.3065 -0.1571
  591ANI     CH 8266   1.350   0.722   5.875 -0.1472 -0.1287 -0.4870
  591ANI     NH 8267   1.309   0.957   5.873 -0.3241 -0.5672  0.4455
  591ANI     HC 8268   1.471   0.954   5.673 -1.0953  0.5813  0.7102
  591ANI     HC 8269   1.613   0.757   5.597  1.1836 -1.5234  1.0960
  591ANI     HC 8270   1.571   0.532   5.702 -1.5827 -1.0955 -0.1919
  591ANI     HC 8271   1.402   0.513   5.878 -1.6273 -0.2608 -0.7440
  591ANI     HC 8272   1.281   0.720   5.958 -1.2123 -0.9772 -1.3810
  591ANI     HN 8273   1.340   1.053   5.865 -1.0847 -0.3752 -0.3343
  591ANI     HN 8274   1.223   0.950   5.926 -0.1977 -0.9612  0.5982
  592ANI     CN 8275   5.397   0.928   5.491  0.7186  0.5004 -0.3190
  592ANI     CH 8276   5.469   0.839   5.410 -0.3534 -0.4172 -0.2787
  592ANI     CH 8277   5.539   0.733   5.469  0.4176  0.1981 -0.0880
  592ANI     CH 8278   5.563   0.734   5.607  0.0921  0.9234 -0.0305
  592ANI     CH 8279   5.503   0.831   5.688 -0.1327  0.3137  0.5395
  592ANI     CH 8280   5.410   0.919   5.630 -0.3437 -0.4358 -0.2763
  592ANI     NH 8281   5.312   1.016   5.437 -0.2060 -0.4369 -0.4172
  592ANI     HC 8282   5.460   0.835   5.303 -2.3912 -1.7901 -0.0845
  592ANI     HC 8283   5.598   0.667   5.408  0.1243  0.6908 -0.9125
  592ANI     HC 8284   5.626   0.656   5.647  0.7267  1.0363 -0.8032
  592ANI     HC 8285   5.510   0.843   5.795  1.3975  0.8213  0.3851
  592ANI     HC 8286   5.351   0.988   5.689  2.0144  0.9340  0.5233
  592ANI     HN 8287   5.328   1.102   5.488 -0.1389 -0.2839 -0.6915
  592ANI     HN 8288   5.328   1.049   5.343 -0.5998 -0.1099 -0.3701
  593ANI     CN 8289   0.282   4.933   2.604 -0.0160  0.1005  0.0384
  593ANI     CH 8290   0.398   4.955   2.680  0.2904  0.0336 -0.4093
  593ANI     CH 8291   0.444   4.857   2.768 -0.0228  0.0469 -0.2290
  593ANI     CH 8292   0.378   4.734   2.779 -0.3076  0.2476  0.3611
  593ANI     CH 8293   0.265   4.715   2.698 -0.0945  0.1621  0.0828
  593ANI     CH 8294   0.219   4.808   2.604  0.2145 -0.0166 -0.2506
  593ANI     NH 8295   0.229   5.027   2.524  0.1134 -0.1691 -0.3686
  593ANI     HC 8296   0.443   5.052   2.674  0.3799 -0.0226 -0.6744
  593ANI     HC 8297   0.529   4.884   2.829 -0.1423 -0.9495  0.4028
  593ANI     HC 8298   0.416   4.656   2.844  0.4162 -1.7133 -2.2863
  593ANI     HC 8299   0.217   4.618   2.700  1.2047 -0.5184  3.5928
  593ANI     HC 8300   0.133   4.792   2.541  0.3330 -1.3399 -0.1073
  593ANI     HN 8301   0.263   5.117   2.555  1.5592 -1.0028  0.5843
  593ANI     HN 8302   0.130   5.042   2.532  0.1198 -0.1992 -0.2217
  594ANI     CN 8303   2.490   4.262   1.081 -0.0670 -0.1875  0.0402
  594ANI     CH 8304   2.371   4.267   1.008  0.2631 -0.6237 -0.5301
  594ANI     CH 8305   2.342   4.380   0.930  0.1940  0.1917  0.6708
  594ANI     CH 8306   2.431   4.488   0.929 -0.0882  0.4194 -0.1273
  594ANI     CH 8307   2.552   4.480   1.000  0.2102  0.4045 -0.6357
  594ANI     CH 8308   2.582   4.368   1.079 -0.7169  0.3753 -0.3183
  594ANI     NH 8309   2.515   4.152   1.153  0.1935 -0.1222  0.0488
  594ANI     HC 8310   2.302   4.184   1.003 -0.3392 -0.1887  0.4631
  594ANI     HC 8311   2.253   4.396   0.872 -0.3741  0.3022  1.5553
  594ANI     HC 8312   2.414   4.576   0.869  1.0133  1.0183  0.4203
  594ANI     HC 8313   2.627   4.555   0.981 -0.0963  1.0124  0.5514
  594ANI     HC 8314   2.665   4.372   1.148 -1.0499  1.6000  0.0305
  594ANI     HN 8315   2.571   4.169   1.235 -0.8896  0.2072  0.7246
  594ANI     HN 8316   2.427   4.111   1.181  0.9668 -2.1775 -0.4762
  595ANI     CN 8317   4.787   1.616   0.242  0.4567 -0.5875 -0.5468
  595ANI     CH 8318   4.651   1.638   0.220  0.2497 -0.3415  0.9155
  595ANI     CH 8319   4.553   1.563   0.287 -0.3385  0.2284  0.7021
  595ANI     CH 8320   4.591   1.443   0.347 -0.1798  0.2222  0.5883
  595ANI     CH 8321   4.728   1.415   0.363 -0.0653  0.5600  0.2278
  595ANI     CH 8322   4.825   1.504   0.317  0.4910  0.0145  0.3411
  595ANI     NH 8323   4.884   1.698   0.200  0.4983 -0.4594 -0.2074
  595ANI     HC 8324   4.624   1.733   0.176 -0.6753 -1.1197 -0.2502
  595ANI     HC 8325   4.451   1.598   0.277 -0.6973 -0.3285  2.3035
  595ANI     HC 8326   4.518   1.375   0.389  0.8544  0.2900  2.5617
  595ANI     HC 8327   4.757   1.331   0.425 -0.3648 -1.5550 -2.4110
  595ANI     HC 8328   4.929   1.482   0.335 -0.1580 -0.4217  3.9627
  595ANI     HN 8329   4.956   1.640   0.158  1.3316  0.3023  0.1416
  595ANI     HN 8330   4.846   1.760   0.129 -1.4273 -0.1392  1.0918
  596ANI     CN 8331   4.727   3.857   2.727  0.2496 -0.1681  0.0171
  596ANI     CH 8332   4.736   3.755   2.823  0.0775 -0.5076 -0.3237
  596ANI     CH 8333   4.623   3.678   2.853 -0.0436 -0.0871  0.3232
  596ANI     CH 8334   4.502   3.708   2.790  0.0966 -0.6401 -0.2158
  596ANI     CH 8335   4.492   3.810   2.695  0.3114 -0.5533 -0.1450
  596ANI     CH 8336   4.605   3.887   2.665  0.1903 -0.2922  0.0712
  596ANI     NH 8337   4.842   3.919   2.698  0.3160 -0.3270 -0.0634
  596ANI     HC 8338   4.835   3.735   2.863 -0.2982  1.6459  1.8291
  596ANI     HC 8339   4.622   3.600   2.927  0.4126 -1.9895 -1.6068
  596ANI     HC 8340   4.420   3.642   2.816  1.8932 -2.9104 -0.2149
  596ANI     HC 8341   4.395   3.842   2.660  1.3272 -0.4590 -3.0220
  596ANI     HC 8342   4.593   3.968   2.595 -0.8806 -1.1277 -0.7222
  596ANI     HN 8343   4.907   3.854   2.656 -1.6477 -0.5299 -2.9800
  596ANI     HN 8344   4.842   4.000   2.637  0.6780  0.0442  0.4317
  597ANI     CN 8345   0.750   2.721   2.586  0.7567 -0.7437  0.0227
  597ANI     CH 8346   0.744   2.741   2.447 -0.8403 -0.5286  0.1131
  597ANI     CH 8347   0.619   2.749   2.385 -0.8185  0.4658  0.1901
  597ANI     CH 8348   0.498   2.740   2.456 -0.5780  0.2530  0.5693
  597ANI     CH 8349   0.507   2.714   2.594 -0.3130  0.1439  0.5336
  597ANI     CH 8350   0.630   2.717   2.659  0.3270 -0.3489 -0.6492
  597ANI     NH 8351   0.871   2.707   2.641  0.7039 -0.4439  0.2214
  597ANI     HC 8352   0.838   2.746   2.395  0.1844  1.5361  2.0602
  597ANI     HC 8353   0.607   2.755   2.278  1.2431  2.6915  0.0514
  597ANI     HC 8354   0.407   2.753   2.401  0.1437  2.5851 -0.1163
  597ANI     HC 8355   0.412   2.714   2.647 -0.9417 -0.8959 -0.5686
  597ANI     HC 8356   0.630   2.697   2.765  2.2936  1.1055 -0.3432
  597ANI     HN 8357   0.871   2.715   2.741 -1.8586 -3.8022  0.5998
  597ANI     HN 8358   0.922   2.784   2.601  0.0515 -1.3790 -2.5390
  598ANI     CN 8359   2.560   1.570   1.032  0.1012  0.0911 -0.3232
  598ANI     CH 8360   2.431   1.528   0.996  0.2663  0.1775 -1.0276
  598ANI     CH 8361   2.334   1.610   0.937 -0.3387  0.2476  0.0543
  598ANI     CH 8362   2.369   1.744   0.919  0.7743 -0.1594 -0.8864
  598ANI     CH 8363   2.502   1.785   0.936  0.5089  0.2787  0.1853
  598ANI     CH 8364   2.595   1.702   0.999  0.4458  0.0855  0.0245
  598ANI     NH 8365   2.649   1.488   1.089 -0.1496  0.0945  0.0789
  598ANI     HC 8366   2.412   1.423   1.014  0.3619  0.4631  0.8813
  598ANI     HC 8367   2.236   1.567   0.926 -0.0283  0.1551 -2.5750
  598ANI     HC 8368   2.302   1.817   0.876  1.7022  1.3343  0.1200
  598ANI     HC 8369   2.526   1.887   0.911  1.5977 -0.2475 -0.9736
  598ANI     HC 8370   2.695   1.738   1.021  0.6065  0.3318 -1.0687
  598ANI     HN 8371   2.623   1.393   1.111 -0.1631 -0.0595 -0.5897
  598ANI     HN 8372   2.744   1.484   1.055 -0.2523 -0.1332 -0.1823
  599ANI     CN 8373   3.704   3.438   0.141  0.2896 -0.4382 -0.0020
  599ANI     CH 8374   3.611   3.427   0.037  0.4104 -0.5615 -0.0961
  599ANI     CH 8375   3.602   3.516  -0.070 -0.3068 -0.5181 -0.0011
  599ANI     CH 8376   3.700   3.616  -0.068  0.0266 -0.8462  0.1448
  599ANI     CH 8377   3.796   3.632   0.033  0.0765  0.3038 -0.0793
  599ANI     CH 8378   3.804   3.536   0.134  0.3075 -0.5114 -0.8620
  599ANI     NH 8379   3.705   3.348   0.240 -0.4987  0.0210  0.4285
  599ANI     HC 8380   3.539   3.346   0.040  0.6756 -0.7862  0.2966
  599ANI     HC 8381   3.528   3.509  -0.149 -0.6921  1.5489  0.1545
  599ANI     HC 8382   3.705   3.692  -0.145 -2.9122  1.2454  1.9239
  599ANI     HC 8383   3.871   3.709   0.023  0.2504  0.3232  1.3257
  599ANI     HC 8384   3.890   3.531   0.199  0.6364 -1.1225 -1.3456
  599ANI     HN 8385   3.628   3.286   0.260 -0.7315 -0.5399 -2.0761
  599ANI     HN 8386   3.770   3.358   0.318 -0.5578  0.1251  0.4644
  600ANI     CN 8387   1.058   5.405   3.262  0.0190 -0.4919  0.3014
  600ANI     CH 8388   1.061   5.282   3.194 -0.0518 -0.2496 -0.1449
  600ANI     CH 8389   1.181   5.229   3.147  0.1876 -0.1218  0.3163
  600ANI     CH 8390   1.304   5.294   3.163  0.1602 -0.0775  0.3476
  600ANI     CH 8391   1.297   5.418   3.229 -0.0236 -0.0723  0.3150
  600ANI     CH 8392   1.178   5.475   3.278 -0.1481 -0.1628  0.1194
  600ANI     NH 8393   0.939   5.462   3.285  0.1049 -0.0694 -0.2734
  600ANI     HC 8394   0.967   5.233   3.175  0.7416 -1.5200 -0.8160
  600ANI     HC 8395   1.173   5.127   3.111 -1.4139 -0.9331  2.8739
  600ANI     HC 8396   1.400   5.263   3.125  0.8716  0.9204  1.2693
  600ANI     HC 8397   1.389   5.473   3.237  0.6186 -0.7781 -1.8657
  600ANI     HC 8398   1.172   5.575   3.317  0.6860 -0.5852  1.3529
  600ANI     HN 8399   0.876   5.428   3.214 -0.8988  0.7732  0.2091
  600ANI     HN 8400   0.944   5.563   3.291 -1.0160 -0.0158 -0.0564
  601ANI     CN 8401   2.983   5.132   2.959 -0.6313  0.5227  0.2566
  601ANI     CH 8402   2.864   5.067   2.924  0.2167 -0.7897 -0.2480
  601ANI     CH 8403   2.778   5.021   3.025  0.0693  0.1268  0.0504
  601ANI     CH 8404   2.813   5.036   3.160 -0.2088  0.3705  0.0979
  601ANI     CH 8405   2.930   5.105   3.193 -0.1846  0.5190 -0.2980
  601ANI     CH 8406   3.017   5.152   3.093 -0.0130  0.9225  0.0406
  601ANI     NH 8407   3.061   5.168   2.857 -0.3400 -0.3715  0.1628
  601ANI     HC 8408   2.832   5.047   2.823 -3.6424  2.8436  0.0973
  601ANI     HC 8409   2.689   4.965   3.000  0.1917  1.2228 -3.0792
  601ANI     HC 8410   2.748   4.993   3.235 -0.3132  1.3261  0.5540
  601ANI     HC 8411   2.945   5.119   3.299 -0.6504  1.3697 -0.3445
  601ANI     HC 8412   3.095   5.219   3.126 -0.0375  0.9817 -0.0259
  601ANI     HN 8413   3.101   5.085   2.815  0.3001  0.9896 -2.0285
  601ANI     HN 8414   3.145   5.212   2.893 -1.0724 -1.4866  3.4184
  602ANI     CN 8415   5.386   5.345   2.248  0.0576  0.1278 -0.0047
  602ANI     CH 8416   5.263   5.322   2.186  0.4818  0.5007 -0.9840
  602ANI     CH 8417   5.260   5.255   2.063 -0.3066 -0.2502 -0.5588
  602ANI     CH 8418   5.379   5.225   1.996 -0.0984  0.3487 -0.4625
  602ANI     CH 8419   5.502   5.249   2.059 -0.2124 -0.0670 -0.0692
  602ANI     CH 8420   5.505   5.304   2.187  0.0397  0.5761 -0.3463
  602ANI     NH 8421   5.389   5.421   2.359  0.3394  0.2810 -0.1161
  602ANI     HC 8422   5.173   5.369   2.222  0.6478  0.0836 -0.0313
  602ANI     HC 8423   5.167   5.251   2.008 -0.3207  0.0585 -0.5594
  602ANI     HC 8424   5.382   5.182   1.897 -1.6430 -0.7162 -0.0660
  602ANI     HC 8425   5.595   5.233   2.007 -1.2961  0.1684 -2.1660
  602ANI     HC 8426   5.605   5.320   2.225 -0.6450  0.0018  1.8013
  602ANI     HN 8427   5.478   5.457   2.391  0.5836 -0.8582  0.4969
  602ANI     HN 8428   5.329   5.501   2.343  0.7245  0.3884 -1.0155
  603ANI     CN 8429   1.007   3.778   1.899  0.3611  0.3549 -0.6028
  603ANI     CH 8430   1.141   3.821   1.898  0.2831  0.6005 -0.4676
  603ANI     CH 8431   1.241   3.745   1.837  0.3175  0.6065 -0.4177
  603ANI     CH 8432   1.207   3.619   1.788  0.1059  0.7278 -0.5837
  603ANI     CH 8433   1.077   3.569   1.798  0.3323  0.1106 -0.6959
  603ANI     CH 8434   0.977   3.649   1.855  0.5717  0.2684 -0.4958
  603ANI     NH 8435   0.921   3.852   1.971  0.1900 -0.3113 -0.1160
  603ANI     HC 8436   1.160   3.912   1.952 -1.5634  0.7903 -0.0965
  603ANI     HC 8437   1.343   3.781   1.845 -0.4178  2.4768  0.9500
  603ANI     HC 8438   1.278   3.552   1.740  1.7103  0.0095  2.5973
  603ANI     HC 8439   1.049   3.468   1.772  0.6052 -0.2418  0.3378
  603ANI     HC 8440   0.878   3.612   1.876  0.8607 -0.1893  0.0864
  603ANI     HN 8441   0.859   3.788   2.020  0.0499 -2.3016 -2.7444
  603ANI     HN 8442   0.970   3.907   2.039  2.3106  0.0875 -1.9004
  604ANI     CN 8443   6.109   2.826   5.661  0.1059 -0.0641  0.5843
  604ANI     CH 8444   6.157   2.917   5.567 -0.5093  0.1668  0.4872
  604ANI     CH 8445   6.093   2.928   5.444 -0.6542  0.2825  0.5725
  604ANI     CH 8446   5.995   2.836   5.404  0.2472 -0.2657 -0.3908
  604ANI     CH 8447   5.944   2.747   5.500  0.1423  0.4974  0.2608
  604ANI     CH 8448   6.000   2.744   5.628  0.0812  0.0918  0.2773
  604ANI     NH 8449   6.154   2.834   5.787  0.3721  0.0491  0.4797
  604ANI     HC 8450   6.247   2.972   5.592 -1.1476  1.4714 -0.0449
  604ANI     HC 8451   6.125   3.003   5.373  1.5107 -1.1193  0.0053
  604ANI     HC 8452   5.961   2.842   5.302  0.5753  0.3392 -0.4651
  604ANI     HC 8453   5.864   2.678   5.477 -0.3681  1.3127 -0.4662
  604ANI     HC 8454   5.962   2.679   5.706  0.9275 -0.6640  0.0701
  604ANI     HN 8455   6.254   2.817   5.790  0.1321 -1.3245  1.2504
  604ANI     HN 8456   6.124   2.753   5.839  0.4812 -0.4353 -0.1969
  605ANI     CN 8457   4.542   0.259   5.398 -0.3228  0.0216 -0.1400
  605ANI     CH 8458   4.528   0.161   5.299 -0.0223  0.0894 -0.2491
  605ANI     CH 8459   4.512   0.026   5.334 -0.6332  0.3516  0.4890
  605ANI     CH 8460   4.513  -0.007   5.470 -0.8372 -0.5228  0.2759
  605ANI     CH 8461   4.537   0.090   5.568  0.2213 -0.0516 -0.4476
  605ANI     CH 8462   4.553   0.224   5.534  0.1020  0.0324 -0.1730
  605ANI     NH 8463   4.569   0.382   5.353  0.0858 -0.1977 -0.4982
  605ANI     HC 8464   4.524   0.186   5.194  2.2945  0.8692 -0.1790
  605ANI     HC 8465   4.497  -0.050   5.259 -0.9837 -0.5068  1.4280
  605ANI     HC 8466   4.488  -0.110   5.492  0.5579 -0.8275  0.4887
  605ANI     HC 8467   4.542   0.066   5.673  1.0538 -0.6717 -0.6200
  605ANI     HC 8468   4.559   0.282   5.625 -1.1424 -1.8890  1.1487
  605ANI     HN 8469   4.608   0.453   5.413 -0.2921 -0.5791  0.2102
  605ANI     HN 8470   4.607   0.381   5.260 -0.4744 -2.6309 -0.7522
  606ANI     CN 8471   4.999   4.028   1.219  0.2332  0.0198 -0.2021
  606ANI     CH 8472   4.967   3.991   1.087 -1.1338 -0.3377  0.2192
  606ANI     CH 8473   5.024   3.879   1.025  0.5394  0.6893 -0.1196
  606ANI     CH 8474   5.091   3.786   1.106 -1.0967 -0.2171  0.1964
  606ANI     CH 8475   5.114   3.813   1.242 -0.1096 -0.2790  0.0445
  606ANI     CH 8476   5.070   3.934   1.296  0.6134  0.1705 -0.3682
  606ANI     NH 8477   4.945   4.135   1.278 -0.2633  0.1262 -0.8325
  606ANI     HC 8478   4.906   4.060   1.031 -1.0621 -2.5665 -2.7281
  606ANI     HC 8479   5.003   3.872   0.919  1.2979  0.1962 -0.2428
  606ANI     HC 8480   5.125   3.693   1.064  0.8337  1.2716 -1.6381
  606ANI     HC 8481   5.166   3.742   1.303 -1.0118 -0.2291  0.8826
  606ANI     HC 8482   5.083   3.953   1.401  0.8679 -1.5974 -0.0763
  606ANI     HN 8483   4.922   4.203   1.208  0.9014  1.8284  0.3855
  606ANI     HN 8484   5.016   4.184   1.332 -0.3965 -1.3034  0.6964
  607ANI     CN 8485   5.836   5.250   4.003  0.4891  0.3731 -0.1297
  607ANI     CH 8486   5.949   5.186   4.055 -0.1548 -0.1977  0.5883
  607ANI     CH 8487   6.058   5.153   3.973 -0.1164  0.4578  0.3769
  607ANI     CH 8488   6.046   5.186   3.838  0.3318  0.0087  0.2265
  607ANI     CH 8489   5.930   5.244   3.786  0.2253 -0.3813  0.0245
  607ANI     CH 8490   5.820   5.277   3.867  0.5533  0.8850 -0.0363
  607ANI     NH 8491   5.747   5.284   4.097  0.6701 -0.2378  0.2687
  607ANI     HC 8492   5.957   5.177   4.162  1.0503 -2.4401  0.3396
  607ANI     HC 8493   6.157   5.128   4.010 -0.1034  0.0220  0.0477
  607ANI     HC 8494   6.131   5.175   3.772 -0.5587 -1.6964 -0.6812
  607ANI     HC 8495   5.924   5.268   3.681 -0.2183 -2.2142 -0.3919
  607ANI     HC 8496   5.731   5.321   3.824  0.9924  0.6313 -1.2361
  607ANI     HN 8497   5.653   5.300   4.062  0.7701 -0.1869  0.0275
  607ANI     HN 8498   5.733   5.205   4.159 -3.2665 -0.3021 -0.5663
  608ANI     CN 8499   3.558   3.428   5.689 -0.0074  0.0831 -0.5964
  608ANI     CH 8500   3.693   3.435   5.653  0.2628 -0.1556  0.3743
  608ANI     CH 8501   3.765   3.554   5.639 -0.4069  0.2312  0.2130
  608ANI     CH 8502   3.700   3.669   5.685  0.2640  0.6602  0.0840
  608ANI     CH 8503   3.565   3.668   5.719  0.0870  0.2676 -0.6227
  608ANI     CH 8504   3.491   3.549   5.716  0.1913  0.2036 -0.6441
  608ANI     NH 8505   3.488   3.314   5.690 -0.7030  0.5084  0.3950
  608ANI     HC 8506   3.753   3.345   5.643  1.1041  0.2513  1.6113
  608ANI     HC 8507   3.872   3.551   5.625 -0.3160  1.0427  0.7417
  608ANI     HC 8508   3.745   3.768   5.681 -0.7314  1.0796 -1.0613
  608ANI     HC 8509   3.515   3.757   5.753 -0.8535 -0.2456 -0.6365
  608ANI     HC 8510   3.384   3.552   5.728 -0.0332 -0.7857 -2.1173
  608ANI     HN 8511   3.428   3.295   5.769 -1.0769  0.8081  0.1863
  608ANI     HN 8512   3.552   3.238   5.672  0.7467  2.1276 -1.5723
  609ANI     CN 8513   4.346   4.633   2.384  0.4477 -0.3355 -0.2313
  609ANI     CH 8514   4.386   4.735   2.296 -0.1678  0.2429  0.1586
  609ANI     CH 8515   4.466   4.840   2.343  0.2310  0.1438 -0.2961
  609ANI     CH 8516   4.515   4.836   2.474 -0.2120  0.0995 -0.1327
  609ANI     CH 8517   4.470   4.736   2.562  0.0611 -0.4780 -0.6411
  609ANI     CH 8518   4.379   4.638   2.520 -0.0964 -0.5745 -0.0886
  609ANI     NH 8519   4.265   4.537   2.337 -0.0040 -0.0230 -0.0924
  609ANI     HC 8520   4.358   4.723   2.192  1.6715  0.0918 -0.3336
  609ANI     HC 8521   4.496   4.919   2.276  2.4233 -0.9335 -0.6497
  609ANI     HC 8522   4.571   4.917   2.518  0.4687  0.2726 -1.3194
  609ANI     HC 8523   4.506   4.729   2.664 -1.8837  2.0603  0.2719
  609ANI     HC 8524   4.342   4.571   2.595  0.5223  1.9242  2.5200
  609ANI     HN 8525   4.214   4.546   2.251  3.6913  0.2522 -2.3942
  609ANI     HN 8526   4.202   4.495   2.404 -1.8153  1.5426 -0.7797
  610ANI     CN 8527   1.886   1.127   1.155 -0.1583  0.2839  0.2038
  610ANI     CH 8528   1.891   1.018   1.242  0.3227  0.0051 -0.1653
  610ANI     CH 8529   1.894   0.884   1.204  0.8396 -0.1998  0.5743
  610ANI     CH 8530   1.889   0.865   1.065  0.5140 -0.2981  0.5972
  610ANI     CH 8531   1.858   0.967   0.974  0.4143 -0.3309  0.5952
  610ANI     CH 8532   1.858   1.099   1.021  0.1204 -0.2052  0.2481
  610ANI     NH 8533   1.871   1.254   1.195 -0.1920  0.6225 -0.8613
  610ANI     HC 8534   1.888   1.044   1.347 -1.0036  0.5463 -0.3273
  610ANI     HC 8535   1.895   0.795   1.266 -1.5545 -0.9950 -0.4549
  610ANI     HC 8536   1.883   0.762   1.034  0.4055  0.1102 -0.8064
  610ANI     HC 8537   1.849   0.940   0.869 -1.6097 -4.4855  1.7056
  610ANI     HC 8538   1.831   1.182   0.957 -0.3985  0.0744  0.8340
  610ANI     HN 8539   1.772   1.271   1.191 -0.0688  1.5274 -0.1703
  610ANI     HN 8540   1.893   1.265   1.293  2.1974  2.9427 -1.5689
  611ANI     CN 8541   2.209   2.961   0.421 -0.1817 -0.0341  0.2495
  611ANI     CH 8542   2.182   2.877   0.312  0.0157  0.0998  0.0953
  611ANI     CH 8543   2.135   2.748   0.339  0.1103  0.1036  0.2884
  611ANI     CH 8544   2.106   2.707   0.470 -0.1947 -0.6950 -0.0184
  611ANI     CH 8545   2.133   2.792   0.578 -0.1556 -0.1343 -0.4622
  611ANI     CH 8546   2.187   2.918   0.552  0.5890 -0.2921  0.2973
  611ANI     NH 8547   2.244   3.086   0.389  0.0448 -0.0953  0.2558
  611ANI     HC 8548   2.214   2.905   0.213  0.2866  3.0877  0.9874
  611ANI     HC 8549   2.117   2.670   0.265  0.2640  0.3049  0.0377
  611ANI     HC 8550   2.058   2.613   0.489  1.6685 -1.3877  1.3516
  611ANI     HC 8551   2.104   2.757   0.676 -1.7903 -0.8283 -1.1760
  611ANI     HC 8552   2.216   2.984   0.633 -0.2243 -2.3936  2.3395
  611ANI     HN 8553   2.234   3.150   0.466  1.1531  2.0666 -1.3161
  611ANI     HN 8554   2.206   3.124   0.303  1.4429 -1.5031 -1.0246
  612ANI     CN 8555   3.313   0.578   3.542  0.4583 -0.8393  0.2706
  612ANI     CH 8556   3.440   0.628   3.577  0.1363  0.4515 -0.3511
  612ANI     CH 8557   3.528   0.665   3.475  0.4236 -0.1283 -0.3167
  612ANI     CH 8558   3.496   0.642   3.341 -0.5217 -0.6190 -0.0145
  612ANI     CH 8559   3.375   0.582   3.304 -0.4545 -0.5624 -0.3355
  612ANI     CH 8560   3.286   0.551   3.408  0.2505 -0.6084  0.2655
  612ANI     NH 8561   3.219   0.541   3.629 -0.2189  0.1097 -0.0443
  612ANI     HC 8562   3.455   0.654   3.681 -0.1286  2.6696 -0.8433
  612ANI     HC 8563   3.625   0.704   3.502 -0.5340  2.0086  0.1896
  612ANI     HC 8564   3.555   0.679   3.258 -0.2160 -0.5631  0.2265
  612ANI     HC 8565   3.344   0.560   3.203  1.1592  1.5048 -1.3208
  612ANI     HC 8566   3.192   0.503   3.383  0.9422 -1.8527  0.0077
  612ANI     HN 8567   3.152   0.471   3.600 -0.5425  0.0070  0.9136
  612ANI     HN 8568   3.267   0.508   3.712  0.6648 -1.5068 -1.1808
  613ANI     CN 8569   0.837   4.423   5.298 -0.0831  0.6712  0.3170
  613ANI     CH 8570   0.975   4.448   5.296  0.0439 -0.0063  0.5097
  613ANI     CH 8571   1.058   4.394   5.395  0.0635  0.8807  0.9851
  613ANI     CH 8572   1.002   4.325   5.502 -0.0230 -0.5081  0.0656
  613ANI     CH 8573   0.863   4.310   5.512 -0.1351 -0.0716 -0.7956
  613ANI     CH 8574   0.782   4.356   5.408 -0.5641 -0.6352 -0.7125
  613ANI     NH 8575   0.761   4.477   5.202 -0.3246 -0.3494 -0.0789
  613ANI     HC 8576   1.012   4.513   5.219  1.0263 -0.7641  0.3290
  613ANI     HC 8577   1.165   4.409   5.391  0.2097 -0.0577  1.1050
  613ANI     HC 8578   1.060   4.291   5.587  0.8980 -1.9811 -1.1334
  613ANI     HC 8579   0.819   4.237   5.579  0.6379  0.3545  0.1998
  613ANI     HC 8580   0.676   4.333   5.407 -1.1048  1.5854  1.2645
  613ANI     HN 8581   0.682   4.529   5.236 -1.3878 -0.8551 -1.7185
  613ANI     HN 8582   0.813   4.545   5.147 -0.0371  0.1889  0.8469
  614ANI     CN 8583   0.891   0.195   3.075 -0.1334 -0.6405 -0.8021
  614ANI     CH 8584   0.776   0.144   3.137 -0.0967 -0.2918 -0.4499
  614ANI     CH 8585   0.784   0.017   3.195 -0.0122 -0.1498 -0.1489
  614ANI     CH 8586   0.904  -0.054   3.204  0.0385 -0.0596 -0.1104
  614ANI     CH 8587   1.021   0.004   3.155  0.1590 -0.1338  0.0910
  614ANI     CH 8588   1.010   0.122   3.081  0.0318 -0.3220 -0.1897
  614ANI     NH 8589   0.877   0.309   3.006 -0.3258 -0.2029 -0.0412
  614ANI     HC 8590   0.678   0.190   3.136  0.1156  0.2245  1.0500
  614ANI     HC 8591   0.695  -0.029   3.236 -0.2495  0.1038 -0.3750
  614ANI     HC 8592   0.905  -0.150   3.254  1.1525 -0.9997 -1.8647
  614ANI     HC 8593   1.113  -0.052   3.168 -0.0980 -1.0170 -1.7828
  614ANI     HC 8594   1.094   0.162   3.026  1.3321  1.0606  2.7302
  614ANI     HN 8595   0.958   0.321   2.947 -1.3190 -0.0117 -1.3838
  614ANI     HN 8596   0.789   0.315   2.957  1.1044  0.3321 -2.6643
  615ANI     CN 8597   2.223   3.456   3.438 -0.4380  0.7496 -0.1031
  615ANI     CH 8598   2.349   3.449   3.377 -0.4987  0.3439 -0.1832
  615ANI     CH 8599   2.366   3.398   3.248  0.1993  0.7106 -0.2382
  615ANI     CH 8600   2.251   3.349   3.184  0.2983  0.0024  0.1179
  615ANI     CH 8601   2.127   3.352   3.247  0.3395  0.4669  0.1820
  615ANI     CH 8602   2.109   3.401   3.377 -0.4637  0.7038 -0.0134
  615ANI     NH 8603   2.215   3.485   3.569  0.6106 -0.1970  0.1730
  615ANI     HC 8604   2.441   3.483   3.422 -1.4125  2.0864  0.4350
  615ANI     HC 8605   2.464   3.394   3.204  0.5401  0.9304  0.4900
  615ANI     HC 8606   2.249   3.315   3.081 -1.2296  0.5717 -0.0578
  615ANI     HC 8607   2.045   3.317   3.186  0.3749  1.0214 -0.1800
  615ANI     HC 8608   2.016   3.398   3.431 -0.1242  2.2670  0.6733
  615ANI     HN 8609   2.286   3.441   3.626 -1.8380  0.0769  3.5696
  615ANI     HN 8610   2.120   3.467   3.597 -0.1353 -0.1938 -2.1930
  616ANI     CN 8611   2.973   5.093   5.527  0.5153 -0.1546 -0.4423
  616ANI     CH 8612   2.958   5.040   5.399 -0.5081  0.1716 -0.4588
  616ANI     CH 8613   2.994   5.114   5.285 -0.1809  0.3131 -0.2642
  616ANI     CH 8614   3.046   5.243   5.293 -0.4111  0.3832  0.0931
  616ANI     CH 8615   3.062   5.293   5.423  0.0200  0.2235  0.0991
  616ANI     CH 8616   3.029   5.221   5.539 -0.0473  0.0550 -0.0255
  616ANI     NH 8617   2.928   5.016   5.627  0.1611  0.4439 -0.1383
  616ANI     HC 8618   2.929   4.937   5.388  0.1829 -0.0261 -0.4043
  616ANI     HC 8619   2.972   5.073   5.187 -0.2877 -1.5534  0.5256
  616ANI     HC 8620   3.066   5.305   5.207 -1.1261 -0.2455 -0.5372
  616ANI     HC 8621   3.098   5.394   5.437  1.5349 -0.4608  1.3812
  616ANI     HC 8622   3.043   5.272   5.633  1.1861 -2.8186  1.4239
  616ANI     HN 8623   2.906   4.921   5.603  0.3065  0.2136  0.6025
  616ANI     HN 8624   2.995   5.004   5.702 -0.9989 -0.2344  0.8122
  617ANI     CN 8625   2.378   5.254   5.388 -0.1342  0.1557  0.2213
  617ANI     CH 8626   2.509   5.228   5.347 -0.2811 -0.5596  0.1966
  617ANI     CH 8627   2.541   5.101   5.298  0.0509 -0.3377 -0.1556
  617ANI     CH 8628   2.443   5.002   5.288  0.3175 -0.6169 -0.0641
  617ANI     CH 8629   2.316   5.025   5.343  0.1098  0.3641 -0.9383
  617ANI     CH 8630   2.280   5.154   5.386  0.0051  0.0251 -0.0130
  617ANI     NH 8631   2.350   5.377   5.433 -0.2003  0.1574  0.1788
  617ANI     HC 8632   2.581   5.309   5.349  1.7843 -2.3424  0.3869
  617ANI     HC 8633   2.638   5.080   5.253  0.7565 -0.9735  1.6104
  617ANI     HC 8634   2.452   4.909   5.234  0.6012 -1.4119  1.3306
  617ANI     HC 8635   2.251   4.941   5.326  1.1543 -0.3041 -1.6875
  617ANI     HC 8636   2.179   5.176   5.416  0.1368  0.4209  0.1333
  617ANI     HN 8637   2.266   5.389   5.489 -1.1525  0.0938 -1.2187
  617ANI     HN 8638   2.423   5.410   5.494 -1.0951 -1.1325  2.0239
  618ANI     CN 8639   5.577   4.817   1.865 -0.0089 -0.7376 -0.2656
  618ANI     CH 8640   5.535   4.913   1.958  0.1598 -0.8897 -0.0321
  618ANI     CH 8641   5.410   4.901   2.020  0.1675 -0.1940  0.1130
  618ANI     CH 8642   5.323   4.798   1.981  0.2340 -0.2707  0.1709
  618ANI     CH 8643   5.365   4.705   1.886 -0.5465  0.0548 -0.4937
  618ANI     CH 8644   5.490   4.716   1.823 -0.3126 -0.5294 -0.1380
  618ANI     NH 8645   5.700   4.829   1.815 -0.0599  0.0254 -0.2188
  618ANI     HC 8646   5.590   5.001   1.986 -0.4896 -0.8282  1.0506
  618ANI     HC 8647   5.387   4.968   2.101  0.9031 -0.5639  0.6250
  618ANI     HC 8648   5.224   4.792   2.022  0.0578  0.8869 -0.0530
  618ANI     HC 8649   5.300   4.622   1.861  1.0973 -1.4946  0.2147
  618ANI     HC 8650   5.526   4.641   1.753  0.4101  0.6554 -1.0557
  618ANI     HN 8651   5.738   4.748   1.766 -0.8302  1.9939 -4.2578
  618ANI     HN 8652   5.770   4.847   1.886  1.8832 -0.9941 -1.8065
  619ANI     CN 8653   5.470   4.100   0.419  0.1996 -0.0480  0.3978
  619ANI     CH 8654   5.474   3.978   0.487  0.7070 -0.1663  0.1639
  619ANI     CH 8655   5.472   3.858   0.415 -0.5892 -0.1906  0.2158
  619ANI     CH 8656   5.465   3.857   0.275  0.1298  0.4943  0.1690
  619ANI     CH 8657   5.450   3.979   0.209  0.4706  0.7021  0.4754
  619ANI     CH 8658   5.450   4.100   0.280 -0.1030  0.7209  0.4407
  619ANI     NH 8659   5.467   4.215   0.486 -0.1885  0.1905 -0.0303
  619ANI     HC 8660   5.485   3.972   0.595 -1.1430 -2.8784  0.2818
  619ANI     HC 8661   5.490   3.767   0.471  2.1248  0.8463  1.1012
  619ANI     HC 8662   5.465   3.765   0.218 -0.9047  1.6894 -1.8121
  619ANI     HC 8663   5.425   3.983   0.104 -1.2597 -0.2509  0.8405
  619ANI     HC 8664   5.440   4.189   0.221  1.9704  0.6088 -0.1223
  619ANI     HN 8665   5.411   4.278   0.429  2.7231  1.3576 -1.7323
  619ANI     HN 8666   5.426   4.201   0.577  2.7182 -2.5520  0.9197
  620ANI     CN 8667   4.377   6.093   0.159 -0.1052 -0.2016 -0.5064
  620ANI     CH 8668   4.424   6.090   0.291 -0.7363  0.5246 -0.2581
  620ANI     CH 8669   4.364   6.010   0.388  0.3666 -0.4523 -0.3633
  620ANI     CH 8670   4.249   5.935   0.359  0.1538 -0.3275  0.1395
  620ANI     CH 8671   4.199   5.940   0.229 -0.3213 -0.2952  0.3250
  620ANI     CH 8672   4.260   6.021   0.133  0.1372 -0.8427  0.1533
  620ANI     NH 8673   4.430   6.181   0.073 -0.6640  0.6477  0.0075
  620ANI     HC 8674   4.516   6.139   0.320 -0.7972  0.7966 -0.5246
  620ANI     HC 8675   4.401   6.003   0.490 -0.0045 -1.9795 -0.3163
  620ANI     HC 8676   4.213   5.857   0.425 -0.0191 -0.8790 -0.5973
  620ANI     HC 8677   4.111   5.882   0.203 -1.2983  0.9051  0.8955
  620ANI     HC 8678   4.207   6.028   0.039  0.1163  1.6358  0.3142
  620ANI     HN 8679   4.452   6.266   0.124 -0.2506  0.8082 -0.4273
  620ANI     HN 8680   4.370   6.213  -0.001 -1.1269 -0.3695 -0.0615
  621ANI     CN 8681   2.827   4.987   4.357  0.3930  0.2414  0.0132
  621ANI     CH 8682   2.935   4.899   4.341  0.3346  0.1201  0.2849
  621ANI     CH 8683   2.953   4.789   4.425 -0.2656  0.1533  0.4621
  621ANI     CH 8684   2.864   4.770   4.532 -0.9382 -0.2318 -0.1592
  621ANI     CH 8685   2.748   4.848   4.545 -0.6995 -0.0091  0.6518
  621ANI     CH 8686   2.739   4.961   4.463  0.4938 -0.4201 -0.0652
  621ANI     NH 8687   2.811   5.089   4.272 -0.5097 -0.0258 -0.1395
  621ANI     HC 8688   3.010   4.909   4.264  0.9727  0.3989  0.9360
  621ANI     HC 8689   3.042   4.730   4.408  0.7004  1.5615  0.5675
  621ANI     HC 8690   2.880   4.689   4.601 -0.2551 -2.1350 -2.4599
  621ANI     HC 8691   2.670   4.835   4.618 -0.4446  3.6114  1.6535
  621ANI     HC 8692   2.651   5.022   4.476 -0.5749 -1.7060 -1.1525
  621ANI     HN 8693   2.898   5.116   4.228  1.1198 -3.9558  0.4767
  621ANI     HN 8694   2.767   5.175   4.304 -0.1933 -0.2504  0.9107
  622ANI     CN 8695   3.059   3.486   6.161  0.1388 -0.4850  0.3138
  622ANI     CH 8696   3.193   3.520   6.142 -0.0647  0.3503  0.3798
  622ANI     CH 8697   3.225   3.592   6.026  0.1408  0.6443  0.6142
  622ANI     CH 8698   3.123   3.622   5.934  0.3643  0.4644  0.3072
  622ANI     CH 8699   2.989   3.583   5.948  0.2308  0.9070  0.2657
  622ANI     CH 8700   2.961   3.513   6.065  0.8037 -0.3411 -0.3305
  622ANI     NH 8701   3.026   3.417   6.271 -0.0557 -0.4644  0.2690
  622ANI     HC 8702   3.268   3.496   6.216 -2.5984 -1.7589  2.3609
  622ANI     HC 8703   3.323   3.632   6.005  0.8854 -2.0904 -1.4193
  622ANI     HC 8704   3.149   3.674   5.843 -0.5312  1.0611  0.3940
  622ANI     HC 8705   2.912   3.593   5.873  0.8361  3.7110 -0.0472
  622ANI     HC 8706   2.860   3.475   6.074  2.1885 -4.7372 -1.7958
  622ANI     HN 8707   2.933   3.429   6.308 -0.2954  1.2640 -0.8540
  622ANI     HN 8708   3.090   3.390   6.345  0.6793 -0.5353 -0.3920
  623ANI     CN 8709   5.312   3.735   1.650  0.0068  0.1887 -0.0464
  623ANI     CH 8710   5.299   3.601   1.611 -0.4702  0.1072  0.3757
  623ANI     CH 8711   5.414   3.525   1.638 -0.3353 -0.0595 -0.6297
  623ANI     CH 8712   5.530   3.571   1.702 -0.6631 -0.0381 -0.0483
  623ANI     CH 8713   5.526   3.701   1.754  0.5210  0.2700 -0.7123
  623ANI     CH 8714   5.418   3.786   1.725 -0.2137 -0.2187  0.5420
  623ANI     NH 8715   5.209   3.817   1.625  0.1306  0.3723  0.0461
  623ANI     HC 8716   5.212   3.558   1.565  0.0498  0.3377 -0.8581
  623ANI     HC 8717   5.417   3.425   1.598  1.5693 -0.1939 -0.1982
  623ANI     HC 8718   5.610   3.499   1.709 -0.0662  0.6884  0.6786
  623ANI     HC 8719   5.608   3.732   1.816 -0.0428  2.7424 -1.1352
  623ANI     HC 8720   5.405   3.886   1.764  0.5053 -0.1571  0.6319
  623ANI     HN 8721   5.206   3.913   1.658  1.0018  0.4432 -0.0641
  623ANI     HN 8722   5.122   3.767   1.636 -0.1601  1.6836  4.4134
  624ANI     CN 8723   2.961   0.597   6.095 -0.3618 -0.2299 -0.1454
  624ANI     CH 8724   2.827   0.607   6.056 -0.3609 -0.0580 -0.1050
  624ANI     CH 8725   2.785   0.629   5.925 -0.1535 -0.0053 -0.1629
  624ANI     CH 8726   2.881   0.622   5.823 -0.3303  0.1009 -0.3391
  624ANI     CH 8727   3.016   0.607   5.856 -0.3479 -0.4951 -0.5215
  624ANI     CH 8728   3.054   0.602   5.991 -0.6660 -0.1883 -0.4183
  624ANI     NH 8729   2.995   0.598   6.225 -0.0532 -0.2789 -0.2256
  624ANI     HC 8730   2.754   0.609   6.137  0.3950  1.6052  0.5523
  624ANI     HC 8731   2.681   0.657   5.911 -0.0164 -0.1953 -1.6518
  624ANI     HC 8732   2.860   0.640   5.719  1.1346  0.4066 -0.5885
  624ANI     HC 8733   3.091   0.602   5.778 -0.1615 -1.2205 -0.2970
  624ANI     HC 8734   3.157   0.622   6.017 -0.3950  0.3461 -1.9010
  624ANI     HN 8735   3.089   0.563   6.236 -0.4261 -1.0779  0.4613
  624ANI     HN 8736   2.929   0.574   6.298 -0.6566  0.4396 -0.5303
  625ANI     CN 8737   0.280   3.053   2.890 -0.0793 -0.6420  0.3299
  625ANI     CH 8738   0.180   3.119   2.962  0.1723 -0.0300  0.1189
  625ANI     CH 8739   0.125   3.073   3.082 -0.1808 -0.3017 -0.1483
  625ANI     CH 8740   0.178   2.952   3.130  0.0825 -0.1043  0.0605
  625ANI     CH 8741   0.290   2.893   3.071  0.4024  0.3007  0.2579
  625ANI     CH 8742   0.343   2.944   2.952  0.4146 -0.6302 -0.1452
  625ANI     NH 8743   0.323   3.108   2.776 -0.1628  0.0472  0.6290
  625ANI     HC 8744   0.138   3.212   2.926 -1.9309 -1.0603 -0.1543
  625ANI     HC 8745   0.053   3.133   3.136 -2.8708 -3.3439 -0.1484
  625ANI     HC 8746   0.126   2.912   3.216 -0.2033  0.5920  0.2195
  625ANI     HC 8747   0.348   2.812   3.113 -0.6418 -0.7677 -0.3214
  625ANI     HC 8748   0.433   2.901   2.910  0.5500 -1.0099  0.5262
  625ANI     HN 8749   0.285   3.195   2.742  0.4492 -0.2985 -1.0296
  625ANI     HN 8750   0.422   3.124   2.764 -0.4474  0.5051 -1.4403
  626ANI     CN 8751   4.183   1.581   1.365 -0.4131 -0.1376  0.4550
  626ANI     CH 8752   4.052   1.604   1.322 -0.3151 -0.0075  0.2273
  626ANI     CH 8753   4.029   1.724   1.254  0.6842 -0.1793 -0.4129
  626ANI     CH 8754   4.126   1.825   1.241  0.5452 -0.0762 -0.6609
  626ANI     CH 8755   4.255   1.803   1.290  0.2206 -0.3353  0.0812
  626ANI     CH 8756   4.282   1.679   1.349 -0.2427 -0.3357  0.2956
  626ANI     NH 8757   4.205   1.468   1.434  0.1224 -0.3503 -0.0634
  626ANI     HC 8758   3.970   1.537   1.343 -0.1121  0.1470  1.5885
  626ANI     HC 8759   3.932   1.749   1.215 -0.2535  0.1892  2.1111
  626ANI     HC 8760   4.108   1.920   1.194  2.6706  0.4962 -0.3761
  626ANI     HC 8761   4.342   1.862   1.264  0.2053  0.8682  2.5371
  626ANI     HC 8762   4.384   1.659   1.381  0.4698  1.3245 -0.8423
  626ANI     HN 8763   4.294   1.456   1.480 -1.1295 -0.1543  2.4988
  626ANI     HN 8764   4.140   1.454   1.510 -0.2716 -1.3779 -0.5786
  627ANI     CN 8765   4.224   3.715   5.945 -0.0490 -0.3367 -0.3071
  627ANI     CH 8766   4.145   3.621   6.012  0.0806  0.2028  0.6146
  627ANI     CH 8767   4.011   3.655   6.032 -0.0230  0.1256  0.0404
  627ANI     CH 8768   3.950   3.766   5.971 -0.2403 -0.0133  0.0048
  627ANI     CH 8769   4.029   3.853   5.895 -0.2941 -0.2537 -0.3266
  627ANI     CH 8770   4.166   3.827   5.884 -0.1983 -0.0505  0.3483
  627ANI     NH 8771   4.353   3.683   5.935 -0.0553 -0.5612  0.3078
  627ANI     HC 8772   4.188   3.529   6.049  2.7764  1.5695  1.0579
  627ANI     HC 8773   3.949   3.586   6.087 -1.1451  0.2779 -1.0165
  627ANI     HC 8774   3.845   3.789   5.985 -0.5155 -1.1627 -0.0871
  627ANI     HC 8775   3.988   3.943   5.852 -0.5241  0.0651  0.5396
  627ANI     HC 8776   4.222   3.891   5.817 -1.3416 -0.9176 -1.4720
  627ANI     HN 8777   4.396   3.675   6.026  0.1172 -0.9102  0.1949
  627ANI     HN 8778   4.398   3.756   5.882  1.9306 -1.0253  1.2952
  628ANI     CN 8779   4.540   5.092   1.948  0.0608  0.1959  0.1643
  628ANI     CH 8780   4.490   5.221   1.974  0.2084  0.2440  0.2019
  628ANI     CH 8781   4.378   5.240   2.055 -0.2828 -0.3513 -0.3347
  628ANI     CH 8782   4.312   5.132   2.115 -0.5253 -0.1378 -0.2153
  628ANI     CH 8783   4.352   5.004   2.075  0.2400  0.0231  0.0185
  628ANI     CH 8784   4.461   4.984   1.989 -0.3602  0.1401 -0.7764
  628ANI     NH 8785   4.646   5.073   1.869  0.4922 -0.1188  0.8128
  628ANI     HC 8786   4.547   5.302   1.932 -0.1723  0.0914 -0.6229
  628ANI     HC 8787   4.345   5.341   2.077 -2.3352 -0.8867 -0.8277
  628ANI     HC 8788   4.224   5.143   2.177 -0.7867 -0.6146 -0.4982
  628ANI     HC 8789   4.292   4.920   2.109  1.1366 -0.5795  0.1393
  628ANI     HC 8790   4.492   4.888   1.953  1.9433  1.2935 -1.9432
  628ANI     HN 8791   4.682   4.980   1.881  2.4104 -0.1076 -3.7521
  628ANI     HN 8792   4.717   5.142   1.890  0.7508 -0.0223 -0.3433
  629ANI     CN 8793   5.384   2.561   4.264  0.0577  0.7717  0.2149
  629ANI     CH 8794   5.287   2.502   4.345 -0.0419  0.3631 -0.1942
  629ANI     CH 8795   5.162   2.563   4.363  0.0022  0.4116 -0.0597
  629ANI     CH 8796   5.132   2.676   4.286 -0.5301 -0.4147 -1.0793
  629ANI     CH 8797   5.228   2.739   4.206 -0.6189  0.2425 -0.6799
  629ANI     CH 8798   5.354   2.679   4.196 -0.4635  0.4716 -0.0829
  629ANI     NH 8799   5.499   2.491   4.256  0.1067  0.8329  0.3723
  629ANI     HC 8800   5.295   2.404   4.389 -3.0130  0.2925  0.3367
  629ANI     HC 8801   5.080   2.534   4.427  0.9945 -0.5838  0.7713
  629ANI     HC 8802   5.039   2.725   4.310 -0.1642 -0.4473  0.4868
  629ANI     HC 8803   5.209   2.830   4.152 -1.2788  0.4037 -0.1776
  629ANI     HC 8804   5.424   2.723   4.126  2.1480 -3.3023  0.0096
  629ANI     HN 8805   5.579   2.530   4.208  0.3686  1.3491  1.2239
  629ANI     HN 8806   5.535   2.460   4.345 -1.4072  0.3902  0.8413
  630ANI     CN 8807   5.895   1.574   3.838  0.8262  0.0432 -0.3543
  630ANI     CH 8808   5.834   1.697   3.811  0.2580 -0.1522  0.0230
  630ANI     CH 8809   5.836   1.807   3.898  0.1152 -0.2944  0.2076
  630ANI     CH 8810   5.911   1.796   4.016  0.6427  0.4658 -0.0518
  630ANI     CH 8811   5.972   1.675   4.050 -0.0272  0.1145 -0.0828
  630ANI     CH 8812   5.960   1.567   3.961 -0.5823 -0.2161  0.3922
  630ANI     NH 8813   5.889   1.461   3.766  0.4227 -0.1911  0.0420
  630ANI     HC 8814   5.786   1.703   3.715  1.2545 -1.4026 -0.5697
  630ANI     HC 8815   5.783   1.899   3.877  3.0702  2.3161  3.6050
  630ANI     HC 8816   5.918   1.888   4.072 -0.0431 -0.3708  1.4405
  630ANI     HC 8817   6.020   1.661   4.145  2.2029 -0.7233 -1.2784
  630ANI     HC 8818   6.001   1.470   3.986 -0.1083  0.0493  0.6482
  630ANI     HN 8819   5.886   1.465   3.665 -0.7249  0.9000  0.1125
  630ANI     HN 8820   5.967   1.401   3.791  0.8543  0.1811 -0.3995
  631ANI     CN 8821   5.408   0.472   5.151 -0.0665  0.1772 -0.3022
  631ANI     CH 8822   5.310   0.469   5.251  0.0063  0.6823 -0.2127
  631ANI     CH 8823   5.227   0.581   5.268 -0.3753  0.2346  0.9061
  631ANI     CH 8824   5.242   0.696   5.190  0.4698 -0.2701  0.3163
  631ANI     CH 8825   5.331   0.693   5.081 -0.1609 -0.1795 -0.2020
  631ANI     CH 8826   5.412   0.581   5.063  0.1005  0.0498 -0.4524
  631ANI     NH 8827   5.490   0.368   5.132 -0.2274 -0.0145  0.0432
  631ANI     HC 8828   5.311   0.386   5.320  1.6133  1.4838  0.7381
  631ANI     HC 8829   5.149   0.572   5.342 -0.1794  1.4851  1.2801
  631ANI     HC 8830   5.206   0.786   5.237 -0.0682 -1.6502  2.6214
  631ANI     HC 8831   5.331   0.782   5.020 -1.4958 -0.1909 -0.2383
  631ANI     HC 8832   5.481   0.589   4.980 -1.1248  1.6093 -1.3525
  631ANI     HN 8833   5.583   0.394   5.102  0.0090 -0.3535  0.4707
  631ANI     HN 8834   5.495   0.309   5.214 -0.3568 -1.4267 -0.9410
  632ANI     CN 8835   1.929   2.263   4.284 -0.3885  0.4822 -0.0840
  632ANI     CH 8836   1.895   2.387   4.228 -0.3096  0.4488 -0.2026
  632ANI     CH 8837   1.773   2.408   4.162 -0.3825 -0.0629 -0.2338
  632ANI     CH 8838   1.685   2.301   4.147 -0.3525 -0.1061 -0.1058
  632ANI     CH 8839   1.720   2.175   4.199  0.1509  0.1329  0.1360
  632ANI     CH 8840   1.841   2.156   4.267  0.1666  0.0007  0.0707
  632ANI     NH 8841   2.049   2.253   4.341 -0.1199  0.2381 -0.6932
  632ANI     HC 8842   1.969   2.466   4.231  2.6420 -2.2293  0.0960
  632ANI     HC 8843   1.749   2.504   4.119 -1.4152  1.3202  3.2664
  632ANI     HC 8844   1.586   2.308   4.103 -1.0760 -2.1708  1.0896
  632ANI     HC 8845   1.651   2.094   4.183 -0.5087  0.7336 -0.1120
  632ANI     HC 8846   1.872   2.058   4.301 -0.3557 -0.0163  0.5064
  632ANI     HN 8847   2.126   2.240   4.276 -0.4758 -1.3320 -0.8260
  632ANI     HN 8848   2.049   2.168   4.396 -0.6495  0.2793 -0.6297
  633ANI     CN 8849   2.994   5.200   3.991 -0.2534 -0.1639  0.0252
  633ANI     CH 8850   2.872   5.243   3.936  0.2114 -0.0047 -0.8819
  633ANI     CH 8851   2.832   5.377   3.950  0.0048 -0.1361 -0.2201
  633ANI     CH 8852   2.901   5.461   4.038 -0.1521 -0.8617  0.6035
  633ANI     CH 8853   3.017   5.419   4.105 -0.0541 -0.3337  0.7676
  633ANI     CH 8854   3.061   5.290   4.074 -0.4811 -0.4149  0.4808
  633ANI     NH 8855   3.030   5.072   3.974 -0.4312 -0.1158 -0.7612
  633ANI     HC 8856   2.811   5.171   3.883 -0.3785 -1.2679  1.4581
  633ANI     HC 8857   2.744   5.416   3.902  0.0504  0.4253  0.1450
  633ANI     HC 8858   2.874   5.564   4.057 -0.4968 -0.6139 -1.1582
  633ANI     HC 8859   3.068   5.482   4.176  1.2633  0.4995 -0.8885
  633ANI     HC 8860   3.157   5.267   4.118  0.3453  0.7947 -0.6832
  633ANI     HN 8861   3.064   5.025   4.057 -0.8470 -0.3425 -0.7159
  633ANI     HN 8862   2.956   5.023   3.926 -0.9486 -0.2301  0.1309
  634ANI     CN 8863   2.284   0.220   2.287  0.0821  0.2233 -0.1741
  634ANI     CH 8864   2.321   0.348   2.328  0.2166  0.0888  0.1279
  634ANI     CH 8865   2.451   0.393   2.301 -0.2075  0.4815 -1.3395
  634ANI     CH 8866   2.543   0.307   2.241  0.3792 -0.1362  0.4043
  634ANI     CH 8867   2.507   0.180   2.193  0.2446  0.0951 -0.1110
  634ANI     CH 8868   2.374   0.143   2.212  0.2474  0.1764  0.0720
  634ANI     NH 8869   2.156   0.185   2.307  0.0598  0.2685 -0.2398
  634ANI     HC 8870   2.244   0.419   2.356 -0.6148 -0.4830 -0.6857
  634ANI     HC 8871   2.474   0.495   2.328  0.6582 -0.3341  1.1918
  634ANI     HC 8872   2.649   0.330   2.238  0.3381  0.0157  0.0940
  634ANI     HC 8873   2.584   0.113   2.158  0.9503 -0.1179  1.7835
  634ANI     HC 8874   2.336   0.055   2.162 -0.0738  0.5706 -0.3795
  634ANI     HN 8875   2.081   0.253   2.304  0.6011  0.8830  0.1370
  634ANI     HN 8876   2.133   0.093   2.273  1.4382 -0.5464  1.0169
  635ANI     CN 8877   1.950   0.329   1.394 -0.2920  0.1195 -0.1116
  635ANI     CH 8878   1.880   0.211   1.364  0.5373 -0.4858  0.3216
  635ANI     CH 8879   1.890   0.100   1.449 -0.8616 -0.4074  0.5927
  635ANI     CH 8880   1.963   0.107   1.568  0.3594  0.4076 -0.1945
  635ANI     CH 8881   2.035   0.223   1.598  0.9751 -0.0786  0.1995
  635ANI     CH 8882   2.027   0.332   1.511 -0.3525 -0.3748 -0.0579
  635ANI     NH 8883   1.951   0.442   1.323  0.0355  0.0366 -0.2402
  635ANI     HC 8884   1.815   0.207   1.278  0.5624  0.1864  0.2672
  635ANI     HC 8885   1.842   0.005   1.430 -0.8392 -0.1536 -0.7754
  635ANI     HC 8886   1.972   0.021   1.633 -0.9156  1.5759  1.5652
  635ANI     HC 8887   2.090   0.237   1.690 -1.6902  0.1794  1.7818
  635ANI     HC 8888   2.071   0.427   1.536 -1.3570  0.1038 -0.0810
  635ANI     HN 8889   1.881   0.492   1.377  0.0794  0.5300 -0.6343
  635ANI     HN 8890   2.040   0.488   1.331 -1.3400  2.6642  0.4837
  636ANI     CN 8891   1.080   2.224   5.478 -0.3220 -0.1661 -0.2668
  636ANI     CH 8892   0.965   2.302   5.466 -0.2573  0.0901  0.7566
  636ANI     CH 8893   0.842   2.238   5.487 -0.2422 -0.0040  0.5604
  636ANI     CH 8894   0.838   2.105   5.529  0.0886 -0.0811  0.3545
  636ANI     CH 8895   0.954   2.033   5.559 -0.2486 -0.8556 -0.1702
  636ANI     CH 8896   1.077   2.094   5.529 -0.5609  0.1917  0.6239
  636ANI     NH 8897   1.196   2.278   5.438 -0.1302 -0.1037  0.3760
  636ANI     HC 8898   0.970   2.399   5.418  0.7755  0.6305  1.9294
  636ANI     HC 8899   0.753   2.293   5.462  0.1791  0.7476  0.6903
  636ANI     HC 8900   0.745   2.051   5.539  0.5001 -0.8007  0.3010
  636ANI     HC 8901   0.954   1.933   5.600 -3.1324 -0.0037  2.1369
  636ANI     HC 8902   1.173   2.048   5.549  0.4073  0.3076 -3.3687
  636ANI     HN 8903   1.206   2.363   5.385  0.4422 -0.2075  0.3160
  636ANI     HN 8904   1.273   2.213   5.433 -1.0601 -1.1719 -0.3174
  637ANI     CN 8905   6.091   1.678   1.192  0.2047  0.3409  0.3067
  637ANI     CH 8906   6.078   1.693   1.330  0.1184  0.2301  0.3104
  637ANI     CH 8907   5.986   1.787   1.377  0.1890  0.5252 -0.1380
  637ANI     CH 8908   5.914   1.863   1.285  0.5438  0.2922 -0.6069
  637ANI     CH 8909   5.926   1.849   1.146  0.0223  0.3444 -0.6588
  637ANI     CH 8910   6.021   1.757   1.099  0.0280 -0.0455  0.1131
  637ANI     NH 8911   6.177   1.585   1.149 -0.0689  0.1247  0.2292
  637ANI     HC 8912   6.152   1.644   1.393 -1.9034 -0.8287  1.9054
  637ANI     HC 8913   5.969   1.808   1.482  1.6552  2.6022 -0.3055
  637ANI     HC 8914   5.838   1.926   1.329  0.5236 -1.1155  1.4227
  637ANI     HC 8915   5.861   1.909   1.084 -0.8080  2.3803  2.1197
  637ANI     HC 8916   6.027   1.739   0.993 -1.5262  0.9744 -0.1590
  637ANI     HN 8917   6.195   1.589   1.050 -0.1779 -1.0005  0.1520
  637ANI     HN 8918   6.146   1.491   1.171  3.0426 -0.9786  0.1304
  638ANI     CN 8919   2.439   0.276   0.455 -0.3069 -0.0028  0.4993
  638ANI     CH 8920   2.554   0.229   0.519 -0.0887 -0.1057  0.0346
  638ANI     CH 8921   2.536   0.158   0.639  0.3353 -0.1792  0.0554
  638ANI     CH 8922   2.409   0.126   0.688  0.1814  0.6400  0.1987
  638ANI     CH 8923   2.295   0.183   0.630 -0.2828 -0.4176  0.0671
  638ANI     CH 8924   2.313   0.260   0.514 -0.4040 -0.0791  0.2720
  638ANI     NH 8925   2.450   0.336   0.336 -0.4954 -0.3074  0.3264
  638ANI     HC 8926   2.651   0.241   0.473 -0.5224  2.3877 -0.2860
  638ANI     HC 8927   2.618   0.117   0.696  0.1132 -0.5870  0.0823
  638ANI     HC 8928   2.398   0.067   0.777  3.1867  0.6104  0.5999
  638ANI     HC 8929   2.196   0.161   0.666 -1.4868  3.0391 -0.9768
  638ANI     HC 8930   2.229   0.305   0.463  0.0403  0.6106  0.1468
  638ANI     HN 8931   2.384   0.410   0.317 -2.0832 -2.2740 -2.2229
  638ANI     HN 8932   2.542   0.347   0.295  0.9310  1.0885  3.7150
  639ANI     CN 8933   3.275   5.977   4.068  1.2248  0.3215 -0.0574
  639ANI     CH 8934   3.289   5.841   4.039 -0.4389  0.0144  0.5587
  639ANI     CH 8935   3.250   5.788   3.916  0.0710  0.7824  0.0670
  639ANI     CH 8936   3.185   5.873   3.825 -0.3381  0.1667 -0.2165
  639ANI     CH 8937   3.163   6.008   3.855 -0.0642  0.1774 -0.0616
  639ANI     CH 8938   3.214   6.061   3.974  0.2959 -0.2861 -0.0053
  639ANI     NH 8939   3.338   6.027   4.175  0.1831 -0.1191  0.7590
  639ANI     HC 8940   3.338   5.778   4.112  1.1238 -0.5909 -0.9843
  639ANI     HC 8941   3.280   5.688   3.888  0.5208  1.2657 -1.2471
  639ANI     HC 8942   3.160   5.843   3.724  2.3579  1.2886 -1.2769
  639ANI     HC 8943   3.110   6.075   3.790  1.0147  0.1354 -0.9959
  639ANI     HC 8944   3.183   6.162   3.995 -0.9931 -0.7835  0.4925
  639ANI     HN 8945   3.426   5.979   4.189  0.9110  0.9098 -0.2370
  639ANI     HN 8946   3.354   6.127   4.168 -1.8741  0.1201 -1.3475
  640ANI     CN 8947   5.738   4.322   3.734 -0.1213  0.1331 -0.3143
  640ANI     CH 8948   5.704   4.192   3.694  0.0599 -0.0879  0.2519
  640ANI     CH 8949   5.619   4.120   3.778  0.5088  0.0275  0.8102
  640ANI     CH 8950   5.569   4.168   3.900 -0.2799 -0.3005  0.6229
  640ANI     CH 8951   5.608   4.297   3.936  0.1617 -0.2874  0.0947
  640ANI     CH 8952   5.690   4.376   3.853 -0.9733  0.1213 -0.6457
  640ANI     NH 8953   5.818   4.395   3.656  0.2044 -0.8236 -0.8910
  640ANI     HC 8954   5.747   4.141   3.609  2.3271 -0.0732  1.3522
  640ANI     HC 8955   5.616   4.015   3.755  1.1835 -0.1435  1.4883
  640ANI     HC 8956   5.511   4.103   3.964 -1.7343  0.6704  0.3185
  640ANI     HC 8957   5.575   4.341   4.029 -1.4787 -2.1175  0.4087
  640ANI     HC 8958   5.719   4.475   3.886  0.0752 -0.6801  0.8567
  640ANI     HN 8959   5.855   4.342   3.578 -0.7843  0.5158 -2.3130
  640ANI     HN 8960   5.902   4.427   3.702  0.4858 -1.2233 -1.1249
  641ANI     CN 8961   0.290   4.968   2.199  0.3399  0.5625  0.2131
  641ANI     CH 8962   0.418   5.007   2.242  0.5876 -0.0498  0.0335
  641ANI     CH 8963   0.500   5.089   2.164 -0.0539  0.5115 -0.0629
  641ANI     CH 8964   0.451   5.132   2.040 -0.2747 -0.0659 -0.1792
  641ANI     CH 8965   0.320   5.104   1.999 -0.2996 -0.1500 -0.0444
  641ANI     CH 8966   0.240   5.025   2.082 -0.3016  0.2516  0.3372
  641ANI     NH 8967   0.208   4.900   2.280  0.2445 -0.5187 -0.7865
  641ANI     HC 8968   0.458   4.973   2.336  1.3129  0.8447  0.0571
  641ANI     HC 8969   0.603   5.108   2.192  0.3230 -1.2584 -0.1973
  641ANI     HC 8970   0.520   5.180   1.972  1.4216 -1.0848  0.8156
  641ANI     HC 8971   0.272   5.148   1.912 -1.4757 -0.7642  0.2867
  641ANI     HC 8972   0.141   4.997   2.048  0.3121  0.2041 -1.5023
  641ANI     HN 8973   0.114   4.932   2.262  0.4776  1.7341  1.7722
  641ANI     HN 8974   0.222   4.928   2.376  1.0304  1.3228 -1.4050
  642ANI     CN 8975   4.023   1.631   5.542 -0.3004 -0.2808  0.3846
  642ANI     CH 8976   3.922   1.534   5.535 -0.3211 -0.2084 -0.3597
  642ANI     CH 8977   3.788   1.576   5.533 -0.4478 -0.6198 -0.5458
  642ANI     CH 8978   3.757   1.712   5.550  0.8356 -0.3418 -0.3291
  642ANI     CH 8979   3.855   1.811   5.559 -0.0647  0.6517 -1.2787
  642ANI     CH 8980   3.988   1.766   5.555 -0.3244 -0.1507 -1.0172
  642ANI     NH 8981   4.152   1.596   5.546 -0.2619 -0.1949 -0.0882
  642ANI     HC 8982   3.941   1.428   5.534 -0.7317 -0.2788 -1.7647
  642ANI     HC 8983   3.713   1.499   5.529 -1.8261  0.6210  1.1606
  642ANI     HC 8984   3.652   1.734   5.556  1.5255  2.7674  1.0378
  642ANI     HC 8985   3.833   1.913   5.585  3.0623  0.8619  0.8201
  642ANI     HC 8986   4.067   1.840   5.558 -0.4547 -0.0618  0.5171
  642ANI     HN 8987   4.146   1.495   5.541 -1.6356 -0.0626 -1.8688
  642ANI     HN 8988   4.188   1.620   5.637 -0.4247 -1.9934  0.4851
  643ANI     CN 8989   3.656   0.965   1.480 -0.4451  0.1089 -0.0948
  643ANI     CH 8990   3.573   0.889   1.397  0.0007 -0.2426 -0.2188
  643ANI     CH 8991   3.582   0.906   1.259  0.6098 -0.2743 -0.1862
  643ANI     CH 8992   3.666   1.003   1.204  0.0300 -0.1803 -0.9220
  643ANI     CH 8993   3.761   1.064   1.287 -0.5167 -0.8529  0.1961
  643ANI     CH 8994   3.753   1.051   1.427 -0.3529  0.2601  0.3113
  643ANI     NH 8995   3.642   0.942   1.611 -0.0622 -0.1025 -0.0887
  643ANI     HC 8996   3.488   0.826   1.417 -1.0090  1.7833  2.1982
  643ANI     HC 8997   3.512   0.861   1.189 -1.6389  0.2705  1.6470
  643ANI     HC 8998   3.668   1.022   1.097  0.2862 -1.2684 -1.1151
  643ANI     HC 8999   3.845   1.122   1.253 -1.2283  0.2107  0.2217
  643ANI     HC 9000   3.829   1.088   1.494 -0.7582 -0.4409  1.1594
  643ANI     HN 9001   3.650   0.842   1.625 -1.1593 -0.1709  0.0948
  643ANI     HN 9002   3.709   0.996   1.664 -0.8649 -0.5853  1.4650
  644ANI     CN 9003   1.693   4.524   0.433 -0.0113  0.1334  0.6948
  644ANI     CH 9004   1.577   4.466   0.379  0.2760 -0.0334  0.2560
  644ANI     CH 9005   1.587   4.362   0.286 -0.0778  0.3542 -0.2167
  644ANI     CH 9006   1.713   4.330   0.234 -0.3079  0.0831 -0.6096
  644ANI     CH 9007   1.830   4.387   0.286 -0.3836 -0.1305 -0.2026
  644ANI     CH 9008   1.818   4.483   0.386 -0.4214 -0.4015  0.0521
  644ANI     NH 9009   1.678   4.630   0.514 -0.3146  1.0013 -0.4907
  644ANI     HC 9010   1.483   4.507   0.411 -0.2117  0.1977 -1.4582
  644ANI     HC 9011   1.498   4.325   0.238 -0.2815 -0.2044  0.5726
  644ANI     HC 9012   1.719   4.252   0.159  2.8695 -2.3456  2.0503
  644ANI     HC 9013   1.932   4.369   0.255 -0.3367 -2.0011  0.9595
  644ANI     HC 9014   1.906   4.521   0.437  0.2914 -1.5900 -0.2805
  644ANI     HN 9015   1.755   4.696   0.521 -0.5221  1.1134  0.8051
  644ANI     HN 9016   1.584   4.661   0.531 -0.4411  0.5106 -0.2950
  645ANI     CN 9017   0.141   5.392   2.784 -0.0247 -0.0592 -0.0475
  645ANI     CH 9018   0.106   5.264   2.740  0.0744 -0.0764 -0.0750
  645ANI     CH 9019   0.100   5.158   2.831 -0.3955  0.0905  0.0869
  645ANI     CH 9020   0.142   5.179   2.963 -0.3344  0.3050  0.0346
  645ANI     CH 9021   0.165   5.308   3.011  0.9516  0.1728 -0.1909
  645ANI     CH 9022   0.160   5.415   2.921  0.3658  0.1934 -0.1423
  645ANI     NH 9023   0.132   5.494   2.697 -0.1831  0.0223  0.0662
  645ANI     HC 9024   0.087   5.248   2.635 -0.0607 -0.8593  0.0689
  645ANI     HC 9025   0.078   5.060   2.792  1.2859  0.0982 -0.9571
  645ANI     HC 9026   0.137   5.093   3.029 -3.5186  0.1653 -0.3211
  645ANI     HC 9027   0.188   5.322   3.116  0.7415 -0.3031 -0.0765
  645ANI     HC 9028   0.187   5.515   2.951  0.6415  0.9080 -2.6170
  645ANI     HN 9029   0.176   5.469   2.610 -1.8687 -0.1718 -0.7569
  645ANI     HN 9030   0.181   5.580   2.717  0.8762 -0.7454  0.8641
  646ANI     CN 9031   2.735   0.842   4.865 -0.1275 -0.5208 -0.4756
  646ANI     CH 9032   2.867   0.824   4.909  0.1793  0.2699 -1.0614
  646ANI     CH 9033   2.939   0.705   4.892 -0.0059 -0.0536  0.3070
  646ANI     CH 9034   2.869   0.594   4.843  0.4031 -0.1517 -0.0605
  646ANI     CH 9035   2.732   0.606   4.816  0.4440 -0.2123 -0.3005
  646ANI     CH 9036   2.664   0.729   4.824 -0.4479 -0.7687  0.7419
  646ANI     NH 9037   2.675   0.961   4.875  0.0927 -0.4593  0.1784
  646ANI     HC 9038   2.912   0.911   4.955  0.1795 -1.0513  1.5273
  646ANI     HC 9039   3.044   0.700   4.916 -0.4114  0.5852  2.3087
  646ANI     HC 9040   2.911   0.495   4.832 -2.6386 -1.8728  2.7571
  646ANI     HC 9041   2.675   0.530   4.766 -0.5883 -0.1195  0.7001
  646ANI     HC 9042   2.561   0.741   4.795 -0.4047  1.6762  1.5098
  646ANI     HN 9043   2.732   1.041   4.853 -1.4303  0.8084  0.7398
  646ANI     HN 9044   2.589   0.971   4.823  0.0090  0.9946  0.5644
  647ANI     CN 9045   4.603   5.603   5.311  0.7268  0.7973  0.2513
  647ANI     CH 9046   4.557   5.655   5.190 -0.2968 -0.0286  0.2717
  647ANI     CH 9047   4.426   5.700   5.170 -0.3641 -0.4225 -0.1804
  647ANI     CH 9048   4.337   5.683   5.277  0.4273 -0.1140  0.5248
  647ANI     CH 9049   4.379   5.623   5.396  0.5715 -0.8893  0.0860
  647ANI     CH 9050   4.512   5.583   5.416  0.7035 -0.5035 -0.0084
  647ANI     NH 9051   4.729   5.560   5.322  0.2837 -0.4067  0.7303
  647ANI     HC 9052   4.628   5.673   5.110 -1.4852  1.2513 -0.5310
  647ANI     HC 9053   4.397   5.749   5.078 -0.1030  1.1489  0.5462
  647ANI     HC 9054   4.241   5.731   5.262  0.7755  0.5437  0.3413
  647ANI     HC 9055   4.301   5.622   5.471 -0.7045 -0.8426 -1.2116
  647ANI     HC 9056   4.530   5.538   5.512 -1.0691 -0.4371  0.3729
  647ANI     HN 9057   4.800   5.631   5.317  0.1277 -0.3588 -0.8270
  647ANI     HN 9058   4.753   5.517   5.411 -0.3297 -1.1129  0.5629
  648ANI     CN 9059   5.876   0.424   2.613  0.0670 -0.1909 -0.1797
  648ANI     CH 9060   6.012   0.412   2.578  0.2012  0.0940  0.2457
  648ANI     CH 9061   6.081   0.296   2.615  0.1038 -0.0372  0.0187
  648ANI     CH 9062   6.024   0.198   2.697  0.2820  0.0555  0.2537
  648ANI     CH 9063   5.892   0.220   2.739  0.0950  0.0812 -0.3427
  648ANI     CH 9064   5.820   0.334   2.703  0.0138  0.1950  0.1751
  648ANI     NH 9065   5.804   0.534   2.587 -0.2190 -0.4614 -0.5253
  648ANI     HC 9066   6.067   0.488   2.525 -1.1332  1.4082  0.6741
  648ANI     HC 9067   6.183   0.301   2.583  0.1320 -1.1967 -0.0849
  648ANI     HC 9068   6.080   0.114   2.736  0.9941 -0.9565 -2.8537
  648ANI     HC 9069   5.856   0.156   2.818  3.0741 -0.9990  0.2034
  648ANI     HC 9070   5.719   0.360   2.731 -0.3943  0.1930 -1.2561
  648ANI     HN 9071   5.835   0.555   2.493  0.5755  0.2822 -0.1000
  648ANI     HN 9072   5.704   0.518   2.591 -0.1202 -0.9014  0.2348
  649ANI     CN 9073   1.461   1.257   4.175  0.0752  0.2211 -0.4912
  649ANI     CH 9074   1.441   1.189   4.055  0.4185 -0.1471 -0.3411
  649ANI     CH 9075   1.551   1.170   3.970  0.5864 -0.7162  0.0023
  649ANI     CH 9076   1.676   1.226   3.999 -0.0215  0.5094  0.2772
  649ANI     CH 9077   1.690   1.284   4.126  0.2690  0.2073  0.3828
  649ANI     CH 9078   1.586   1.306   4.217  0.0121 -0.1864  0.1825
  649ANI     NH 9079   1.359   1.282   4.258  0.5174 -0.3747  0.2459
  649ANI     HC 9080   1.347   1.150   4.016  0.1024 -0.2315  0.4903
  649ANI     HC 9081   1.530   1.113   3.881 -2.9366 -1.9251  1.5134
  649ANI     HC 9082   1.764   1.194   3.946  0.9409  1.1303  1.4741
  649ANI     HC 9083   1.790   1.306   4.160  1.4810 -2.3019 -1.4516
  649ANI     HC 9084   1.606   1.350   4.313  0.7439  1.1204 -0.5675
  649ANI     HN 9085   1.355   1.378   4.289 -1.7801 -0.8738  1.6596
  649ANI     HN 9086   1.271   1.265   4.210  0.0283 -0.5079  1.1876
  650ANI     CN 9087   4.372   0.244   2.364  0.0296 -0.4828  0.2416
  650ANI     CH 9088   4.258   0.245   2.445 -0.2133 -0.8219 -0.0899
  650ANI     CH 9089   4.141   0.304   2.397  0.1201 -0.0219  0.0686
  650ANI     CH 9090   4.136   0.351   2.265 -0.3809 -0.1542  0.0383
  650ANI     CH 9091   4.246   0.332   2.181  0.1725  0.2721  0.6552
  650ANI     CH 9092   4.366   0.277   2.228  0.4395  0.7283  0.5101
  650ANI     NH 9093   4.490   0.205   2.415  0.3962  0.1199 -0.1491
  650ANI     HC 9094   4.280   0.212   2.546 -2.1381  0.4058  0.7458
  650ANI     HC 9095   4.063   0.314   2.471  1.2488  0.3331  1.2093
  650ANI     HC 9096   4.043   0.388   2.224 -0.6429 -2.2405 -1.3106
  650ANI     HC 9097   4.231   0.386   2.089 -0.8320  0.6351  1.0221
  650ANI     HC 9098   4.455   0.275   2.167 -1.6482  2.1362 -2.6948
  650ANI     HN 9099   4.556   0.166   2.349 -1.4871 -0.2328 -1.8953
  650ANI     HN 9100   4.469   0.141   2.490  0.2713 -1.0165 -1.1463
  651ANI     CN 9101   2.909   5.509   1.181  0.2358 -0.1329  0.1384
  651ANI     CH 9102   2.908   5.427   1.068 -0.3904 -0.1104  0.1264
  651ANI     CH 9103   2.821   5.318   1.053 -0.2535 -0.1917 -0.0838
  651ANI     CH 9104   2.731   5.296   1.157  0.1609 -0.2408  0.2688
  651ANI     CH 9105   2.721   5.384   1.266 -0.1807 -0.3022  0.2912
  651ANI     CH 9106   2.811   5.490   1.280  0.1882 -0.5766  0.0068
  651ANI     NH 9107   2.983   5.621   1.191 -0.2102  0.1457  0.3535
  651ANI     HC 9108   2.973   5.438   0.982 -0.5819  1.0695  0.1199
  651ANI     HC 9109   2.830   5.245   0.975  0.1986 -1.5911  1.2472
  651ANI     HC 9110   2.662   5.213   1.154 -0.5926  0.1448  3.9414
  651ANI     HC 9111   2.652   5.367   1.347 -1.4496  0.9266 -0.5190
  651ANI     HC 9112   2.808   5.566   1.357  0.3504 -0.7728  0.2064
  651ANI     HN 9113   3.039   5.642   1.110 -1.0920 -0.8163 -0.5380
  651ANI     HN 9114   2.925   5.702   1.205 -0.2985  0.4603 -1.6856
  652ANI     CN 9115   3.681   4.497   4.842  0.1039  0.0518  0.3480
  652ANI     CH 9116   3.612   4.379   4.868  0.7827 -0.4726 -0.2009
  652ANI     CH 9117   3.482   4.392   4.918  1.1293  0.1087  0.5689
  652ANI     CH 9118   3.418   4.513   4.944  0.0705 -0.3617  0.2141
  652ANI     CH 9119   3.497   4.627   4.929 -0.1283 -0.2668 -0.1007
  652ANI     CH 9120   3.629   4.621   4.882 -0.0298  0.0674  0.1278
  652ANI     NH 9121   3.806   4.499   4.794 -0.2360 -0.3721 -0.5659
  652ANI     HC 9122   3.653   4.284   4.836 -0.2750 -0.4314 -1.7240
  652ANI     HC 9123   3.430   4.297   4.931  0.1622  0.8241  2.0783
  652ANI     HC 9124   3.316   4.522   4.979  0.0619 -0.4651  0.2162
  652ANI     HC 9125   3.461   4.723   4.962  0.8990 -0.7452  2.5366
  652ANI     HC 9126   3.689   4.711   4.878  1.1914 -0.6886  0.9828
  652ANI     HN 9127   3.814   4.581   4.735  0.3165 -0.8939 -1.2321
  652ANI     HN 9128   3.826   4.420   4.735 -2.4678  0.1566 -2.1020
  653ANI     CN 9129   4.513   0.473   3.912  0.6671 -0.6297  0.6090
  653ANI     CH 9130   4.522   0.379   3.809  0.3974  0.0921 -0.0740
  653ANI     CH 9131   4.610   0.392   3.700 -0.0136  0.1931 -0.3922
  653ANI     CH 9132   4.700   0.499   3.697  0.0875  0.1222  0.0759
  653ANI     CH 9133   4.693   0.598   3.795 -0.3351  0.1192  0.0476
  653ANI     CH 9134   4.602   0.581   3.900 -0.5703  0.3146 -0.1228
  653ANI     NH 9135   4.425   0.470   4.013 -0.2727 -0.5747 -0.2014
  653ANI     HC 9136   4.461   0.290   3.807  0.3138  0.1324  0.6722
  653ANI     HC 9137   4.623   0.314   3.626  2.2490 -0.5652  0.7680
  653ANI     HC 9138   4.776   0.497   3.619  0.4961 -3.0912  0.4611
  653ANI     HC 9139   4.765   0.678   3.789  1.0177 -1.0915  0.0853
  653ANI     HC 9140   4.596   0.663   3.970 -0.5427  0.2321 -0.0245
  653ANI     HN 9141   4.475   0.500   4.095 -1.4657 -0.6261  0.5548
  653ANI     HN 9142   4.393   0.379   4.043 -1.9924 -0.7317 -2.3844
  654ANI     CN 9143   3.738   1.729   1.755 -0.0198 -0.0389  0.2034
  654ANI     CH 9144   3.730   1.841   1.671  0.4286  0.0314  0.2521
  654ANI     CH 9145   3.841   1.881   1.597  0.0437 -0.4927 -0.6132
  654ANI     CH 9146   3.963   1.814   1.608  0.5622  0.5950  0.3615
  654ANI     CH 9147   3.967   1.709   1.701 -0.6274  0.1121 -0.1193
  654ANI     CH 9148   3.858   1.659   1.773 -0.1721 -0.2716  0.3116
  654ANI     NH 9149   3.632   1.678   1.819 -0.1672  0.0305  0.0167
  654ANI     HC 9150   3.635   1.893   1.661 -0.8861 -1.8397  2.4849
  654ANI     HC 9151   3.843   1.966   1.529  0.7424 -0.0980 -0.1054
  654ANI     HC 9152   4.056   1.849   1.567 -0.2072  0.8947 -1.1544
  654ANI     HC 9153   4.065   1.668   1.721 -0.7259  0.2729  0.7153
  654ANI     HC 9154   3.863   1.573   1.838  1.2860 -0.9002 -0.6056
  654ANI     HN 9155   3.551   1.658   1.762 -0.8253 -1.1422  1.3395
  654ANI     HN 9156   3.662   1.597   1.872 -0.5417  0.2059  0.4929
  655ANI     CN 9157   6.243   4.554   1.787  0.0683 -0.1263 -0.0220
  655ANI     CH 9158   6.339   4.646   1.745  0.1247  0.0068  0.3981
  655ANI     CH 9159   6.419   4.715   1.836  0.3281 -0.0921  0.2956
  655ANI     CH 9160   6.404   4.689   1.973  0.1264  0.2836  0.3465
  655ANI     CH 9161   6.302   4.602   2.015  0.4987 -0.3526 -0.0535
  655ANI     CH 9162   6.222   4.533   1.924  0.3021 -0.1998  0.0023
  655ANI     NH 9163   6.172   4.486   1.695 -0.4518  0.1629  0.1672
  655ANI     HC 9164   6.362   4.659   1.640 -1.2176  0.5305  0.1628
  655ANI     HC 9165   6.491   4.786   1.797 -1.0357 -0.1290 -2.3887
  655ANI     HC 9166   6.467   4.746   2.039 -0.1340  1.4107 -0.3659
  655ANI     HC 9167   6.277   4.596   2.120 -0.5760 -2.5995 -0.4194
  655ANI     HC 9168   6.148   4.466   1.964  0.7669 -0.8302 -0.1780
  655ANI     HN 9169   6.139   4.393   1.714 -0.8362 -0.4737 -3.3224
  655ANI     HN 9170   6.216   4.486   1.605  0.2713  2.7184  0.4799
  656ANI     CN 9171   1.072   0.514   2.552 -0.0037 -0.3087  0.0314
  656ANI     CH 9172   1.057   0.449   2.674 -0.4082  0.2278  0.2714
  656ANI     CH 9173   1.132   0.498   2.782  0.8570 -0.2922 -0.3566
  656ANI     CH 9174   1.221   0.604   2.764 -0.2802  0.7632  0.1407
  656ANI     CH 9175   1.242   0.663   2.639  0.4005 -0.0932 -0.1566
  656ANI     CH 9176   1.158   0.623   2.534 -0.0652 -0.2215  0.2584
  656ANI     NH 9177   1.012   0.471   2.440  0.1180  0.3178 -0.2786
  656ANI     HC 9178   0.994   0.361   2.673  1.3231 -1.0630  0.6535
  656ANI     HC 9179   1.123   0.441   2.873 -2.6543 -1.4479 -1.3542
  656ANI     HC 9180   1.284   0.635   2.846  0.4279 -0.7724  0.1926
  656ANI     HC 9181   1.321   0.732   2.615  2.0041 -2.3249 -1.4598
  656ANI     HC 9182   1.182   0.671   2.440  2.1702 -0.5494  0.6268
  656ANI     HN 9183   0.912   0.459   2.440  0.0858  0.4926 -1.6074
  656ANI     HN 9184   1.002   0.543   2.370 -0.7916  1.2155  0.7401
  657ANI     CN 9185   1.302   1.582   4.810 -0.2996  0.3832 -0.0592
  657ANI     CH 9186   1.173   1.595   4.862 -0.1485 -0.1246  0.4477
  657ANI     CH 9187   1.145   1.683   4.967 -0.2252 -0.2580  0.5380
  657ANI     CH 9188   1.252   1.757   5.019 -0.0921 -0.1280  0.0790
  657ANI     CH 9189   1.384   1.734   4.981  0.1456  0.2678  0.6531
  657ANI     CH 9190   1.408   1.649   4.872 -0.5679  0.3774  0.4050
  657ANI     NH 9191   1.322   1.497   4.708  0.3568 -0.0766  0.4482
  657ANI     HC 9192   1.089   1.546   4.815  0.1938  0.6088 -0.9552
  657ANI     HC 9193   1.046   1.702   5.007  0.2250  0.7613  1.2002
  657ANI     HC 9194   1.242   1.827   5.101  1.2481  0.4298 -0.2214
  657ANI     HC 9195   1.475   1.783   5.012  1.2728 -2.1333  1.2845
  657ANI     HC 9196   1.503   1.619   4.830 -0.6716  2.8202 -1.6941
  657ANI     HN 9197   1.421   1.474   4.705  0.7938  1.8093 -1.0922
  657ANI     HN 9198   1.270   1.411   4.707  1.4490 -0.7626  1.1457
  658ANI     CN 9199   3.116   6.162   2.848  0.0016 -0.2636 -0.0102
  658ANI     CH 9200   3.045   6.225   2.951  0.3029 -0.1524  0.1296
  658ANI     CH 9201   2.927   6.170   3.003  0.0650  0.0308 -0.2206
  658ANI     CH 9202   2.874   6.051   2.951 -0.3324  0.2201 -0.2519
  658ANI     CH 9203   2.940   5.996   2.841  0.0245  0.3437 -0.0986
  658ANI     CH 9204   3.057   6.051   2.787  0.0484 -0.0513 -0.4439
  658ANI     NH 9205   3.223   6.220   2.791  0.1632 -0.3537  0.2030
  658ANI     HC 9206   3.078   6.324   2.978 -0.0535  0.0683 -0.2408
  658ANI     HC 9207   2.866   6.221   3.076 -0.1538  0.3273 -0.6080
  658ANI     HC 9208   2.795   5.991   2.994  0.3683 -0.0473  0.6701
  658ANI     HC 9209   2.898   5.904   2.804  1.1225 -0.2538  0.1378
  658ANI     HC 9210   3.104   5.988   2.712 -0.5340 -1.7373  0.5771
  658ANI     HN 9211   3.230   6.196   2.693 -1.8161 -0.3911  0.0472
  658ANI     HN 9212   3.207   6.320   2.788 -0.1047 -0.4213 -0.7843
  659ANI     CN 9213   3.118   5.076   2.063 -0.1056  0.2211  0.3343
  659ANI     CH 9214   3.192   5.095   1.946  0.3560  0.0249  0.5969
  659ANI     CH 9215   3.261   4.984   1.895 -0.1979 -0.1023  0.1253
  659ANI     CH 9216   3.264   4.861   1.962 -0.2980 -0.4776 -0.5620
  659ANI     CH 9217   3.198   4.851   2.085 -0.0604  0.1331 -0.3819
  659ANI     CH 9218   3.115   4.954   2.131  0.3658  0.1819  0.2796
  659ANI     NH 9219   3.028   5.168   2.101 -0.4477 -0.0593  0.2163
  659ANI     HC 9220   3.179   5.187   1.891 -1.3678  1.1380  2.7684
  659ANI     HC 9221   3.317   5.002   1.805 -0.6596 -1.8841 -0.5294
  659ANI     HC 9222   3.306   4.773   1.914  0.5824  0.2064 -1.0707
  659ANI     HC 9223   3.195   4.755   2.135 -0.2531  0.8503  1.0008
  659ANI     HC 9224   3.067   4.943   2.227  0.2066  0.2456  0.2060
  659ANI     HN 9225   2.953   5.133   2.158  0.8898 -1.2261  1.2919
  659ANI     HN 9226   2.983   5.218   2.025  0.7330 -2.4033 -2.0926
  660ANI     CN 9227   5.476   5.751   1.015  0.4772  0.0521  0.3202
  660ANI     CH 9228   5.464   5.888   1.037  0.5740  0.0875  0.1500
  660ANI     CH 9229   5.458   5.933   1.170 -0.1952  0.0724  0.1227
  660ANI     CH 9230   5.463   5.850   1.283  0.2400 -0.0225  0.0361
  660ANI     CH 9231   5.477   5.714   1.255  0.4988 -0.0173  0.1444
  660ANI     CH 9232   5.480   5.663   1.125  0.5627 -0.1146  0.1833
  660ANI     NH 9233   5.464   5.711   0.888 -0.8215 -0.0317  0.4518
  660ANI     HC 9234   5.447   5.951   0.951 -0.0212  1.6310  1.3651
  660ANI     HC 9235   5.459   6.041   1.181  1.7935 -0.0585  1.4124
  660ANI     HC 9236   5.443   5.892   1.381  0.4410  0.5533 -0.1653
  660ANI     HC 9237   5.467   5.648   1.340 -0.9454  0.4512  0.3587
  660ANI     HC 9238   5.472   5.557   1.111 -1.6484  0.0115  0.3093
  660ANI     HN 9239   5.397   5.764   0.835  1.3562  0.6784 -1.7171
  660ANI     HN 9240   5.438   5.614   0.880  0.2080 -0.4118  1.6640
  661ANI     CN 9241   0.281   1.678   4.468  0.3029  0.5781 -0.0652
  661ANI     CH 9242   0.399   1.636   4.405  0.5055  0.4225  0.4116
  661ANI     CH 9243   0.511   1.607   4.484  0.8183  0.0706 -0.1601
  661ANI     CH 9244   0.503   1.607   4.623 -0.3872  0.4294 -0.2173
  661ANI     CH 9245   0.383   1.644   4.684 -0.2659 -0.7854  0.7891
  661ANI     CH 9246   0.273   1.684   4.608  0.4729 -0.2704 -0.0153
  661ANI     NH 9247   0.172   1.693   4.393  0.1992  0.3204  0.0332
  661ANI     HC 9248   0.394   1.624   4.298  0.1407  1.2994  0.3265
  661ANI     HC 9249   0.603   1.589   4.430  2.3248  2.3418  1.5363
  661ANI     HC 9250   0.591   1.577   4.680 -0.7548  1.0200  0.6616
  661ANI     HC 9251   0.371   1.636   4.791 -1.2706 -1.1852  0.6553
  661ANI     HC 9252   0.177   1.696   4.656  0.8066  1.2431  0.3082
  661ANI     HN 9253   0.205   1.750   4.316  0.1557 -0.9713 -0.9609
  661ANI     HN 9254   0.101   1.738   4.450  0.7959 -0.6538  1.5569
  662ANI     CN 9255   2.761   0.649   1.505  0.2612 -0.1682 -0.4301
  662ANI     CH 9256   2.696   0.679   1.385 -0.8140  0.4389  0.2993
  662ANI     CH 9257   2.659   0.810   1.353 -0.5705  0.3637 -0.2865
  662ANI     CH 9258   2.677   0.910   1.449 -1.0973 -0.1593  0.3697
  662ANI     CH 9259   2.739   0.882   1.571  0.3279 -0.6455 -0.4462
  662ANI     CH 9260   2.781   0.752   1.599  0.3564 -0.5494 -0.0282
  662ANI     NH 9261   2.802   0.523   1.527 -0.2404 -0.3194 -0.3621
  662ANI     HC 9262   2.679   0.603   1.311  0.3655  0.6370 -0.1819
  662ANI     HC 9263   2.608   0.831   1.260 -0.4256 -2.7303 -1.1308
  662ANI     HC 9264   2.648   1.012   1.428 -1.4146 -0.0222  1.4522
  662ANI     HC 9265   2.749   0.944   1.660  0.4930 -1.6361  0.2283
  662ANI     HC 9266   2.812   0.724   1.698 -1.4135  1.4386  1.1244
  662ANI     HN 9267   2.733   0.456   1.494  1.3193 -1.3893 -1.5320
  662ANI     HN 9268   2.839   0.502   1.618 -1.6436  0.3565  0.3808
  663ANI     CN 9269   0.057   1.070   0.809  0.0785  0.2947  0.2614
  663ANI     CH 9270   0.174   1.110   0.874  0.6436  0.0426 -0.6017
  663ANI     CH 9271   0.297   1.113   0.806  0.7962 -0.3003 -0.3396
  663ANI     CH 9272   0.303   1.084   0.670  0.3328 -0.3373 -0.3539
  663ANI     CH 9273   0.184   1.062   0.600 -0.0930  0.4330  0.1262
  663ANI     CH 9274   0.063   1.052   0.671  0.1021 -0.3763  0.3492
  663ANI     NH 9275  -0.056   1.035   0.872  0.2364  0.3276  0.5675
  663ANI     HC 9276   0.188   1.130   0.979 -0.1953  3.2021 -1.0110
  663ANI     HC 9277   0.393   1.141   0.848  0.7419  0.0509 -0.4428
  663ANI     HC 9278   0.398   1.081   0.617  0.8724  0.3249  0.5706
  663ANI     HC 9279   0.178   1.045   0.494 -0.7651 -2.5641  0.6082
  663ANI     HC 9280  -0.028   1.029   0.618  1.0068  0.3422 -1.5688
  663ANI     HN 9281  -0.036   0.960   0.937  1.1847  0.6024  0.5925
  663ANI     HN 9282  -0.124   1.002   0.804  2.1863  0.6764 -1.6255
  664ANI     CN 9283   4.411   4.842   3.003  0.0552  0.2480 -0.1492
  664ANI     CH 9284   4.542   4.796   3.013 -0.1090 -0.1564  0.1656
  664ANI     CH 9285   4.642   4.837   2.923 -0.6821 -0.0653 -0.4284
  664ANI     CH 9286   4.605   4.931   2.826 -0.0877 -0.3827 -0.9587
  664ANI     CH 9287   4.475   4.981   2.815  0.1235  0.2623 -0.5582
  664ANI     CH 9288   4.377   4.935   2.904  0.4005  0.2621 -0.2529
  664ANI     NH 9289   4.320   4.811   3.097  0.2952  0.3667  0.1256
  664ANI     HC 9290   4.568   4.722   3.087  2.6469  0.1155 -0.4389
  664ANI     HC 9291   4.742   4.799   2.934  0.3856  2.6505 -0.2423
  664ANI     HC 9292   4.681   4.963   2.756 -0.8060 -0.2632 -1.6909
  664ANI     HC 9293   4.450   5.053   2.738  2.2480  0.4901 -1.0772
  664ANI     HC 9294   4.278   4.976   2.890 -0.4678 -0.3094  3.7647
  664ANI     HN 9295   4.231   4.860   3.099  0.2294  0.4496 -2.2382
  664ANI     HN 9296   4.352   4.814   3.192  0.0647  0.2713  0.2075
  665ANI     CN 9297   1.901   5.200   2.122  0.1862 -0.1301 -0.3672
  665ANI     CH 9298   2.011   5.250   2.053  0.1983  0.8634  0.3639
  665ANI     CH 9299   1.990   5.317   1.932  0.2261  0.4196  0.1133
  665ANI     CH 9300   1.858   5.341   1.891  0.3240 -0.7231 -0.9081
  665ANI     CH 9301   1.751   5.304   1.973  0.3451 -0.0245 -0.5647
  665ANI     CH 9302   1.767   5.229   2.090  0.2680  0.2265 -0.3899
  665ANI     NH 9303   1.928   5.148   2.242  0.3284  0.0257 -0.3320
  665ANI     HC 9304   2.113   5.237   2.088 -0.0703  0.3928  0.9653
  665ANI     HC 9305   2.069   5.348   1.864  3.2746 -3.8734  1.5224
  665ANI     HC 9306   1.834   5.391   1.798 -0.1777  1.5377  0.4064
  665ANI     HC 9307   1.652   5.337   1.943 -0.6243 -1.1573  1.3029
  665ANI     HC 9308   1.679   5.200   2.145  2.3856 -0.7187  2.6790
  665ANI     HN 9309   2.027   5.151   2.262  0.0800  0.6799  0.8465
  665ANI     HN 9310   1.896   5.056   2.271 -1.4585  0.8597  0.4527
  666ANI     CN 9311   0.909   5.953   2.190  0.1931 -0.2366 -0.1922
  666ANI     CH 9312   0.832   6.057   2.135  0.5980 -0.1448 -0.5867
  666ANI     CH 9313   0.695   6.035   2.119  0.4588  0.4457 -0.2030
  666ANI     CH 9314   0.642   5.905   2.126  0.2794  0.5203 -0.1578
  666ANI     CH 9315   0.717   5.808   2.193  0.1326  0.0220 -0.7120
  666ANI     CH 9316   0.850   5.833   2.231 -0.0054 -0.1192 -0.1340
  666ANI     NH 9317   1.040   5.971   2.213  0.0911 -0.0899  0.2837
  666ANI     HC 9318   0.875   6.155   2.122 -2.0218  1.0128 -0.6950
  666ANI     HC 9319   0.633   6.111   2.072  0.8174 -0.2243 -1.7989
  666ANI     HC 9320   0.540   5.884   2.099  0.2347  2.3508 -1.5589
  666ANI     HC 9321   0.686   5.709   2.223 -0.1566  1.0418  2.6160
  666ANI     HC 9322   0.904   5.761   2.290 -2.5716 -1.9449  0.0849
  666ANI     HN 9323   1.073   5.916   2.290 -1.1586 -1.9230 -0.4537
  666ANI     HN 9324   1.067   6.069   2.209  1.1831 -0.3243  1.6978
  667ANI     CN 9325   3.695   2.530   2.450 -0.1805 -0.0187 -0.4236
  667ANI     CH 9326   3.767   2.410   2.453  0.4150  0.3465  0.4001
  667ANI     CH 9327   3.839   2.370   2.339 -0.3451 -0.0749  0.0601
  667ANI     CH 9328   3.852   2.463   2.235  0.1200  0.0977  0.2725
  667ANI     CH 9329   3.784   2.585   2.228  0.5272  0.3080 -0.0709
  667ANI     CH 9330   3.704   2.615   2.339 -0.0810 -0.0218 -0.4178
  667ANI     NH 9331   3.629   2.579   2.556  0.3018 -0.7337  0.2163
  667ANI     HC 9332   3.754   2.335   2.529 -1.5287 -1.4604 -1.6247
  667ANI     HC 9333   3.869   2.267   2.329 -1.4195 -0.3420 -0.4571
  667ANI     HC 9334   3.900   2.430   2.144 -1.2246  3.6861 -1.8465
  667ANI     HC 9335   3.787   2.645   2.138  1.0047 -1.1808 -1.0673
  667ANI     HC 9336   3.650   2.708   2.347  2.6148  1.5347  0.1292
  667ANI     HN 9337   3.646   2.548   2.650  0.0828  1.2436  0.9375
  667ANI     HN 9338   3.622   2.680   2.551 -1.6788 -0.8263  0.5538
  668ANI     CN 9339   1.552   0.794   5.237  0.0960 -0.0702  0.1727
  668ANI     CH 9340   1.463   0.876   5.166 -0.6156 -0.7331  0.2866
  668ANI     CH 9341   1.470   1.016   5.170  0.3781 -0.7816  0.5537
  668ANI     CH 9342   1.566   1.074   5.253 -0.2156  0.3861  0.4354
  668ANI     CH 9343   1.651   0.994   5.330  0.4886  0.1864 -0.5375
  668ANI     CH 9344   1.644   0.855   5.323  0.1951  0.1790 -0.1099
  668ANI     NH 9345   1.546   0.660   5.238  0.2168 -0.0789 -0.2642
  668ANI     HC 9346   1.379   0.833   5.115 -0.8922 -0.2453  0.3273
  668ANI     HC 9347   1.404   1.087   5.122  2.4066  0.4001 -0.5407
  668ANI     HC 9348   1.565   1.182   5.257 -0.9415  0.3967  0.0605
  668ANI     HC 9349   1.718   1.045   5.399 -0.0450  1.4635 -0.9529
  668ANI     HC 9350   1.708   0.798   5.389  0.2401  1.2504  0.7820
  668ANI     HN 9351   1.460   0.635   5.192 -1.1277  2.8099  0.5270
  668ANI     HN 9352   1.548   0.629   5.334 -0.7784  0.6379 -0.0094
  669ANI     CN 9353   3.901   1.349   2.856 -0.2299  0.3546  0.0991
  669ANI     CH 9354   4.021   1.332   2.926 -0.1943  0.0048 -0.0454
  669ANI     CH 9355   4.138   1.399   2.889  0.1047 -0.5791 -0.1659
  669ANI     CH 9356   4.136   1.488   2.780 -0.0619 -0.4816 -0.0834
  669ANI     CH 9357   4.014   1.506   2.713 -0.0741 -0.1863  0.0163
  669ANI     CH 9358   3.896   1.444   2.754 -0.2065 -0.2490 -0.4618
  669ANI     NH 9359   3.789   1.287   2.896  0.1052 -0.2058  0.1809
  669ANI     HC 9360   4.026   1.255   3.002  1.9749 -1.3906 -1.5622
  669ANI     HC 9361   4.233   1.381   2.935  0.0746 -1.0238 -0.2778
  669ANI     HC 9362   4.232   1.524   2.746 -0.3338 -0.0667 -0.4077
  669ANI     HC 9363   4.014   1.554   2.616  1.0877  0.1921  0.1940
  669ANI     HC 9364   3.803   1.457   2.700 -0.0250  0.2365 -0.6624
  669ANI     HN 9365   3.796   1.256   2.991  1.3353 -0.6201 -0.0381
  669ANI     HN 9366   3.703   1.338   2.880  1.5201  1.6753 -1.8051
  670ANI     CN 9367   1.440   3.722   3.118 -0.1176 -0.2913  0.0800
  670ANI     CH 9368   1.459   3.765   3.250 -0.3881 -0.1338  0.0680
  670ANI     CH 9369   1.383   3.713   3.355  0.4914  0.2355  0.9007
  670ANI     CH 9370   1.288   3.613   3.329  0.8189  0.1900 -0.1546
  670ANI     CH 9371   1.268   3.569   3.198 -0.3381 -0.1833  0.1402
  670ANI     CH 9372   1.347   3.621   3.094 -0.5694  0.1151  0.1116
  670ANI     NH 9373   1.499   3.783   3.014  0.2571 -0.0563  0.4243
  670ANI     HC 9374   1.530   3.842   3.277 -0.7308  0.4458 -0.6517
  670ANI     HC 9375   1.404   3.746   3.456 -0.5425  3.2754  0.1763
  670ANI     HC 9376   1.228   3.565   3.405 -0.1326  0.0320 -0.9991
  670ANI     HC 9377   1.198   3.494   3.165 -1.7909  1.3929 -0.5097
  670ANI     HC 9378   1.327   3.592   2.992 -0.1046  2.7210 -0.7462
  670ANI     HN 9379   1.510   3.710   2.945 -0.2720  0.5860 -0.3509
  670ANI     HN 9380   1.594   3.816   3.017  0.8238 -1.7023  1.1989
  671ANI     CN 9381   3.554   3.867   2.375  0.2422  0.1511 -0.0526
  671ANI     CH 9382   3.458   3.963   2.341  0.2052 -0.0538 -0.5335
  671ANI     CH 9383   3.497   4.074   2.265  0.3191  0.1554 -0.1742
  671ANI     CH 9384   3.626   4.076   2.211  0.2726 -0.2212 -0.3057
  671ANI     CH 9385   3.723   3.984   2.252  0.3769 -0.1922 -0.4902
  671ANI     CH 9386   3.689   3.879   2.338  0.3281  0.5262  0.3734
  671ANI     NH 9387   3.513   3.759   2.443 -0.1551  0.4779  0.2282
  671ANI     HC 9388   3.355   3.962   2.374  0.0166 -0.3066 -1.1319
  671ANI     HC 9389   3.431   4.153   2.232  0.6788  0.3333 -0.4745
  671ANI     HC 9390   3.657   4.172   2.172 -2.0198 -0.0316 -1.7441
  671ANI     HC 9391   3.818   4.002   2.203 -0.0330  5.6175  0.4665
  671ANI     HC 9392   3.768   3.810   2.363 -1.1892 -1.2059  0.5018
  671ANI     HN 9393   3.582   3.737   2.513 -0.1842  0.7772  0.3492
  671ANI     HN 9394   3.419   3.771   2.478 -0.2048 -1.4922  0.8073
  672ANI     CN 9395   1.342   2.618   1.992  0.4189  0.1232 -0.4902
  672ANI     CH 9396   1.270   2.536   1.904 -0.2053  0.2276 -0.0859
  672ANI     CH 9397   1.153   2.583   1.845 -0.4875 -0.6959 -0.2779
  672ANI     CH 9398   1.108   2.714   1.870  0.3006 -0.5691  0.5057
  672ANI     CH 9399   1.182   2.798   1.953  0.3451 -0.2699  0.1649
  672ANI     CH 9400   1.295   2.747   2.019  0.7361  0.1706 -0.1606
  672ANI     NH 9401   1.450   2.573   2.057  0.2455  0.6849  0.1976
  672ANI     HC 9402   1.303   2.435   1.882 -0.8779  0.3650 -1.8305
  672ANI     HC 9403   1.100   2.514   1.782  3.1436 -2.7339 -1.2223
  672ANI     HC 9404   1.021   2.743   1.813  1.7670 -1.7426 -2.4845
  672ANI     HC 9405   1.150   2.895   1.987 -1.4064 -1.5030  2.1615
  672ANI     HC 9406   1.346   2.802   2.096  0.4919 -0.1129  0.2077
  672ANI     HN 9407   1.475   2.628   2.137  1.4938 -0.0565  0.3282
  672ANI     HN 9408   1.457   2.476   2.085 -1.3299  0.5668  0.2159
  673ANI     CN 9409   5.680   3.042   5.387 -0.1060 -0.2896 -0.3948
  673ANI     CH 9410   5.554   3.073   5.438 -0.0416 -0.1799 -0.3024
  673ANI     CH 9411   5.442   2.998   5.400 -0.1127 -0.0460 -0.3590
  673ANI     CH 9412   5.456   2.888   5.314  0.2726 -0.4273  0.1864
  673ANI     CH 9413   5.583   2.858   5.262  0.1199 -0.7193 -0.0143
  673ANI     CH 9414   5.690   2.944   5.287 -0.3525  0.1071 -0.8088
  673ANI     NH 9415   5.789   3.113   5.421 -0.3817  0.3379 -0.8055
  673ANI     HC 9416   5.538   3.150   5.512  1.3572  0.4212 -0.6201
  673ANI     HC 9417   5.346   3.019   5.446  0.7592 -0.9663  1.9403
  673ANI     HC 9418   5.365   2.838   5.284 -0.6883  0.5446  1.4244
  673ANI     HC 9419   5.590   2.787   5.181 -2.7787 -0.7927 -0.2642
  673ANI     HC 9420   5.786   2.931   5.239  1.3261  2.5516  1.7065
  673ANI     HN 9421   5.774   3.175   5.500 -2.7909 -1.1442 -0.0280
  673ANI     HN 9422   5.863   3.049   5.447 -1.6242 -1.5135 -1.6864
  674ANI     CN 9423   5.522   1.180   3.865  0.0289 -0.1775 -0.0029
  674ANI     CH 9424   5.445   1.086   3.934 -0.2736 -0.1683 -0.3272
  674ANI     CH 9425   5.477   1.038   4.062  0.4406 -0.2577 -0.5348
  674ANI     CH 9426   5.592   1.087   4.125  0.2811 -0.2114 -0.2806
  674ANI     CH 9427   5.669   1.182   4.058  0.0634  0.3836  0.3060
  674ANI     CH 9428   5.632   1.235   3.933 -0.3829  0.2014  0.3607
  674ANI     NH 9429   5.483   1.238   3.751 -0.1663 -0.3140 -0.0057
  674ANI     HC 9430   5.357   1.048   3.885 -0.0098  0.6163 -1.4230
  674ANI     HC 9431   5.411   0.968   4.110 -0.7104  0.3685 -1.1844
  674ANI     HC 9432   5.623   1.046   4.220  3.8667 -2.3348 -2.2747
  674ANI     HC 9433   5.759   1.218   4.106 -0.5310  3.6183 -0.8568
  674ANI     HC 9434   5.705   1.305   3.897 -0.1896 -0.2184 -0.0646
  674ANI     HN 9435   5.382   1.239   3.744 -0.3025 -0.1992  1.8177
  674ANI     HN 9436   5.536   1.322   3.729 -0.0851 -0.6838 -1.2556
  675ANI     CN 9437   1.321   1.688   0.531 -0.3202  0.2866 -0.2303
  675ANI     CH 9438   1.287   1.729   0.402 -0.5545  0.0745 -0.2361
  675ANI     CH 9439   1.150   1.732   0.371 -0.5296  0.1907 -0.3332
  675ANI     CH 9440   1.050   1.697   0.461  0.1777  0.5247  0.5890
  675ANI     CH 9441   1.086   1.648   0.588 -0.2609  0.0441  0.5308
  675ANI     CH 9442   1.222   1.643   0.620 -0.1191  0.2410 -0.0282
  675ANI     NH 9443   1.451   1.694   0.564 -0.3523 -0.4525  0.0499
  675ANI     HC 9444   1.365   1.771   0.341  0.1005  0.6297  0.9673
  675ANI     HC 9445   1.128   1.779   0.276  1.6122  1.9506 -0.0016
  675ANI     HC 9446   0.944   1.709   0.443  0.5125  0.0707 -1.7846
  675ANI     HC 9447   1.018   1.613   0.664 -1.6368  1.6297  0.0665
  675ANI     HC 9448   1.262   1.609   0.714  1.1924  2.1455  0.1384
  675ANI     HN 9449   1.503   1.777   0.540 -1.5035  0.6424  1.3079
  675ANI     HN 9450   1.476   1.684   0.661  0.7247  1.9285  0.0551
  676ANI     CN 9451   1.949   0.706   3.042  0.0616  0.2510 -0.3494
  676ANI     CH 9452   1.820   0.669   3.003 -0.0424 -0.0970  0.3125
  676ANI     CH 9453   1.732   0.630   3.104 -0.1232 -0.8276 -0.0366
  676ANI     CH 9454   1.773   0.605   3.235  0.0172  0.2890  0.1341
  676ANI     CH 9455   1.906   0.637   3.269 -0.1305  0.7004  0.3339
  676ANI     CH 9456   1.993   0.690   3.174 -0.3850  0.1611 -0.2104
  676ANI     NH 9457   2.035   0.750   2.949 -0.4603  0.6166 -0.6568
  676ANI     HC 9458   1.784   0.682   2.902 -2.2319 -0.4811  1.0229
  676ANI     HC 9459   1.626   0.620   3.084 -0.4075  0.0620  0.9956
  676ANI     HC 9460   1.702   0.551   3.295 -0.1813  0.5070  0.0954
  676ANI     HC 9461   1.936   0.625   3.372  0.4304 -3.5308 -0.2222
  676ANI     HC 9462   2.097   0.710   3.196 -0.7452 -0.0337  1.7886
  676ANI     HN 9463   1.999   0.817   2.882 -0.9908  2.4191  1.3670
  676ANI     HN 9464   2.108   0.803   2.994  0.0160 -0.8359  0.3127
  677ANI     CN 9465   2.338   3.304   1.924  0.7229 -0.0306  0.4808
  677ANI     CH 9466   2.307   3.198   1.837  0.6734 -0.0040  0.4658
  677ANI     CH 9467   2.381   3.185   1.719  0.3607 -0.3322  0.3050
  677ANI     CH 9468   2.465   3.289   1.678 -0.5667  0.3972  0.2304
  677ANI     CH 9469   2.498   3.394   1.765 -0.1217  0.4076  0.0529
  677ANI     CH 9470   2.432   3.402   1.888 -0.1815  0.6601  0.0044
  677ANI     NH 9471   2.283   3.305   2.046  0.4430 -0.1261  0.3554
  677ANI     HC 9472   2.240   3.123   1.877 -2.0190  1.8603 -0.4163
  677ANI     HC 9473   2.370   3.091   1.667  0.9537 -0.3972  0.2896
  677ANI     HC 9474   2.519   3.279   1.584  1.0453 -0.8981  1.2610
  677ANI     HC 9475   2.579   3.464   1.751 -0.4402  0.8011  0.2081
  677ANI     HC 9476   2.453   3.487   1.950 -1.6585  0.7706  0.3755
  677ANI     HN 9477   2.339   3.366   2.104  0.4517 -1.7696  2.0932
  677ANI     HN 9478   2.279   3.216   2.093 -0.3428 -1.1030 -1.5069
  678ANI     CN 9479   1.807   2.175   2.441 -0.3412  0.5211  0.0196
  678ANI     CH 9480   1.745   2.151   2.564 -0.1049 -0.0223  0.0345
  678ANI     CH 9481   1.608   2.120   2.572 -0.2074  0.4680  0.2347
  678ANI     CH 9482   1.537   2.106   2.452 -0.0477  0.1129  0.1790
  678ANI     CH 9483   1.598   2.120   2.326  0.0253 -0.1396  0.1859
  678ANI     CH 9484   1.733   2.157   2.323  0.2102 -0.8413 -0.1235
  678ANI     NH 9485   1.932   2.221   2.450 -0.2021  0.2134 -0.3033
  678ANI     HC 9486   1.805   2.178   2.649  0.3288  0.6590 -0.4875
  678ANI     HC 9487   1.562   2.109   2.669 -0.0247 -0.8421  0.1837
  678ANI     HC 9488   1.433   2.079   2.454 -0.0624 -0.0321 -1.6473
  678ANI     HC 9489   1.535   2.114   2.239  2.0407  0.6270 -1.3524
  678ANI     HC 9490   1.784   2.183   2.232  1.7795 -0.9322  0.7155
  678ANI     HN 9491   1.959   2.261   2.361  0.3369 -1.0419 -0.7147
  678ANI     HN 9492   1.955   2.287   2.524  1.0117 -0.7791  0.2240
  679ANI     CN 9493   0.058   1.744   1.698 -0.0543 -0.1352  0.2118
  679ANI     CH 9494   0.021   1.770   1.831 -0.1010  0.4083  0.0914
  679ANI     CH 9495  -0.070   1.872   1.859  0.1439  0.4811  0.6275
  679ANI     CH 9496  -0.116   1.953   1.755 -0.4836 -0.6939 -0.0199
  679ANI     CH 9497  -0.065   1.935   1.625 -0.2153  0.3014 -0.0548
  679ANI     CH 9498   0.020   1.828   1.594 -0.4167 -0.0078  0.4495
  679ANI     NH 9499   0.130   1.635   1.667  0.2418  0.0113  0.3739
  679ANI     HC 9500   0.055   1.704   1.910  1.6958  1.6412  0.3914
  679ANI     HC 9501  -0.114   1.888   1.957 -1.9491  0.0438 -0.2080
  679ANI     HC 9502  -0.184   2.035   1.773  0.5612 -0.2491  1.9799
  679ANI     HC 9503  -0.098   2.000   1.545 -1.6841  0.5406  0.7308
  679ANI     HC 9504   0.052   1.812   1.492 -0.1946  1.8465  0.2040
  679ANI     HN 9505   0.104   1.601   1.575  0.1705  0.2616  0.3011
  679ANI     HN 9506   0.117   1.567   1.740  0.2209 -1.3255 -0.8380
  680ANI     CN 9507   3.515   1.604   4.910  0.2097  0.1095 -0.4904
  680ANI     CH 9508   3.599   1.548   5.007 -0.6262 -0.2853  0.0121
  680ANI     CH 9509   3.633   1.614   5.125 -0.1793 -0.4863 -0.0062
  680ANI     CH 9510   3.553   1.722   5.164  0.4848  0.0049  0.0006
  680ANI     CH 9511   3.463   1.777   5.073  0.5445 -0.3185 -0.2561
  680ANI     CH 9512   3.441   1.717   4.948  0.0830 -0.0338 -0.3134
  680ANI     NH 9513   3.492   1.544   4.793 -0.1632  0.5001 -0.6222
  680ANI     HC 9514   3.659   1.459   4.999  1.3901  1.1336 -1.0914
  680ANI     HC 9515   3.706   1.581   5.198  0.7255  1.3716 -0.0334
  680ANI     HC 9516   3.576   1.766   5.260  1.9483  0.0729 -0.3663
  680ANI     HC 9517   3.407   1.866   5.097  1.2204  0.0191  0.0985
  680ANI     HC 9518   3.371   1.764   4.880 -0.0475  1.3971  0.7724
  680ANI     HN 9519   3.549   1.460   4.802  1.1977  1.5721  1.0571
  680ANI     HN 9520   3.396   1.515   4.780 -0.2005  0.5732 -0.5007
  681ANI     CN 9521   1.861   2.517   3.360  0.0845 -0.2649  0.2078
  681ANI     CH 9522   1.822   2.434   3.254 -0.0211 -0.2520  0.2371
  681ANI     CH 9523   1.695   2.375   3.251 -0.2156  0.1865 -0.3434
  681ANI     CH 9524   1.612   2.395   3.362 -0.3185 -0.1124 -0.3655
  681ANI     CH 9525   1.650   2.476   3.470 -0.7717  0.3245 -0.5337
  681ANI     CH 9526   1.769   2.549   3.461 -0.6959  0.1867 -0.6385
  681ANI     NH 9527   1.981   2.575   3.351 -0.1077  0.1357  0.2405
  681ANI     HC 9528   1.888   2.408   3.173 -0.1096 -0.6193  0.2813
  681ANI     HC 9529   1.673   2.302   3.174 -1.4384 -1.0415  1.1392
  681ANI     HC 9530   1.514   2.352   3.364  0.1097 -1.0806  0.0065
  681ANI     HC 9531   1.595   2.493   3.562 -0.3660  1.7645 -0.5505
  681ANI     HC 9532   1.800   2.606   3.547  3.9941 -0.6351 -1.6372
  681ANI     HN 9533   2.005   2.631   3.431 -0.7253  0.1595  0.4147
  681ANI     HN 9534   2.051   2.503   3.339  0.3659  0.7701 -0.8939
  682ANI     CN 9535   4.489   3.882   4.220 -0.0959 -0.5161 -0.6530
  682ANI     CH 9536   4.404   3.822   4.314  0.2133 -0.3934 -0.2943
  682ANI     CH 9537   4.425   3.687   4.342  0.3598 -0.3915 -0.3945
  682ANI     CH 9538   4.530   3.612   4.286  1.0099 -0.2860  0.6647
  682ANI     CH 9539   4.611   3.678   4.193  0.1169  0.1665  0.1989
  682ANI     CH 9540   4.598   3.814   4.163  0.3592  0.0477 -0.4542
  682ANI     NH 9541   4.478   4.010   4.181  0.1692 -0.0414  0.7938
  682ANI     HC 9542   4.324   3.876   4.362  2.6175  1.5582  1.6959
  682ANI     HC 9543   4.371   3.634   4.419 -1.3338  1.4297 -0.3211
  682ANI     HC 9544   4.552   3.508   4.307 -2.4316 -1.0899  0.6806
  682ANI     HC 9545   4.691   3.622   4.146  0.0313 -0.3286  0.6345
  682ANI     HC 9546   4.666   3.861   4.094  2.3006 -0.0119  1.3547
  682ANI     HN 9547   4.383   4.042   4.182 -0.1594 -1.0331  2.1213
  682ANI     HN 9548   4.532   4.040   4.101  2.5583 -0.1029  2.3291
  683ANI     CN 9549   1.429   6.145   1.667 -0.1310  0.1174  0.4449
  683ANI     CH 9550   1.536   6.102   1.746  0.1782 -0.0827 -0.0856
  683ANI     CH 9551   1.511   6.026   1.861 -0.0687 -0.2321 -0.2371
  683ANI     CH 9552   1.383   5.994   1.909 -0.0739 -0.5060 -0.4350
  683ANI     CH 9553   1.274   6.037   1.834 -0.1799 -0.2909 -0.1572
  683ANI     CH 9554   1.303   6.105   1.715 -0.2478 -0.1770 -0.1098
  683ANI     NH 9555   1.458   6.217   1.558  0.2794 -0.3382  0.2585
  683ANI     HC 9556   1.638   6.127   1.721 -0.7368  1.4976 -2.3680
  683ANI     HC 9557   1.596   5.990   1.918 -0.7484 -1.8546 -0.2221
  683ANI     HC 9558   1.363   5.945   2.003  1.0007  2.0485  1.1627
  683ANI     HC 9559   1.171   6.027   1.867  1.1253 -1.8717  3.6690
  683ANI     HC 9560   1.225   6.146   1.653  0.3189 -0.5239 -1.0666
  683ANI     HN 9561   1.386   6.285   1.540  1.9366  0.8626 -2.1228
  683ANI     HN 9562   1.551   6.257   1.563  1.4808 -2.6780 -1.5432
  684ANI     CN 9563   4.932   2.100   3.655  0.1615  0.3683 -0.0413
  684ANI     CH 9564   5.008   2.060   3.766  0.1703  0.1725 -0.1174
  684ANI     CH 9565   4.949   1.978   3.863  0.3000  0.2950  0.0652
  684ANI     CH 9566   4.816   1.936   3.848  0.4179 -0.0917  0.1022
  684ANI     CH 9567   4.748   1.961   3.728  0.5687 -0.3800 -0.0435
  684ANI     CH 9568   4.807   2.043   3.631  0.3455 -0.0874  0.0723
  684ANI     NH 9569   4.979   2.195   3.572 -0.0822  0.8453  0.3613
  684ANI     HC 9570   5.108   2.096   3.784  0.6140 -0.6312 -0.9621
  684ANI     HC 9571   5.013   1.947   3.944  1.5619  3.1167  0.2003
  684ANI     HC 9572   4.766   1.871   3.918  1.0596 -0.5821  0.1175
  684ANI     HC 9573   4.646   1.930   3.716  0.8940 -1.9165  0.9873
  684ANI     HC 9574   4.747   2.081   3.550  0.4014  2.1503  1.0450
  684ANI     HN 9575   5.033   2.264   3.622 -1.1339  1.0095  1.2817
  684ANI     HN 9576   4.905   2.248   3.529  1.2944  1.3312 -1.4666
  685ANI     CN 9577   1.528   5.384   0.924 -0.5877  0.3275  0.0455
  685ANI     CH 9578   1.477   5.450   1.037  0.3215  0.7121  0.2339
  685ANI     CH 9579   1.457   5.388   1.161  0.7163  0.5304  0.2079
  685ANI     CH 9580   1.489   5.252   1.175 -0.6514  0.1921  0.0586
  685ANI     CH 9581   1.551   5.187   1.067 -0.2250  0.4420  0.1560
  685ANI     CH 9582   1.576   5.254   0.947 -0.0470  0.5627  0.2595
  685ANI     NH 9583   1.567   5.457   0.819 -0.0749 -0.0365 -0.0218
  685ANI     HC 9584   1.455   5.555   1.033 -4.4417 -0.2007 -0.6230
  685ANI     HC 9585   1.418   5.443   1.245 -2.9742 -1.2586 -0.2520
  685ANI     HC 9586   1.501   5.201   1.269  0.2848 -2.3198 -1.3631
  685ANI     HC 9587   1.590   5.088   1.083 -1.1003  0.1088  0.2534
  685ANI     HC 9588   1.626   5.197   0.869 -0.1218  2.0913 -0.9279
  685ANI     HN 9589   1.560   5.432   0.721  1.8469  0.0874 -0.2089
  685ANI     HN 9590   1.515   5.544   0.820  2.0752  1.3215 -2.0593
  686ANI     CN 9591   2.376   2.149   2.477  0.0038  0.0644 -0.1607
  686ANI     CH 9592   2.515   2.145   2.474 -0.0127 -0.2649 -0.5004
  686ANI     CH 9593   2.587   2.264   2.495  0.0582 -0.2744 -0.6917
  686ANI     CH 9594   2.519   2.383   2.526  0.0337 -0.5266  0.2236
  686ANI     CH 9595   2.380   2.391   2.515  0.0733 -0.3418 -0.1462
  686ANI     CH 9596   2.310   2.270   2.503 -0.2764 -0.1876  0.3206
  686ANI     NH 9597   2.305   2.039   2.449 -0.2067  0.1991 -0.1618
  686ANI     HC 9598   2.569   2.055   2.450  0.9095 -0.0893  0.8347
  686ANI     HC 9599   2.694   2.259   2.483  0.2363  0.7849  0.2993
  686ANI     HC 9600   2.579   2.471   2.512  1.6313 -1.9591 -2.4135
  686ANI     HC 9601   2.332   2.487   2.523  0.1555 -0.4578  2.1105
  686ANI     HC 9602   2.202   2.275   2.497 -0.2455 -1.2337 -1.4445
  686ANI     HN 9603   2.212   2.051   2.486 -0.6746 -0.4943 -1.1081
  686ANI     HN 9604   2.341   1.955   2.492  0.5764 -0.2754 -1.7153
  687ANI     CN 9605   2.873   0.082   1.064 -0.3168 -0.3321 -0.3720
  687ANI     CH 9606   2.961   0.158   0.985 -0.4139  0.2145  0.0510
  687ANI     CH 9607   2.950   0.148   0.846 -0.1428  0.2024  0.0300
  687ANI     CH 9608   2.863   0.056   0.787  0.0535  0.1936 -0.2444
  687ANI     CH 9609   2.772  -0.012   0.869  0.1911  0.2239 -0.0667
  687ANI     CH 9610   2.772   0.002   1.008 -0.1860 -0.7952  0.0473
  687ANI     NH 9611   2.871   0.089   1.197  0.2970 -0.4406 -0.3548
  687ANI     HC 9612   3.043   0.219   1.022 -0.3595  1.4559 -2.0537
  687ANI     HC 9613   3.011   0.206   0.779 -0.1731 -1.1989 -1.2171
  687ANI     HC 9614   2.861   0.050   0.679  1.7895  2.3671 -0.4093
  687ANI     HC 9615   2.705  -0.077   0.813 -0.1900  1.6796 -1.3423
  687ANI     HC 9616   2.696  -0.041   1.072  0.0337 -0.4176  0.5702
  687ANI     HN 9617   2.807   0.040   1.258  0.5788 -0.4093 -0.0293
  687ANI     HN 9618   2.958   0.104   1.246 -0.6224  2.5954  0.4908
  688ANI     CN 9619   4.241   2.316   5.476  0.4715  0.3122  0.1513
  688ANI     CH 9620   4.162   2.396   5.560  0.1593  0.4042 -0.2309
  688ANI     CH 9621   4.038   2.354   5.609  0.5717 -0.0410  0.4464
  688ANI     CH 9622   3.984   2.231   5.572  0.1978  0.3170 -0.2302
  688ANI     CH 9623   4.056   2.155   5.479  0.0789  0.3412 -0.3408
  688ANI     CH 9624   4.185   2.192   5.441  0.1511  0.4867  0.0473
  688ANI     NH 9625   4.368   2.353   5.455  0.3770  0.2864 -0.4454
  688ANI     HC 9626   4.201   2.485   5.607  1.9559  0.0717 -1.0352
  688ANI     HC 9627   3.994   2.410   5.690 -2.9273 -1.2229 -0.5340
  688ANI     HC 9628   3.895   2.192   5.620  0.4686 -0.2227 -0.1615
  688ANI     HC 9629   4.011   2.063   5.443 -1.1387  1.1477 -0.9104
  688ANI     HC 9630   4.241   2.127   5.376 -0.8092  0.4190 -0.7184
  688ANI     HN 9631   4.432   2.281   5.486  1.4411  1.3526 -0.1337
  688ANI     HN 9632   4.376   2.427   5.523  1.0688  0.2050 -0.4335
  689ANI     CN 9633   4.842   1.265   1.919  0.4994  0.1078  0.1463
  689ANI     CH 9634   4.850   1.177   2.027  0.2223 -0.5792 -0.3884
  689ANI     CH 9635   4.976   1.139   2.076  0.1835  0.0108  0.1857
  689ANI     CH 9636   5.092   1.201   2.028 -0.3123  0.4518 -0.4585
  689ANI     CH 9637   5.082   1.294   1.924 -0.0398 -0.1523 -1.0321
  689ANI     CH 9638   4.958   1.322   1.864 -0.1657  1.1625 -0.1879
  689ANI     NH 9639   4.718   1.298   1.880  0.5505 -0.1719 -0.2580
  689ANI     HC 9640   4.760   1.129   2.060  0.8603 -0.0490  2.2427
  689ANI     HC 9641   4.988   1.068   2.156  0.9501 -0.7369 -0.5755
  689ANI     HC 9642   5.186   1.178   2.076 -0.4726 -1.4010 -1.0175
  689ANI     HC 9643   5.165   1.350   1.884  0.6291 -1.9613 -2.2157
  689ANI     HC 9644   4.955   1.379   1.773  2.1874  1.4766 -0.1109
  689ANI     HN 9645   4.712   1.386   1.832  0.1072  0.0822  0.2628
  689ANI     HN 9646   4.656   1.297   1.960 -1.7649  1.3761 -1.9935
  690ANI     CN 9647   3.334   3.349   3.920  0.1476 -0.2644 -0.2108
  690ANI     CH 9648   3.288   3.217   3.935  0.2083 -0.3067 -0.3836
  690ANI     CH 9649   3.346   3.128   4.026 -0.4419 -0.3893 -0.0441
  690ANI     CH 9650   3.457   3.175   4.097 -1.2220  0.6964  0.4721
  690ANI     CH 9651   3.508   3.304   4.085  0.2822  0.0256 -0.4618
  690ANI     CH 9652   3.442   3.392   3.998 -0.3551  0.2234  0.2163
  690ANI     NH 9653   3.279   3.431   3.830  0.2971  0.2970  0.2084
  690ANI     HC 9654   3.203   3.186   3.876  0.0394  0.8987 -0.7902
  690ANI     HC 9655   3.301   3.031   4.040  0.3991 -0.5101  1.8880
  690ANI     HC 9656   3.495   3.100   4.165 -1.3350 -1.1294 -1.4016
  690ANI     HC 9657   3.592   3.341   4.142  0.2637 -0.0075 -0.4147
  690ANI     HC 9658   3.487   3.490   3.991  0.4219 -0.1775 -0.5314
  690ANI     HN 9659   3.236   3.385   3.751  0.2968 -3.6104  2.3667
  690ANI     HN 9660   3.330   3.517   3.817 -0.0514  0.4813  0.0320
  691ANI     CN 9661   5.213   3.050   2.347 -0.3140 -0.0464 -0.1204
  691ANI     CH 9662   5.173   2.937   2.420  0.3766  0.3712  0.9160
  691ANI     CH 9663   5.254   2.867   2.510  0.0953 -0.6577  0.3811
  691ANI     CH 9664   5.389   2.904   2.517 -0.1420  0.3200 -0.1661
  691ANI     CH 9665   5.430   3.019   2.448  0.8002 -0.4559 -0.9158
  691ANI     CH 9666   5.347   3.088   2.358 -0.3186 -0.1563  0.3187
  691ANI     NH 9667   5.133   3.126   2.271 -0.4249  0.1481  0.1872
  691ANI     HC 9668   5.074   2.898   2.401  1.2868 -1.2333 -0.7281
  691ANI     HC 9669   5.221   2.774   2.554 -3.6424  0.4453  0.0774
  691ANI     HC 9670   5.452   2.848   2.585  1.0153  3.1708  1.1969
  691ANI     HC 9671   5.531   3.054   2.460 -0.1900  2.3325 -0.1448
  691ANI     HC 9672   5.387   3.174   2.307  2.0767 -2.6564 -2.2044
  691ANI     HN 9673   5.163   3.222   2.280 -1.8832  0.9182 -2.5428
  691ANI     HN 9674   5.040   3.127   2.309 -0.5826 -2.3831 -0.0212
  692ANI     CN 9675   1.587   1.590   2.991  0.2184  0.0671  0.3533
  692ANI     CH 9676   1.682   1.618   3.090 -0.4494  0.1862  0.9602
  692ANI     CH 9677   1.769   1.727   3.074 -0.4237  0.0136 -0.1528
  692ANI     CH 9678   1.743   1.824   2.977  0.0332 -0.0115 -0.3007
  692ANI     CH 9679   1.646   1.797   2.879 -0.6972  0.2705  0.3373
  692ANI     CH 9680   1.566   1.683   2.888 -0.4178  0.0864  0.4988
  692ANI     NH 9681   1.503   1.486   2.990  0.0364  0.2118 -0.8791
  692ANI     HC 9682   1.702   1.545   3.167 -0.6108 -1.8447 -0.8831
  692ANI     HC 9683   1.848   1.734   3.147  1.0635 -2.3614 -1.4626
  692ANI     HC 9684   1.790   1.921   2.974 -0.3151  0.2534  1.7823
  692ANI     HC 9685   1.631   1.864   2.795  0.4430  1.2362  0.8788
  692ANI     HC 9686   1.495   1.650   2.813 -0.8490 -1.0752  1.4007
  692ANI     HN 9687   1.527   1.407   3.049 -1.0098  1.0490  0.6937
  692ANI     HN 9688   1.464   1.461   2.900 -0.8299 -2.6465  0.2137
  693ANI     CN 9689   5.425   6.022   4.065 -0.3722 -0.4329  0.7179
  693ANI     CH 9690   5.477   5.940   3.964 -0.1798  0.3667  0.1545
  693ANI     CH 9691   5.614   5.918   3.945 -0.3880 -0.3547 -0.5163
  693ANI     CH 9692   5.708   5.982   4.026 -0.5509  0.2940 -0.8393
  693ANI     CH 9693   5.657   6.063   4.128 -0.3627 -0.5450 -0.0721
  693ANI     CH 9694   5.520   6.090   4.142 -0.1664  0.7348 -0.5484
  693ANI     NH 9695   5.294   6.038   4.086 -0.3644 -0.4200  0.7546
  693ANI     HC 9696   5.404   5.882   3.909  0.9385 -1.3158  0.4141
  693ANI     HC 9697   5.641   5.853   3.863 -2.4415 -0.6825 -0.9864
  693ANI     HC 9698   5.810   5.949   4.020 -1.2405 -2.5697  2.1470
  693ANI     HC 9699   5.726   6.113   4.194 -1.0697  0.5743 -0.1550
  693ANI     HC 9700   5.492   6.150   4.227 -0.5417 -0.5485  0.2323
  693ANI     HN 9701   5.283   6.038   4.186  0.2330 -1.2433  0.8212
  693ANI     HN 9702   5.247   5.955   4.054 -1.0224 -0.4820  1.8743
  694ANI     CN 9703   3.340   0.742   4.853 -0.1306 -0.0682  0.2733
  694ANI     CH 9704   3.322   0.766   4.990 -1.2607 -0.3841  0.1853
  694ANI     CH 9705   3.242   0.872   5.032 -0.3523  0.4660 -0.2211
  694ANI     CH 9706   3.177   0.955   4.939  0.5134  0.7623 -0.5718
  694ANI     CH 9707   3.186   0.926   4.803  0.3647  0.0888 -0.4400
  694ANI     CH 9708   3.281   0.831   4.762  0.3891 -0.0526 -0.0541
  694ANI     NH 9709   3.410   0.636   4.810 -0.4685 -0.2238  0.1038
  694ANI     HC 9710   3.374   0.702   5.060  1.6122  0.9926 -0.6310
  694ANI     HC 9711   3.231   0.889   5.138 -3.5110  1.0446 -0.6010
  694ANI     HC 9712   3.113   1.036   4.972 -0.3304 -0.5350  1.0563
  694ANI     HC 9713   3.124   0.980   4.733 -2.8801 -1.6721  0.9520
  694ANI     HC 9714   3.295   0.805   4.658 -3.3172 -2.2445 -0.0810
  694ANI     HN 9715   3.476   0.588   4.869  1.2197  0.9723 -0.7735
  694ANI     HN 9716   3.460   0.656   4.725 -2.0128 -0.8932 -0.9809
  695ANI     CN 9717   4.657   4.784   5.595 -0.3527 -0.0824  0.1268
  695ANI     CH 9718   4.777   4.850   5.624 -0.1878 -0.5576  0.5355
  695ANI     CH 9719   4.899   4.814   5.567 -0.2718  0.2036 -0.1445
  695ANI     CH 9720   4.904   4.704   5.480 -0.0597  0.3479 -0.3142
  695ANI     CH 9721   4.786   4.638   5.445 -0.1962  0.2757  0.2667
  695ANI     CH 9722   4.665   4.681   5.501 -0.3494 -0.3182  0.3861
  695ANI     NH 9723   4.543   4.824   5.654 -0.2463  0.1472  0.1777
  695ANI     HC 9724   4.777   4.935   5.690  0.1702 -0.4813  0.4361
  695ANI     HC 9725   4.993   4.861   5.593 -0.6148  0.4134  0.7450
  695ANI     HC 9726   4.998   4.676   5.434 -0.4631 -1.7672  0.1074
  695ANI     HC 9727   4.793   4.563   5.368  1.9271  1.4126 -0.6867
  695ANI     HC 9728   4.576   4.629   5.466 -1.4532  2.1548 -0.5724
  695ANI     HN 9729   4.562   4.837   5.752  0.6256  3.6935 -0.3800
  695ANI     HN 9730   4.460   4.767   5.650  0.4385 -0.9287  0.9162
  696ANI     CN 9731   4.381   4.797   0.433 -0.2015 -0.1993 -0.1218
  696ANI     CH 9732   4.439   4.830   0.556 -0.0602 -0.4578 -0.1201
  696ANI     CH 9733   4.368   4.852   0.674 -0.0470  0.0593 -0.2081
  696ANI     CH 9734   4.228   4.855   0.661 -0.1074 -0.9003  0.1787
  696ANI     CH 9735   4.165   4.833   0.538 -0.1140 -0.1378  0.0460
  696ANI     CH 9736   4.241   4.800   0.426 -0.2044 -0.0856 -0.0305
  696ANI     NH 9737   4.453   4.767   0.324  0.1388  0.2477 -0.0219
  696ANI     HC 9738   4.546   4.840   0.561  0.1352 -1.9471 -0.9380
  696ANI     HC 9739   4.418   4.870   0.768 -2.5018 -1.2771  1.4214
  696ANI     HC 9740   4.161   4.877   0.743  0.5378  0.9756  0.2362
  696ANI     HC 9741   4.059   4.854   0.535  0.3270  2.2850  0.1091
  696ANI     HC 9742   4.207   4.777   0.326  0.2320 -0.3182 -0.1276
  696ANI     HN 9743   4.423   4.814   0.240 -1.0216 -2.3049 -1.0744
  696ANI     HN 9744   4.549   4.797   0.330  1.1637 -2.4062 -2.3199
  697ANI     CN 9745   4.013   4.945   3.530  0.0599  0.0308 -0.6191
  697ANI     CH 9746   4.077   5.030   3.621 -0.5789 -0.2549  0.0990
  697ANI     CH 9747   4.009   5.135   3.685 -0.1449  0.0220  0.1159
  697ANI     CH 9748   3.873   5.153   3.654  0.0544  0.4023 -0.5523
  697ANI     CH 9749   3.807   5.060   3.573  0.1407 -0.1250 -0.0255
  697ANI     CH 9750   3.876   4.959   3.506  0.0533  0.1383 -0.5205
  697ANI     NH 9751   4.089   4.855   3.465  0.5472 -0.3313  0.4420
  697ANI     HC 9752   4.185   5.024   3.631 -0.3412  2.7935  0.0356
  697ANI     HC 9753   4.057   5.210   3.745  1.7309  0.1445 -1.4827
  697ANI     HC 9754   3.811   5.235   3.687  0.8209  0.8905 -0.3204
  697ANI     HC 9755   3.703   5.085   3.556  0.7263  1.3887 -1.5199
  697ANI     HC 9756   3.822   4.898   3.435 -0.9123  1.7834 -1.2266
  697ANI     HN 9757   4.179   4.842   3.508  0.7761 -0.5603 -0.1086
  697ANI     HN 9758   4.056   4.760   3.456  1.8516 -0.9637  1.9875
  698ANI     CN 9759   4.134   3.901   1.007  0.0159  0.0383  0.2631
  698ANI     CH 9760   4.207   3.803   1.074 -0.3889 -0.5858 -0.2098
  698ANI     CH 9761   4.277   3.710   0.996 -0.6775 -0.7847 -0.2349
  698ANI     CH 9762   4.296   3.730   0.859  0.5025  0.4225  0.0994
  698ANI     CH 9763   4.225   3.833   0.797 -0.7725 -0.4780  0.0559
  698ANI     CH 9764   4.137   3.917   0.868 -0.3857 -0.2145  0.2256
  698ANI     NH 9765   4.046   3.981   1.069 -0.0784 -0.0251  0.2121
  698ANI     HC 9766   4.203   3.789   1.181 -2.0732 -2.1731 -0.4462
  698ANI     HC 9767   4.320   3.625   1.046 -2.3596 -1.2258  0.4937
  698ANI     HC 9768   4.351   3.656   0.803 -2.6197  0.6905 -3.5530
  698ANI     HC 9769   4.230   3.849   0.690  1.8446 -0.1588  0.1992
  698ANI     HC 9770   4.091   3.999   0.815 -0.5422 -0.6524 -0.3234
  698ANI     HN 9771   4.002   3.927   1.142 -1.0186 -2.5472 -2.1320
  698ANI     HN 9772   3.966   4.002   1.011  0.7512 -0.9921 -1.2994
  699ANI     CN 9773   5.970   6.117   1.838 -0.0715  0.2153 -0.2517
  699ANI     CH 9774   5.929   6.116   1.972  0.2815 -0.3998 -0.1493
  699ANI     CH 9775   6.026   6.105   2.072  0.1669 -0.6886 -0.0697
  699ANI     CH 9776   6.159   6.074   2.045  0.2464 -0.6244  0.2440
  699ANI     CH 9777   6.194   6.061   1.910 -0.1711  0.2614  0.0479
  699ANI     CH 9778   6.105   6.095   1.808 -0.1452 -0.3413 -0.1795
  699ANI     NH 9779   5.879   6.145   1.743 -0.3090 -0.1827 -0.1377
  699ANI     HC 9780   5.829   6.144   2.002  0.3382 -0.9600  0.5741
  699ANI     HC 9781   5.996   6.122   2.175  3.2787 -2.2072  1.1267
  699ANI     HC 9782   6.218   6.061   2.135 -1.2936 -4.2565  0.8174
  699ANI     HC 9783   6.299   6.054   1.884  0.0255  2.2718  0.2529
  699ANI     HC 9784   6.140   6.103   1.706  2.2012  2.6853  0.7689
  699ANI     HN 9785   5.787   6.165   1.780  0.5291  2.3506  0.7026
  699ANI     HN 9786   5.867   6.074   1.673 -1.6708 -3.5435  3.3165
  700ANI     CN 9787   4.492   5.196   5.740  0.1454 -0.1328  0.0581
  700ANI     CH 9788   4.587   5.165   5.838  0.1699 -0.2076  0.0098
  700ANI     CH 9789   4.664   5.260   5.906  0.5864 -0.2766 -0.3664
  700ANI     CH 9790   4.626   5.393   5.883 -0.2520 -0.4185  0.1774
  700ANI     CH 9791   4.526   5.431   5.794  0.1277  0.1487 -0.0112
  700ANI     CH 9792   4.458   5.331   5.722  0.5134 -0.0598 -0.0860
  700ANI     NH 9793   4.438   5.095   5.669 -0.0113  0.3679 -0.5386
  700ANI     HC 9794   4.610   5.065   5.870  0.7596  0.5459  2.0398
  700ANI     HC 9795   4.729   5.243   5.991 -0.1112 -1.6605 -0.0946
  700ANI     HC 9796   4.682   5.472   5.932 -0.7396  0.5572 -0.8216
  700ANI     HC 9797   4.503   5.534   5.772 -1.0007 -0.3358 -1.2495
  700ANI     HC 9798   4.388   5.343   5.642 -1.2972  0.0331  1.4735
  700ANI     HN 9799   4.491   5.010   5.680  0.0427  0.7604  2.8034
  700ANI     HN 9800   4.418   5.114   5.572 -0.5831  0.8526 -0.3335
  701ANI     CN 9801   2.316   6.232   4.321 -0.1287  0.2116  0.1851
  701ANI     CH 9802   2.248   6.193   4.438 -0.3654 -0.2515 -0.1073
  701ANI     CH 9803   2.324   6.152   4.547  0.4105 -0.2669 -0.6513
  701ANI     CH 9804   2.463   6.132   4.537  0.4972 -0.1615  0.3018
  701ANI     CH 9805   2.529   6.169   4.419 -0.0334  0.2791  0.1399
  701ANI     CH 9806   2.455   6.220   4.312 -0.1043  0.4252  0.2590
  701ANI     NH 9807   2.248   6.292   4.223 -0.2202 -0.2984 -0.0620
  701ANI     HC 9808   2.140   6.187   4.434 -0.5564  2.7122 -0.7140
  701ANI     HC 9809   2.271   6.112   4.632 -2.2440  1.1652 -1.6098
  701ANI     HC 9810   2.521   6.096   4.621 -0.2341 -0.8756  0.5088
  701ANI     HC 9811   2.635   6.157   4.409  0.0104  2.3162 -2.0597
  701ANI     HC 9812   2.507   6.248   4.222 -0.5634 -0.2068 -0.2165
  701ANI     HN 9813   2.152   6.261   4.228  0.4120 -2.1351  0.9005
  701ANI     HN 9814   2.293   6.282   4.133 -2.3215  1.2332 -1.3223
  702ANI     CN 9815   0.250   4.097   0.739 -0.4000 -0.1008 -0.2337
  702ANI     CH 9816   0.232   4.229   0.780  0.2690 -0.0140 -0.2094
  702ANI     CH 9817   0.240   4.266   0.915  0.4823  0.5849 -0.3826
  702ANI     CH 9818   0.273   4.165   1.006  0.1592  0.2106 -0.6791
  702ANI     CH 9819   0.293   4.032   0.965  0.3242  0.0897 -0.2219
  702ANI     CH 9820   0.280   3.995   0.830  0.2712  0.1062 -0.2216
  702ANI     NH 9821   0.238   4.057   0.612  0.0493 -0.4002 -0.1824
  702ANI     HC 9822   0.206   4.307   0.710 -0.7350 -0.3704 -0.2475
  702ANI     HC 9823   0.232   4.368   0.948  0.8544  0.9786 -1.4872
  702ANI     HC 9824   0.298   4.194   1.107 -0.2832 -0.4669 -0.3695
  702ANI     HC 9825   0.327   3.956   1.033  2.7287  1.9647  0.7148
  702ANI     HC 9826   0.295   3.891   0.805 -1.6788  0.1639 -1.7706
  702ANI     HN 9827   0.245   4.123   0.536 -1.4985  1.5800  1.3484
  702ANI     HN 9828   0.299   3.979   0.593  1.7487  1.0740 -1.0233
  703ANI     CN 9829   4.592   1.766   5.731 -0.2500  0.4150  0.3576
  703ANI     CH 9830   4.728   1.746   5.706 -0.3706  0.2146 -0.1404
  703ANI     CH 9831   4.815   1.724   5.814 -0.4729 -0.0040 -0.1024
  703ANI     CH 9832   4.766   1.714   5.945 -0.1659  0.2599  0.0312
  703ANI     CH 9833   4.628   1.728   5.966 -0.1161  0.3647  0.2889
  703ANI     CH 9834   4.544   1.770   5.862 -0.1787  0.4689  0.3820
  703ANI     NH 9835   4.518   1.802   5.625  0.4728  0.2095 -0.2218
  703ANI     HC 9836   4.771   1.750   5.607  0.2536  1.4963  0.1734
  703ANI     HC 9837   4.922   1.714   5.808 -0.1570  2.2289  1.3192
  703ANI     HC 9838   4.834   1.690   6.025  0.7228 -0.6625 -0.9814
  703ANI     HC 9839   4.603   1.721   6.071  0.6808 -2.4075  0.3432
  703ANI     HC 9840   4.441   1.794   5.886 -0.5181 -0.3983 -0.1902
  703ANI     HN 9841   4.421   1.775   5.637  0.6902 -2.1601 -3.3242
  703ANI     HN 9842   4.554   1.763   5.539 -0.2822 -2.2723  0.5535
  704ANI     CN 9843   5.651   5.718   0.544 -0.4050 -0.0415 -0.5895
  704ANI     CH 9844   5.716   5.687   0.424  0.2598 -0.2098 -0.1850
  704ANI     CH 9845   5.735   5.784   0.325 -0.1324  0.0945  0.0334
  704ANI     CH 9846   5.688   5.914   0.344 -0.3694 -0.0100  0.1574
  704ANI     CH 9847   5.630   5.949   0.467  0.2377  0.3469  0.3388
  704ANI     CH 9848   5.609   5.850   0.563 -0.5215 -0.1203 -0.2995
  704ANI     NH 9849   5.641   5.628   0.643  0.1482  0.2822 -0.2365
  704ANI     HC 9850   5.759   5.588   0.419  1.0907  0.1500 -0.3058
  704ANI     HC 9851   5.785   5.754   0.234 -2.8042 -2.3694 -0.7016
  704ANI     HC 9852   5.714   5.991   0.273  1.6674 -0.6453  0.1910
  704ANI     HC 9853   5.588   6.045   0.493  1.6434  1.4369 -1.2308
  704ANI     HC 9854   5.571   5.878   0.661 -1.5768 -2.9964  0.1640
  704ANI     HN 9855   5.600   5.675   0.722  1.1210  2.4133 -0.9481
  704ANI     HN 9856   5.716   5.561   0.651  0.0529  0.3397  1.1397
  705ANI     CN 9857   6.131   2.239   1.266  0.1118  0.0701 -0.2457
  705ANI     CH 9858   6.187   2.317   1.367 -0.2829 -0.6839  0.5670
  705ANI     CH 9859   6.313   2.284   1.418  0.3084  0.3507 -0.1932
  705ANI     CH 9860   6.383   2.170   1.376 -0.0412  0.1913 -0.3459
  705ANI     CH 9861   6.326   2.099   1.269 -0.1628 -0.4185  0.1170
  705ANI     CH 9862   6.204   2.133   1.210 -0.1336 -0.2992  0.1254
  705ANI     NH 9863   6.016   2.275   1.205 -0.1461  0.0630  0.2381
  705ANI     HC 9864   6.142   2.407   1.406 -2.3786 -1.6475  0.4256
  705ANI     HC 9865   6.355   2.333   1.504  1.6373 -1.4247  0.1974
  705ANI     HC 9866   6.478   2.144   1.419  0.6577  0.0570 -1.9424
  705ANI     HC 9867   6.374   2.012   1.228 -1.3291 -0.0544 -2.0467
  705ANI     HC 9868   6.166   2.067   1.133  0.0248 -0.8910  0.5548
  705ANI     HN 9869   5.995   2.373   1.205  0.4251  0.1875 -1.2797
  705ANI     HN 9870   5.996   2.248   1.110  1.0929 -0.5889  0.1428
  706ANI     CN 9871   2.952   4.502   1.919  0.4564 -0.1637 -0.0971
  706ANI     CH 9872   3.019   4.618   1.880 -0.0597 -0.0357 -0.6219
  706ANI     CH 9873   2.963   4.702   1.784 -0.5662  0.5509  0.1784
  706ANI     CH 9874   2.856   4.657   1.706 -0.6396  0.2374  0.4615
  706ANI     CH 9875   2.792   4.537   1.738 -0.1168 -0.1246  0.1534
  706ANI     CH 9876   2.842   4.460   1.844  0.1227  0.1255  0.2244
  706ANI     NH 9877   2.987   4.428   2.025 -0.1815  0.1463  0.3338
  706ANI     HC 9878   3.108   4.646   1.936 -0.9505  1.2762  0.1629
  706ANI     HC 9879   3.015   4.795   1.763  0.1652  0.2376  0.5917
  706ANI     HC 9880   2.825   4.708   1.616 -1.4141  1.6343  1.5060
  706ANI     HC 9881   2.709   4.501   1.678 -1.1548 -0.3323  1.6813
  706ANI     HC 9882   2.796   4.364   1.864  0.9298 -0.2887  0.0950
  706ANI     HN 9883   2.930   4.346   2.039 -1.0605  0.6962  0.0350
  706ANI     HN 9884   2.976   4.485   2.108  0.8915  0.9475 -0.0643
  707ANI     CN 9885   3.130   2.066   0.276  0.2436  0.1686 -0.0264
  707ANI     CH 9886   3.163   2.189   0.217  0.2877  0.2350  0.1370
  707ANI     CH 9887   3.288   2.217   0.161  0.3520  0.1378  0.2315
  707ANI     CH 9888   3.383   2.114   0.164  0.3560  0.1309 -0.0935
  707ANI     CH 9889   3.358   1.995   0.234  0.0643  0.4218  0.2971
  707ANI     CH 9890   3.230   1.968   0.283  0.2016  0.1602  0.5151
  707ANI     NH 9891   3.017   2.059   0.348  0.1494 -0.5689 -0.2492
  707ANI     HC 9892   3.097   2.274   0.227 -0.2853 -0.0835 -0.9216
  707ANI     HC 9893   3.306   2.317   0.126  1.0947 -1.4045 -4.2002
  707ANI     HC 9894   3.482   2.142   0.129 -0.8592  2.6657 -1.6373
  707ANI     HC 9895   3.429   1.914   0.224 -0.1941  0.3979 -1.5058
  707ANI     HC 9896   3.202   1.872   0.324 -0.4722  0.6598  1.2353
  707ANI     HN 9897   2.946   2.127   0.326  2.3049  0.8646 -3.0361
  707ANI     HN 9898   2.974   1.967   0.350 -0.8196 -0.0987  2.0041
  708ANI     CN 9899   0.781   0.164   4.285  0.4023 -0.0991  0.1614
  708ANI     CH 9900   0.726   0.191   4.411  0.1508  0.3312 -0.0415
  708ANI     CH 9901   0.588   0.213   4.420  0.0630 -0.2042 -0.0604
  708ANI     CH 9902   0.510   0.217   4.303 -0.0656 -0.4937  0.0156
  708ANI     CH 9903   0.565   0.186   4.178  0.1573  0.1411 -0.0491
  708ANI     CH 9904   0.703   0.161   4.170  0.1038 -0.3252  0.3695
  708ANI     NH 9905   0.910   0.128   4.284  0.2744 -0.5458 -0.1126
  708ANI     HC 9906   0.777   0.206   4.505 -1.5821 -0.5098  1.0587
  708ANI     HC 9907   0.542   0.236   4.515 -0.6354  0.9769 -0.6670
  708ANI     HC 9908   0.408   0.250   4.309  0.0917 -0.1159  0.6471
  708ANI     HC 9909   0.499   0.182   4.093  0.8622 -1.9450 -0.5301
  708ANI     HC 9910   0.744   0.134   4.074 -0.8751 -3.7143  0.8672
  708ANI     HN 9911   0.974   0.160   4.355  1.8836  0.0140 -1.7756
  708ANI     HN 9912   0.959   0.134   4.195  1.0717 -1.3358  0.2698
  709ANI     CN 9913   0.866   5.171   5.268 -0.1628  0.0665  0.2468
  709ANI     CH 9914   0.907   5.300   5.303 -0.3581  0.0735  0.4536
  709ANI     CH 9915   0.850   5.413   5.243  0.4078  0.4731  0.4626
  709ANI     CH 9916   0.751   5.392   5.146  0.1946 -0.0583  0.7914
  709ANI     CH 9917   0.717   5.264   5.101  0.2573  0.1107  0.2628
  709ANI     CH 9918   0.768   5.153   5.170  0.1349 -0.1219 -0.0189
  709ANI     NH 9919   0.912   5.067   5.339 -0.4735  0.1228  0.5290
  709ANI     HC 9920   0.978   5.317   5.382 -1.6898  3.8757  0.9182
  709ANI     HC 9921   0.882   5.510   5.276  2.4438 -0.2450  0.6648
  709ANI     HC 9922   0.705   5.472   5.090 -0.2917 -0.7614  0.1780
  709ANI     HC 9923   0.662   5.240   5.010 -0.2246 -1.8526  1.0388
  709ANI     HC 9924   0.740   5.053   5.141 -0.5234 -0.4693  1.7784
  709ANI     HN 9925   0.831   5.007   5.329 -0.5492  0.1781  0.7921
  709ANI     HN 9926   0.939   5.081   5.435  1.4949 -0.6800  0.1200
  710ANI     CN 9927   1.992   6.208   2.826  0.6490 -0.7061 -0.6410
  710ANI     CH 9928   2.088   6.122   2.881  0.1256 -0.5429  0.5520
  710ANI     CH 9929   2.221   6.161   2.900 -0.1716  0.4398  0.6760
  710ANI     CH 9930   2.263   6.285   2.851  0.1406  0.3189  0.6320
  710ANI     CH 9931   2.173   6.367   2.782 -0.3783 -0.6723  0.1257
  710ANI     CH 9932   2.040   6.325   2.766 -0.4478 -0.1978 -0.5527
  710ANI     NH 9933   1.865   6.170   2.808  0.1138  0.5754  0.3327
  710ANI     HC 9934   2.064   6.018   2.899  1.1876 -0.3404  3.3229
  710ANI     HC 9935   2.290   6.089   2.944 -1.4493  0.2461  2.4216
  710ANI     HC 9936   2.366   6.317   2.857  0.0761  0.6128  0.1746
  710ANI     HC 9937   2.198   6.464   2.743 -0.3522 -1.1488 -1.0734
  710ANI     HC 9938   1.964   6.383   2.716  1.6118  1.5839 -1.7413
  710ANI     HN 9939   1.822   6.261   2.812  1.8845  1.4314  0.1466
  710ANI     HN 9940   1.826   6.114   2.884  0.9961 -1.9431 -1.0002
  711ANI     CN 9941   5.966   1.097   5.167 -0.1591  0.2704 -0.0378
  711ANI     CH 9942   5.993   0.973   5.225  0.5791  0.3946 -0.1146
  711ANI     CH 9943   5.936   0.933   5.346  0.2731  0.4274 -0.2477
  711ANI     CH 9944   5.838   1.014   5.405 -0.0313  0.0410 -0.2203
  711ANI     CH 9945   5.803   1.136   5.344 -0.4046  0.4197  0.7441
  711ANI     CH 9946   5.866   1.176   5.226 -0.2721 -0.3168  0.5614
  711ANI     NH 9947   6.039   1.146   5.066 -0.6657 -0.4441 -0.7496
  711ANI     HC 9948   6.064   0.905   5.180 -0.9790  0.6218 -2.9900
  711ANI     HC 9949   5.984   0.849   5.393 -1.7116 -0.6217 -0.0257
  711ANI     HC 9950   5.798   0.992   5.502 -2.2961  0.1366 -1.0920
  711ANI     HC 9951   5.721   1.188   5.391 -1.0188 -1.1669  1.4787
  711ANI     HC 9952   5.849   1.273   5.182  1.6298 -0.3434 -0.2764
  711ANI     HN 9953   6.003   1.217   5.004 -1.3323 -0.7690 -0.7446
  711ANI     HN 9954   6.069   1.069   5.008  0.4595 -0.9804  0.5141
  712ANI     CN 9955   1.670   4.538   3.926 -0.4407  0.2017  0.2265
  712ANI     CH 9956   1.580   4.542   4.033 -0.4553 -0.1670  0.2300
  712ANI     CH 9957   1.497   4.654   4.050 -0.5662 -0.2474  0.2152
  712ANI     CH 9958   1.499   4.757   3.956 -0.6119 -0.2317  0.2314
  712ANI     CH 9959   1.590   4.755   3.850 -0.8078 -0.7615  0.0708
  712ANI     CH 9960   1.670   4.641   3.831 -0.0519 -0.1943 -0.2063
  712ANI     NH 9961   1.746   4.429   3.915  0.1577  0.6024  0.3649
  712ANI     HC 9962   1.558   4.462   4.101  2.0526 -1.4462 -0.3960
  712ANI     HC 9963   1.431   4.666   4.135  1.1329  1.7178  1.2765
  712ANI     HC 9964   1.429   4.837   3.976  1.3507  1.3396  0.9354
  712ANI     HC 9965   1.593   4.839   3.782  0.5959 -2.0551 -1.5126
  712ANI     HC 9966   1.741   4.644   3.750 -0.4682  0.6195 -0.5495
  712ANI     HN 9967   1.764   4.402   3.819 -0.3664 -0.5980  0.5969
  712ANI     HN 9968   1.704   4.351   3.965 -1.5671  1.9545  1.0664
  713ANI     CN 9969   1.025   1.268   4.564 -0.2436  0.0092 -0.0479
  713ANI     CH 9970   0.965   1.377   4.499  0.2933  0.5561  0.3689
  713ANI     CH 9971   0.828   1.389   4.474  0.2989  0.4471  0.2834
  713ANI     CH 9972   0.748   1.290   4.531  0.4817 -0.1448 -0.4828
  713ANI     CH 9973   0.802   1.178   4.595 -0.1507 -0.1008  0.1377
  713ANI     CH 9974   0.940   1.171   4.619 -0.0628 -0.3704 -0.4298
  713ANI     NH 9975   1.158   1.266   4.582 -0.1854 -0.4257 -0.4908
  713ANI     HC 9976   1.033   1.453   4.463  0.1794 -0.0919 -1.2531
  713ANI     HC 9977   0.784   1.478   4.430  0.3277  0.8323  1.0278
  713ANI     HC 9978   0.640   1.293   4.534  0.5803  2.1432  2.2878
  713ANI     HC 9979   0.733   1.103   4.630  0.1661 -0.1304  0.7074
  713ANI     HC 9980   0.978   1.090   4.679 -0.6363 -0.0743  0.3489
  713ANI     HN 9981   1.198   1.174   4.578 -0.0923 -0.4083 -0.0590
  713ANI     HN 9982   1.214   1.334   4.533  0.6482 -1.5779 -1.1396
  714ANI     CN 9983   0.291   5.197   6.018  1.0124 -0.1704  0.0090
  714ANI     CH 9984   0.271   5.130   6.139 -0.0680 -0.0169 -0.0858
  714ANI     CH 9985   0.275   4.990   6.145 -0.3365 -0.0418 -0.4401
  714ANI     CH 9986   0.305   4.914   6.032  0.1790 -0.3504 -0.0987
  714ANI     CH 9987   0.329   4.981   5.912 -0.1006  0.1130  0.1045
  714ANI     CH 9988   0.317   5.120   5.904  0.4320  0.1376 -0.3279
  714ANI     NH 9989   0.294   5.331   6.014 -0.1964 -0.1414  0.0441
  714ANI     HC 9990   0.242   5.189   6.225 -0.6489  0.1588 -0.3964
  714ANI     HC 9991   0.256   4.952   6.245  0.5159  1.2329  0.2250
  714ANI     HC 9992   0.306   4.806   6.030  0.9761 -0.3409 -0.8154
  714ANI     HC 9993   0.353   4.928   5.821 -2.3402  0.7965 -0.9129
  714ANI     HC 9994   0.328   5.171   5.809  0.1602  0.1128 -0.3739
  714ANI     HN 9995   0.342   5.364   6.096 -0.7454  2.2940 -0.5876
  714ANI     HN 9996   0.344   5.381   5.941 -0.9444  0.7600  0.1419
  715ANI     CN 9997   1.368   3.584   4.278  0.3039  0.0523  0.1399
  715ANI     CH 9998   1.339   3.702   4.346  0.5716  0.2973 -0.1646
  715ANI     CH 9999   1.310   3.690   4.483 -0.1966 -0.5087 -0.3872
  715ANI     CH10000   1.308   3.570   4.554  0.1934 -0.0770  0.3619
  715ANI     CH10001   1.343   3.452   4.487  0.1966  0.0540  0.1326
  715ANI     CH10002   1.368   3.464   4.350  0.0861  0.0339  0.1096
  715ANI     NH10003   1.399   3.575   4.147 -0.1343  0.1405  0.0302
  715ANI     HC10004   1.319   3.796   4.297 -1.0381 -1.0913 -2.2803
  715ANI     HC10005   1.277   3.780   4.533  0.1029 -0.0220 -1.0563
  715ANI     HC10006   1.289   3.582   4.660 -0.0268 -0.6107  0.3824
  715ANI     HC10007   1.343   3.355   4.535  1.8732 -0.8414 -1.6296
  715ANI     HC10008   1.394   3.372   4.300  2.3725  1.0282 -0.5948
  715ANI     HN10009   1.369   3.489   4.104  2.0030 -1.2903  1.3132
  715ANI     HN10010   1.363   3.650   4.090 -3.2328 -1.6624 -0.4417
  716ANI     CN10011   4.866   0.108   2.459 -0.1227 -0.4116 -0.3519
  716ANI     CH10012   4.822   0.235   2.420  0.1106 -0.2742 -0.1683
  716ANI     CH10013   4.855   0.343   2.503  0.6396 -0.1822 -0.4953
  716ANI     CH10014   4.911   0.324   2.629 -0.0087 -0.5149 -0.2533
  716ANI     CH10015   4.952   0.196   2.667 -0.5501 -0.5324  0.2815
  716ANI     CH10016   4.925   0.087   2.584 -0.7418 -0.2487 -0.0290
  716ANI     NH10017   4.828   0.004   2.383 -0.6600 -0.2700 -0.2847
  716ANI     HC10018   4.778   0.254   2.323  1.6737  1.4173 -0.5742
  716ANI     HC10019   4.827   0.441   2.467 -3.0953 -1.4936 -1.4297
  716ANI     HC10020   4.930   0.407   2.696  0.4511  0.8631 -2.0724
  716ANI     HC10021   4.997   0.188   2.765 -2.3884  0.1505  1.1931
  716ANI     HC10022   4.938  -0.014   2.621 -1.4339  0.5106  2.4161
  716ANI     HN10023   4.836   0.029   2.285  2.8157  3.4604  0.8030
  716ANI     HN10024   4.885  -0.077   2.404  0.2341 -0.0879 -1.8621
  717ANI     CN10025   5.383   0.823   4.497  0.1522 -0.0774 -0.3314
  717ANI     CH10026   5.451   0.928   4.560 -0.8188  0.1078  0.4143
  717ANI     CH10027   5.522   0.900   4.678  0.0144 -0.1337 -0.1420
  717ANI     CH10028   5.502   0.773   4.734  0.3860 -0.3083 -0.4052
  717ANI     CH10029   5.454   0.664   4.661 -0.0138  0.0095 -0.6190
  717ANI     CH10030   5.398   0.689   4.536  0.5869 -0.2056 -0.9329
  717ANI     NH10031   5.315   0.852   4.385 -0.4432  0.0740  0.0671
  717ANI     HC10032   5.451   1.026   4.515 -1.0072 -1.2931 -2.7301
  717ANI     HC10033   5.583   0.977   4.722  0.6173 -0.4422 -0.4258
  717ANI     HC10034   5.557   0.750   4.824 -0.6463  0.5336  0.4609
  717ANI     HC10035   5.458   0.566   4.707 -0.0434  0.6939  0.8918
  717ANI     HC10036   5.347   0.614   4.477 -2.3064  1.1645 -0.2918
  717ANI     HN10037   5.280   0.947   4.378  0.4226  0.3044 -1.4254
  717ANI     HN10038   5.257   0.776   4.353  2.2452 -1.4270 -1.4490
  718ANI     CN10039   0.786   1.826   1.421 -0.4403  0.2618  0.1290
  718ANI     CH10040   0.705   1.714   1.441 -0.6396  0.3215 -0.3402
  718ANI     CH10041   0.654   1.683   1.568  0.6324  0.5949  0.2441
  718ANI     CH10042   0.685   1.766   1.676 -0.2905  0.1534  0.8631
  718ANI     CH10043   0.762   1.882   1.653 -0.3563 -0.0572 -0.4815
  718ANI     CH10044   0.808   1.916   1.526  0.1172  0.4721 -0.1672
  718ANI     NH10045   0.816   1.863   1.296 -0.7350  0.4799  0.1224
  718ANI     HC10046   0.685   1.650   1.357  1.3555  0.2932 -0.8154
  718ANI     HC10047   0.601   1.588   1.568 -0.4777  1.1715 -1.9684
  718ANI     HC10048   0.638   1.741   1.769  0.3429  0.5509  1.2963
  718ANI     HC10049   0.772   1.961   1.726 -0.2552 -1.4012  1.0022
  718ANI     HC10050   0.865   2.004   1.499 -1.1185  1.8084  1.4528
  718ANI     HN10051   0.802   1.961   1.278  0.1931  0.5988  0.0012
  718ANI     HN10052   0.764   1.809   1.228 -0.8256  0.0499  0.5293
  719ANI     CN10053   3.144   3.264   4.943  0.1024 -0.2349 -0.3961
  719ANI     CH10054   3.194   3.188   4.837 -0.1360 -0.0140 -0.6703
  719ANI     CH10055   3.330   3.155   4.829 -0.0366  0.2331 -0.0741
  719ANI     CH10056   3.418   3.198   4.929  0.2292 -0.5272  0.0265
  719ANI     CH10057   3.366   3.269   5.038 -0.3879  0.0033 -0.6081
  719ANI     CH10058   3.231   3.308   5.043 -0.3759 -0.0290 -0.0662
  719ANI     NH10059   3.012   3.281   4.958  0.1460 -0.2420  0.0076
  719ANI     HC10060   3.126   3.152   4.762 -2.2083 -1.5987  1.8667
  719ANI     HC10061   3.366   3.087   4.753 -3.0281 -0.2135 -1.1876
  719ANI     HC10062   3.522   3.173   4.916  0.6788  0.5355  1.4865
  719ANI     HC10063   3.433   3.296   5.118  0.9197  1.0865 -2.0178
  719ANI     HC10064   3.197   3.361   5.131 -0.8949  2.4814 -1.7374
  719ANI     HN10065   2.983   3.369   4.998 -0.0726 -0.0687 -0.5240
  719ANI     HN10066   2.969   3.283   4.867  1.4518  3.2602 -0.6018
  720ANI     CN10067   5.042   2.196   2.649  0.1150  0.4618 -0.0362
  720ANI     CH10068   4.910   2.235   2.669  0.1112  0.2575  0.3295
  720ANI     CH10069   4.856   2.228   2.798  0.1204  0.2951  0.3352
  720ANI     CH10070   4.924   2.183   2.912  0.1563 -0.0959  0.1601
  720ANI     CH10071   5.059   2.154   2.889 -0.1349 -1.0571 -0.3676
  720ANI     CH10072   5.117   2.160   2.762  0.1495  0.0361 -0.1909
  720ANI     NH10073   5.094   2.214   2.526  0.6460 -0.2808  0.0720
  720ANI     HC10074   4.851   2.275   2.588 -0.3184  2.2534  1.5693
  720ANI     HC10075   4.752   2.252   2.817  0.2040  1.0553 -0.1551
  720ANI     HC10076   4.884   2.165   3.011  0.2616 -1.3927 -0.0241
  720ANI     HC10077   5.115   2.116   2.973  0.2100 -2.3965 -1.1946
  720ANI     HC10078   5.222   2.141   2.747 -0.4518 -2.8966 -0.9911
  720ANI     HN10079   5.168   2.148   2.508  1.2283  0.2385  0.5352
  720ANI     HN10080   5.040   2.230   2.443  0.8296  0.9817  0.1712
  721ANI     CN10081   3.870   3.007   2.188  0.5463 -0.0921  0.0745
  721ANI     CH10082   3.978   3.037   2.105  0.4635 -0.4664 -0.1661
  721ANI     CH10083   4.099   3.080   2.161  0.3746  0.1684 -0.4630
  721ANI     CH10084   4.114   3.111   2.297  0.2624 -0.1474 -0.3792
  721ANI     CH10085   4.005   3.088   2.381  0.4353 -0.3926 -0.2207
  721ANI     CH10086   3.888   3.037   2.324  0.2105 -0.3102  0.1653
  721ANI     NH10087   3.755   2.958   2.139  0.0927  0.6142  0.4245
  721ANI     HC10088   3.971   3.007   2.001  1.0895 -2.8659  0.4482
  721ANI     HC10089   4.184   3.094   2.096  2.6460 -0.3013  2.3000
  721ANI     HC10090   4.207   3.134   2.347  0.0136 -1.2572  0.6074
  721ANI     HC10091   4.014   3.104   2.488 -3.7884  1.3128 -0.0246
  721ANI     HC10092   3.807   3.017   2.393  0.3002 -1.2704 -0.0028
  721ANI     HN10093   3.772   2.920   2.048 -1.9191  0.9900 -0.1207
  721ANI     HN10094   3.721   2.882   2.196 -1.9749  0.4865 -0.9706
  722ANI     CN10095   4.855   2.732   2.021 -0.3126  0.3899 -0.7240
  722ANI     CH10096   4.979   2.792   1.995  0.2883 -0.3812  0.3127
  722ANI     CH10097   4.998   2.926   2.030 -0.2664 -0.2916  0.2866
  722ANI     CH10098   4.892   3.006   2.074 -0.1522 -0.3245  0.6317
  722ANI     CH10099   4.764   2.952   2.086 -0.5291  0.3437 -0.2716
  722ANI     CH10100   4.751   2.814   2.066  0.0167  0.1931  0.4002
  722ANI     NH10101   4.844   2.600   2.003  0.0294  0.2548  0.0338
  722ANI     HC10102   5.072   2.743   1.971  1.0278  2.0469 -2.1324
  722ANI     HC10103   5.098   2.966   2.024  0.0852 -1.5254 -2.9133
  722ANI     HC10104   4.922   3.109   2.092 -0.2875 -0.1181 -0.2912
  722ANI     HC10105   4.682   3.007   2.132 -1.8032 -1.1916 -0.6529
  722ANI     HC10106   4.651   2.777   2.086 -0.5786 -0.2789 -3.1370
  722ANI     HN10107   4.751   2.574   2.034  0.1317  1.7619  1.7045
  722ANI     HN10108   4.908   2.535   2.045 -1.0153 -1.6820 -1.2625
  723ANI     CN10109   0.120   2.303   0.289  0.1333 -0.0992 -0.1169
  723ANI     CH10110   0.129   2.441   0.272  0.1213 -0.0549  0.2411
  723ANI     CH10111   0.228   2.499   0.193 -0.1819 -0.1592 -0.2165
  723ANI     CH10112   0.322   2.411   0.136  0.4744 -0.2538  0.9931
  723ANI     CH10113   0.314   2.272   0.147  0.0980 -0.3346 -0.1709
  723ANI     CH10114   0.210   2.218   0.223  0.0564 -0.1802 -0.1175
  723ANI     NH10115   0.027   2.260   0.375 -0.2249  0.5376 -0.1837
  723ANI     HC10116   0.062   2.505   0.329  1.4379  2.4163 -0.9325
  723ANI     HC10117   0.222   2.606   0.180 -2.3895 -0.4370 -1.6805
  723ANI     HC10118   0.402   2.448   0.074  1.2610 -3.1630  0.2264
  723ANI     HC10119   0.396   2.212   0.110 -1.6707 -1.6265 -2.1114
  723ANI     HC10120   0.202   2.111   0.238 -0.7953  0.1636  1.9704
  723ANI     HN10121  -0.018   2.186   0.322 -2.7450  0.2993  2.1895
  723ANI     HN10122  -0.049   2.325   0.386  0.3919  1.1246  0.6159
  724ANI     CN10123   4.718   2.811   3.118  0.1649  0.5985 -0.0288
  724ANI     CH10124   4.858   2.808   3.119  0.1574  0.2456 -0.0448
  724ANI     CH10125   4.924   2.758   3.232 -0.3087 -0.4910 -0.0943
  724ANI     CH10126   4.851   2.716   3.344 -0.2517  0.0477  0.1469
  724ANI     CH10127   4.711   2.727   3.344 -0.2606 -0.0619 -0.2105
  724ANI     CH10128   4.645   2.782   3.234  0.0454  0.4317 -0.1463
  724ANI     NH10129   4.657   2.865   3.012  0.7917  1.1128 -0.1370
  724ANI     HC10130   4.914   2.822   3.027 -1.5432  2.1796 -0.8092
  724ANI     HC10131   5.032   2.755   3.243 -0.3116  0.9142  0.4015
  724ANI     HC10132   4.906   2.674   3.426 -0.0897  0.6881  0.3719
  724ANI     HC10133   4.653   2.696   3.429 -0.5903 -1.6890 -1.0074
  724ANI     HC10134   4.540   2.807   3.244 -0.9997 -1.9455 -3.9756
  724ANI     HN10135   4.717   2.868   2.931 -0.2910  1.1633 -0.9622
  724ANI     HN10136   4.569   2.817   2.997  0.8687  1.7001 -2.6049
  725ANI     CN10137   5.023   3.179   0.684  0.5061  0.5124  0.3074
  725ANI     CH10138   4.960   3.289   0.624  0.1100  0.1336  0.0342
  725ANI     CH10139   4.963   3.298   0.485 -0.4108 -0.5809 -0.0318
  725ANI     CH10140   5.019   3.196   0.407  0.4607 -0.0552 -0.1063
  725ANI     CH10141   5.076   3.087   0.474 -0.0323 -0.1963  0.0841
  725ANI     CH10142   5.075   3.070   0.613 -0.2820  0.2435  0.1362
  725ANI     NH10143   5.031   3.169   0.817  0.1638 -0.3348  0.2671
  725ANI     HC10144   4.917   3.369   0.683 -0.5658  0.0116 -0.2894
  725ANI     HC10145   4.913   3.382   0.438  2.0943 -0.4545 -2.6178
  725ANI     HC10146   5.026   3.208   0.300  2.0135  1.5494  0.1606
  725ANI     HC10147   5.101   3.000   0.414 -0.6230  0.0829 -0.5749
  725ANI     HC10148   5.105   2.978   0.661 -0.5643  0.0249 -0.1136
  725ANI     HN10149   5.104   3.106   0.848  1.1428 -0.1229 -1.5857
  725ANI     HN10150   5.039   3.265   0.848 -2.1243  0.4481 -1.4885
  726ANI     CN10151   5.973   1.095   1.691 -0.3798 -0.6003 -0.2330
  726ANI     CH10152   5.925   1.079   1.821  0.0020  0.4687  0.0399
  726ANI     CH10153   5.794   1.122   1.843  0.0028  0.4463  0.0913
  726ANI     CH10154   5.711   1.169   1.741 -0.3764 -0.6030 -0.0865
  726ANI     CH10155   5.762   1.181   1.610 -0.3876  0.6495  0.0119
  726ANI     CH10156   5.891   1.133   1.584 -0.3418  0.6809  0.1795
  726ANI     NH10157   6.101   1.066   1.662  0.0035  0.6438  0.1758
  726ANI     HC10158   5.986   1.056   1.907  1.3633 -0.5680 -1.1841
  726ANI     HC10159   5.755   1.117   1.944 -0.9914 -0.6571 -0.3417
  726ANI     HC10160   5.609   1.197   1.763 -0.2304 -0.4554  0.4072
  726ANI     HC10161   5.700   1.223   1.533  0.4356 -0.0944 -1.0601
  726ANI     HC10162   5.930   1.149   1.485 -0.7426  0.3944 -0.0280
  726ANI     HN10163   6.172   1.057   1.733  3.7406 -4.3466 -3.8287
  726ANI     HN10164   6.145   1.098   1.578  1.2804 -0.4194  0.4187
  727ANI     CN10165   1.556   0.486   3.644  0.2293  0.2225 -0.1703
  727ANI     CH10166   1.442   0.406   3.639  0.1965  0.2651 -0.1033
  727ANI     CH10167   1.456   0.266   3.643  0.0082  0.2169 -1.0709
  727ANI     CH10168   1.584   0.212   3.624  0.1729  0.0953  0.3777
  727ANI     CH10169   1.699   0.292   3.615 -0.0102  0.2675 -0.4902
  727ANI     CH10170   1.683   0.431   3.621  0.3834  0.2746  0.5517
  727ANI     NH10171   1.533   0.617   3.637  0.0003  0.1660 -0.4897
  727ANI     HC10172   1.344   0.452   3.647  0.4618  0.9007 -0.4947
  727ANI     HC10173   1.366   0.208   3.632 -0.5117  0.8001  0.0290
  727ANI     HC10174   1.598   0.105   3.620 -1.6104 -0.1224 -0.2653
  727ANI     HC10175   1.798   0.249   3.611  0.9859  2.3552  0.8304
  727ANI     HC10176   1.772   0.492   3.615  0.2544  0.3849 -0.2993
  727ANI     HN10177   1.469   0.643   3.711  2.0731  0.8275  1.1230
  727ANI     HN10178   1.618   0.669   3.652 -1.2435  1.5307  2.3067
  728ANI     CN10179   5.746   5.833   2.964  0.2377  0.2835 -0.5738
  728ANI     CH10180   5.821   5.775   3.067  0.0639  1.0092 -0.0334
  728ANI     CH10181   5.783   5.808   3.197  0.2465  0.0976  0.2582
  728ANI     CH10182   5.675   5.892   3.226 -0.0580 -0.1723 -0.0926
  728ANI     CH10183   5.604   5.958   3.125  0.2431 -0.0586 -0.2300
  728ANI     CH10184   5.650   5.929   2.996  0.0947  0.0508 -0.3078
  728ANI     NH10185   5.778   5.827   2.834 -0.1368  0.1327 -0.6591
  728ANI     HC10186   5.909   5.713   3.055 -1.0104 -1.6155  4.4334
  728ANI     HC10187   5.816   5.750   3.282 -1.5409 -1.7145 -0.2329
  728ANI     HC10188   5.647   5.917   3.328  0.3341  0.2378 -0.0823
  728ANI     HC10189   5.520   6.022   3.146  2.1737  2.5007 -0.1087
  728ANI     HC10190   5.589   5.971   2.917 -0.0352 -0.8386 -0.6843
  728ANI     HN10191   5.707   5.772   2.789  1.9669 -2.5021 -0.8392
  728ANI     HN10192   5.856   5.764   2.826 -0.7616 -0.7561  0.2109
  729ANI     CN10193   0.503   3.707   0.235  0.3905  0.4804 -0.3824
  729ANI     CH10194   0.609   3.727   0.323  0.1456  0.0626  0.0105
  729ANI     CH10195   0.636   3.855   0.374  0.0344  0.3038 -0.5339
  729ANI     CH10196   0.546   3.957   0.343 -0.9520 -0.2942  0.2876
  729ANI     CH10197   0.443   3.938   0.250 -0.4094  0.4298 -0.4781
  729ANI     CH10198   0.427   3.814   0.186 -0.3001  0.1687 -0.0023
  729ANI     NH10199   0.466   3.584   0.197  0.1399  0.4021  0.1084
  729ANI     HC10200   0.673   3.650   0.364  2.1005  2.1145  0.9763
  729ANI     HC10201   0.713   3.880   0.445 -1.5921  1.1982  0.9804
  729ANI     HC10202   0.552   4.060   0.376 -1.0207  0.0801 -0.8305
  729ANI     HC10203   0.376   4.016   0.218  0.3755  0.0121 -3.3192
  729ANI     HC10204   0.345   3.797   0.118 -1.6791  2.0574  1.1533
  729ANI     HN10205   0.381   3.584   0.143 -0.2115 -0.4757  0.6542
  729ANI     HN10206   0.534   3.534   0.141  1.0573 -0.5292  2.0050
  730ANI     CN10207   4.411   5.930   2.957  0.0877  0.3570  0.2259
  730ANI     CH10208   4.540   5.875   2.958 -0.0629 -0.0078 -0.2013
  730ANI     CH10209   4.627   5.892   3.067  0.0307 -0.1605 -0.2524
  730ANI     CH10210   4.584   5.966   3.177  0.4198 -0.0130 -0.1986
  730ANI     CH10211   4.461   6.033   3.173  0.3757 -0.1082 -0.4205
  730ANI     CH10212   4.376   6.013   3.064 -0.4103  0.2825  0.1178
  730ANI     NH10213   4.327   5.908   2.855  0.1908  0.2571  0.1633
  730ANI     HC10214   4.572   5.812   2.877 -2.9423 -2.0682  0.1618
  730ANI     HC10215   4.730   5.860   3.067  0.7047  1.8152 -1.8564
  730ANI     HC10216   4.653   5.994   3.255 -0.5093 -0.6123  0.8565
  730ANI     HC10217   4.440   6.101   3.254 -0.4389 -0.4049 -0.3804
  730ANI     HC10218   4.283   6.067   3.057  0.0074  1.0816  0.6444
  730ANI     HN10219   4.333   5.829   2.792 -0.2302 -0.9092  1.5552
  730ANI     HN10220   4.231   5.923   2.879  0.2883 -0.2648  0.9040
  731ANI     CN10221   3.527   2.354   5.568 -0.2846 -0.1608 -0.0357
  731ANI     CH10222   3.479   2.235   5.625 -0.5128 -0.0302  0.0456
  731ANI     CH10223   3.364   2.242   5.704 -0.4003  0.5819  0.1573
  731ANI     CH10224   3.283   2.357   5.703 -0.5940  0.4411 -0.3636
  731ANI     CH10225   3.331   2.473   5.642  0.7130  0.2285  0.2508
  731ANI     CH10226   3.458   2.475   5.582  0.7244  0.3824  0.2806
  731ANI     NH10227   3.637   2.354   5.493 -0.1113  0.1125  0.2176
  731ANI     HC10228   3.536   2.144   5.621 -0.4488  0.0886 -2.3423
  731ANI     HC10229   3.325   2.155   5.755 -1.5004  1.3581  0.6985
  731ANI     HC10230   3.192   2.353   5.762 -0.1469 -0.8091  0.2681
  731ANI     HC10231   3.265   2.557   5.631 -0.0559 -0.4101 -0.0138
  731ANI     HC10232   3.489   2.565   5.531  1.6289  0.1569  0.4272
  731ANI     HN10233   3.626   2.409   5.409  1.4603  2.2590  1.3488
  731ANI     HN10234   3.680   2.266   5.468  0.2901  0.5427 -0.6591
  732ANI     CN10235   1.444   0.069   4.926  0.1254 -0.2613 -0.5825
  732ANI     CH10236   1.474   0.199   4.967  0.1675 -0.4682  0.0658
  732ANI     CH10237   1.605   0.245   4.986  0.0107  0.0295 -0.0476
  732ANI     CH10238   1.708   0.151   4.975 -0.0210  0.0143 -0.2098
  732ANI     CH10239   1.680   0.022   4.927  0.3182 -0.3823  0.6451
  732ANI     CH10240   1.549  -0.022   4.906  0.3470 -0.1159 -0.1117
  732ANI     NH10241   1.316   0.032   4.916 -0.1371  0.4882 -0.0106
  732ANI     HC10242   1.389   0.261   4.989  0.8607  0.3265  0.5545
  732ANI     HC10243   1.624   0.342   5.029 -1.9259 -0.9288  3.1376
  732ANI     HC10244   1.810   0.183   4.991 -0.7424  1.4443  1.7630
  732ANI     HC10245   1.761  -0.048   4.920  0.2146 -0.2898 -1.9127
  732ANI     HC10246   1.530  -0.125   4.878 -3.5685  1.0292 -2.0297
  732ANI     HN10247   1.263   0.054   4.999  1.4240  0.7968  0.9131
  732ANI     HN10248   1.309  -0.066   4.895  1.8544  0.5391 -1.0451
  733ANI     CN10249   5.305   4.965   4.122  0.3020 -0.0595 -0.1743
  733ANI     CH10250   5.334   4.942   4.257 -0.4226 -0.4110 -0.0796
  733ANI     CH10251   5.226   4.910   4.341  0.1265 -0.7928  0.4874
  733ANI     CH10252   5.098   4.894   4.287  0.3912 -0.6829 -0.1780
  733ANI     CH10253   5.075   4.914   4.151 -0.1879  0.2310  0.0513
  733ANI     CH10254   5.180   4.942   4.063  0.1455 -0.3546  0.2653
  733ANI     NH10255   5.410   4.989   4.043  0.1447  0.3947 -0.2457
  733ANI     HC10256   5.427   4.948   4.311 -1.2425  1.0066  1.2180
  733ANI     HC10257   5.230   4.893   4.448  1.2406  2.8781  1.1278
  733ANI     HC10258   5.020   4.861   4.354  0.0524  2.0987  0.8866
  733ANI     HC10259   4.974   4.907   4.111 -0.7214 -0.5555  1.4965
  733ANI     HC10260   5.165   4.951   3.956 -2.2154  0.6378  0.6407
  733ANI     HN10261   5.493   4.934   4.061  0.3359  0.4914 -0.8259
  733ANI     HN10262   5.388   4.958   3.950 -1.1140 -0.3624  0.2867
  734ANI     CN10263   2.426   5.151   0.266 -0.1694 -0.1248  0.5368
  734ANI     CH10264   2.394   5.063   0.162  0.1611  0.1157  0.2304
  734ANI     CH10265   2.480   4.959   0.128 -0.5554 -0.5438  0.4276
  734ANI     CH10266   2.597   4.933   0.201 -0.2255  0.3189  0.2102
  734ANI     CH10267   2.630   5.024   0.302  0.2231  0.2972  0.0847
  734ANI     CH10268   2.548   5.133   0.334  0.0226  0.0984  0.2503
  734ANI     NH10269   2.344   5.253   0.293 -0.1887  0.0268 -0.0952
  734ANI     HC10270   2.306   5.076   0.101 -0.4427  0.3750  1.1467
  734ANI     HC10271   2.436   4.886   0.060  0.2744 -1.3216  0.7101
  734ANI     HC10272   2.663   4.852   0.174  1.3584  1.1385  1.5513
  734ANI     HC10273   2.720   5.001   0.355 -0.2623 -0.3007  0.6499
  734ANI     HC10274   2.571   5.211   0.405 -0.1917  1.2688 -0.9221
  734ANI     HN10275   2.313   5.253   0.389  1.9241  2.2579  0.6386
  734ANI     HN10276   2.256   5.233   0.246 -0.3148  0.2010  0.0652
  735ANI     CN10277   2.538   4.857   4.017 -0.1387  0.7640  0.0290
  735ANI     CH10278   2.524   4.993   4.048 -0.0784  0.6527  0.5521
  735ANI     CH10279   2.393   5.040   4.038 -0.1918  0.2657  0.1821
  735ANI     CH10280   2.288   4.963   3.988  0.2186  0.0325 -0.3171
  735ANI     CH10281   2.305   4.825   3.967  0.0261 -0.0411 -0.0054
  735ANI     CH10282   2.433   4.771   3.986  0.1767  0.3490  0.1077
  735ANI     NH10283   2.661   4.805   4.028 -0.3005  0.4816  0.5324
  735ANI     HC10284   2.615   5.051   4.062 -0.4990  1.7082 -0.9942
  735ANI     HC10285   2.384   5.143   4.071  1.0321  0.2968  0.4272
  735ANI     HC10286   2.193   5.011   3.972 -0.3907 -0.6150  1.2158
  735ANI     HC10287   2.232   4.752   3.936 -1.4023  1.9570 -1.4966
  735ANI     HC10288   2.446   4.664   3.979  0.9282  0.4769 -0.4312
  735ANI     HN10289   2.738   4.860   4.064 -0.2863  0.5424  0.4090
  735ANI     HN10290   2.657   4.716   4.074  0.5278  0.1409 -0.0227
  736ANI     CN10291   5.955   0.157   0.429  0.2989 -0.3505  0.6183
  736ANI     CH10292   5.858   0.064   0.390  0.5988 -0.3104 -0.2295
  736ANI     CH10293   5.742   0.113   0.330  0.5938 -0.1303 -0.0741
  736ANI     CH10294   5.723   0.251   0.309  0.3192 -0.0867  0.4614
  736ANI     CH10295   5.816   0.340   0.364  0.4149  0.2333 -0.2175
  736ANI     CH10296   5.937   0.296   0.418  0.3530 -0.4388 -0.6213
  736ANI     NH10297   6.068   0.107   0.480  0.5471 -0.8218 -0.3845
  736ANI     HC10298   5.854  -0.043   0.406  1.3386 -0.3233 -0.1319
  736ANI     HC10299   5.669   0.040   0.297 -0.8377  1.0493  0.3989
  736ANI     HC10300   5.626   0.277   0.270  0.0687  0.6586  1.5682
  736ANI     HC10301   5.799   0.446   0.373 -3.3246 -0.3653  1.0665
  736ANI     HC10302   6.017   0.365   0.439  0.2467  0.3604 -2.6918
  736ANI     HN10303   6.140   0.160   0.527 -1.2015 -0.7419  2.3331
  736ANI     HN10304   6.102   0.012   0.477 -0.4852 -1.2244  0.4649
  737ANI     CN10305   5.045   1.189   3.236  0.5112 -0.1770  0.0736
  737ANI     CH10306   5.078   1.225   3.105  0.3958  0.0703  0.1144
  737ANI     CH10307   5.096   1.129   3.004  0.6939 -0.3372  0.5573
  737ANI     CH10308   5.089   0.993   3.037 -0.1317 -0.4045  0.1058
  737ANI     CH10309   5.053   0.958   3.168 -0.0966  0.0157  0.2284
  737ANI     CH10310   5.035   1.053   3.269  0.5393 -0.0894  0.4393
  737ANI     NH10311   5.039   1.280   3.334  0.7786 -0.4406  0.3351
  737ANI     HC10312   5.091   1.328   3.073  0.8609 -0.4161 -1.3020
  737ANI     HC10313   5.117   1.161   2.903  3.9199 -1.8942  0.6728
  737ANI     HC10314   5.114   0.918   2.963 -0.4535 -2.1195  1.7144
  737ANI     HC10315   5.043   0.856   3.201 -2.2781 -0.0608 -0.5476
  737ANI     HC10316   5.017   1.019   3.370  0.0708 -3.2956 -0.6880
  737ANI     HN10317   5.132   1.318   3.346  1.9094 -2.4418 -1.5331
  737ANI     HN10318   5.019   1.225   3.417  1.1260  0.8866  1.3092
  738ANI     CN10319   3.434   6.110   4.666  0.1771  0.0457 -0.6413
  738ANI     CH10320   3.390   6.200   4.764  0.0465  0.2726 -0.9072
  738ANI     CH10321   3.286   6.289   4.736 -0.6337 -0.1514  0.2415
  738ANI     CH10322   3.230   6.296   4.608 -0.0617  0.0232  0.0021
  738ANI     CH10323   3.270   6.200   4.513 -0.4193 -0.1699  0.0448
  738ANI     CH10324   3.368   6.105   4.543  0.1172  0.1662 -0.6142
  738ANI     NH10325   3.523   6.014   4.696  0.0950 -0.0648 -0.7531
  738ANI     HC10326   3.450   6.211   4.853  2.7148  0.4255 -2.6736
  738ANI     HC10327   3.264   6.364   4.810  0.1028  0.9505 -0.6411
  738ANI     HC10328   3.157   6.373   4.594 -0.7545 -0.3166  1.6620
  738ANI     HC10329   3.222   6.196   4.416 -0.5059 -1.0650  0.1217
  738ANI     HC10330   3.386   6.025   4.473  0.9345  0.2301 -0.4742
  738ANI     HN10331   3.469   5.931   4.717 -0.0123 -0.0255 -0.8697
  738ANI     HN10332   3.570   6.032   4.783  1.1387 -1.5483 -0.9897
  739ANI     CN10333   5.583   0.305   1.654  0.0973  0.4345 -0.8382
  739ANI     CH10334   5.722   0.312   1.671 -0.0054  0.1789  0.1310
  739ANI     CH10335   5.811   0.268   1.573 -0.4493  0.1470 -0.2611
  739ANI     CH10336   5.755   0.208   1.460 -0.4246 -0.7121  0.1798
  739ANI     CH10337   5.618   0.191   1.437 -0.3781 -0.5348 -0.2270
  739ANI     CH10338   5.536   0.244   1.537 -0.3078  0.0317 -0.4686
  739ANI     NH10339   5.495   0.349   1.745  0.2840  0.4617 -0.6694
  739ANI     HC10340   5.757   0.360   1.761 -2.1354  0.4649  0.8317
  739ANI     HC10341   5.916   0.293   1.578 -0.1623 -0.7454 -1.4826
  739ANI     HC10342   5.820   0.169   1.384  1.3788 -0.4583  1.5652
  739ANI     HC10343   5.569   0.163   1.344 -1.1041 -0.5543  0.1610
  739ANI     HC10344   5.429   0.234   1.526 -0.2515 -1.0468 -0.1211
  739ANI     HN10345   5.545   0.399   1.817 -0.3340 -2.5233  1.9909
  739ANI     HN10346   5.443   0.420   1.695 -0.2207  0.0678 -0.7060
  740ANI     CN10347   1.867   5.216   5.479  0.2576  0.1875  0.2277
  740ANI     CH10348   1.770   5.317   5.480 -0.1033 -0.1542  0.1455
  740ANI     CH10349   1.674   5.313   5.378 -0.0642 -0.0686  0.1057
  740ANI     CH10350   1.675   5.215   5.279 -0.1007 -0.3273  0.3600
  740ANI     CH10351   1.772   5.114   5.281 -0.1766 -0.4021  0.2323
  740ANI     CH10352   1.869   5.115   5.381 -0.0469  0.3047  0.0988
  740ANI     NH10353   1.945   5.203   5.587  0.1328 -0.4752  0.2442
  740ANI     HC10354   1.768   5.385   5.564 -0.3239 -0.3032  0.2604
  740ANI     HC10355   1.588   5.375   5.400  0.3662 -0.3707  2.8443
  740ANI     HC10356   1.590   5.199   5.214  1.3463 -0.5384 -1.5241
  740ANI     HC10357   1.769   5.038   5.204 -0.2152 -2.5793  2.3287
  740ANI     HC10358   1.933   5.028   5.388  0.7672  0.9189  0.4830
  740ANI     HN10359   1.958   5.109   5.620 -0.1447  0.1639  2.2572
  740ANI     HN10360   1.923   5.276   5.654  0.7200 -0.1348  0.0747
  741ANI     CN10361   0.151   3.417   2.599  0.1908  0.3627  0.0731
  741ANI     CH10362   0.267   3.389   2.525  0.1020  0.0513  0.0522
  741ANI     CH10363   0.313   3.479   2.429 -0.0515  0.5497  0.4431
  741ANI     CH10364   0.236   3.591   2.396  0.2523  0.6420  0.0392
  741ANI     CH10365   0.106   3.606   2.446  0.2982  0.5857  0.1723
  741ANI     CH10366   0.069   3.520   2.551  0.2328  0.3366 -0.0548
  741ANI     NH10367   0.112   3.339   2.700  0.2796  0.0862 -0.1063
  741ANI     HC10368   0.334   3.311   2.556  2.0188  1.0335 -1.5449
  741ANI     HC10369   0.406   3.470   2.374  0.5173  1.7382  1.1930
  741ANI     HC10370   0.265   3.657   2.316 -0.1657 -1.4370 -1.8874
  741ANI     HC10371   0.043   3.684   2.407  0.6231  0.1980 -1.1327
  741ANI     HC10372  -0.028   3.531   2.596  0.3881 -0.4568  0.4857
  741ANI     HN10373   0.044   3.386   2.759  1.8499  0.5997  1.3577
  741ANI     HN10374   0.083   3.244   2.681 -0.6115  0.1516  0.8487
  742ANI     CN10375   0.443   5.107   4.304  0.2432 -0.0902  0.5374
  742ANI     CH10376   0.494   5.206   4.219 -0.0472 -0.3486  0.0594
  742ANI     CH10377   0.632   5.226   4.231 -0.0328 -0.3821 -0.0506
  742ANI     CH10378   0.713   5.167   4.330  0.1886 -0.0067 -0.0048
  742ANI     CH10379   0.657   5.065   4.408  0.0691  0.0125 -0.0636
  742ANI     CH10380   0.522   5.032   4.393  0.1322 -0.4476  0.3375
  742ANI     NH10381   0.312   5.080   4.304  0.1780  0.2255  0.4167
  742ANI     HC10382   0.435   5.263   4.149  0.0066 -1.1379 -0.6380
  742ANI     HC10383   0.674   5.303   4.168  0.2884 -0.0851  0.5238
  742ANI     HC10384   0.811   5.205   4.351  0.0991  1.5222 -2.1643
  742ANI     HC10385   0.718   5.016   4.484 -0.6266  0.8198  1.0307
  742ANI     HC10386   0.475   4.958   4.455 -1.4014 -1.5599 -2.0811
  742ANI     HN10387   0.256   5.106   4.224 -0.3131  1.7916  1.2556
  742ANI     HN10388   0.296   4.982   4.320 -2.0409  0.2304 -1.5591
  743ANI     CN10389   1.980   5.996   5.141 -0.1407  0.4461 -0.5172
  743ANI     CH10390   1.875   5.917   5.093 -0.0810  0.0337  0.0185
  743ANI     CH10391   1.743   5.962   5.110 -0.1719 -0.1692 -0.1431
  743ANI     CH10392   1.718   6.082   5.178  0.2352 -0.0744 -0.1610
  743ANI     CH10393   1.824   6.161   5.224  0.2354  0.0140 -0.3122
  743ANI     CH10394   1.955   6.122   5.196  0.3950  0.3409 -0.0227
  743ANI     NH10395   2.106   5.959   5.117 -0.0787  0.0838  0.3189
  743ANI     HC10396   1.896   5.826   5.038 -0.5433 -0.7490  1.1119
  743ANI     HC10397   1.661   5.900   5.076 -0.3253  0.7682 -1.5200
  743ANI     HC10398   1.620   6.123   5.195 -0.5175 -0.6307 -2.8627
  743ANI     HC10399   1.796   6.249   5.280 -1.3253 -0.5623 -0.1522
  743ANI     HC10400   2.043   6.179   5.225 -0.5702  0.6752  2.2894
  743ANI     HN10401   2.122   5.870   5.073  0.7428  1.0814 -1.4692
  743ANI     HN10402   2.164   5.962   5.199 -0.1544  0.9716  0.3416
  744ANI     CN10403   0.193   5.536   5.472 -0.2830 -0.1222  0.0470
  744ANI     CH10404   0.128   5.449   5.560  0.2395 -0.6824 -0.1108
  744ANI     CH10405   0.131   5.489   5.694  0.4175 -0.2732 -0.2353
  744ANI     CH10406   0.174   5.617   5.732  0.5247 -0.1978 -0.6108
  744ANI     CH10407   0.222   5.707   5.636  0.1611 -0.0792 -0.6811
  744ANI     CH10408   0.236   5.666   5.503  0.0204 -0.0384 -0.7086
  744ANI     NH10409   0.208   5.501   5.344 -0.6233 -0.5336  0.1186
  744ANI     HC10410   0.088   5.358   5.519 -0.3083  0.1905 -1.5653
  744ANI     HC10411   0.097   5.420   5.770  0.7755 -0.3798 -0.1716
  744ANI     HC10412   0.156   5.642   5.835  0.9820 -2.0063 -0.0608
  744ANI     HC10413   0.241   5.811   5.655  0.2541 -0.0978 -0.6739
  744ANI     HC10414   0.260   5.743   5.432 -2.6557  3.2001  1.7462
  744ANI     HN10415   0.270   5.560   5.290  1.6419 -1.7753  1.2853
  744ANI     HN10416   0.220   5.404   5.317 -0.3573 -0.7135  0.8650
  745ANI     CN10417   1.511   0.028   0.822  0.7309  0.1119 -0.0278
  745ANI     CH10418   1.489   0.160   0.863  0.3211 -0.0183  0.1711
  745ANI     CH10419   1.396   0.199   0.960 -0.0669 -0.1157 -0.1605
  745ANI     CH10420   1.317   0.097   1.014 -0.1868 -0.1714 -0.4381
  745ANI     CH10421   1.335  -0.037   0.976 -0.3051 -0.1960 -0.4082
  745ANI     CH10422   1.438  -0.072   0.887 -0.1880  0.4504 -0.5308
  745ANI     NH10423   1.600   0.005   0.724  0.8065  0.3433 -0.0132
  745ANI     HC10424   1.554   0.235   0.819  0.2174  0.3675  0.6750
  745ANI     HC10425   1.381   0.302   0.990 -0.0054 -0.2981  0.4899
  745ANI     HC10426   1.236   0.119   1.081 -0.1176  2.7039 -1.2257
  745ANI     HC10427   1.280  -0.120   1.016  0.6123 -1.3316 -1.4718
  745ANI     HC10428   1.466  -0.176   0.883 -0.4548  0.2631  1.5353
  745ANI     HN10429   1.567  -0.079   0.680  0.5901 -0.4890  1.6978
  745ANI     HN10430   1.607   0.082   0.660 -3.8239  1.5565  0.7559
  746ANI     CN10431   0.592   0.619   3.158 -0.0824  0.0530  0.0556
  746ANI     CH10432   0.538   0.740   3.203  0.6679  0.5845 -0.4521
  746ANI     CH10433   0.437   0.801   3.126  0.0765 -0.0486 -0.1852
  746ANI     CH10434   0.388   0.743   3.009 -0.3129 -0.1994  0.0500
  746ANI     CH10435   0.449   0.626   2.962  0.7134  0.6464 -0.7454
  746ANI     CH10436   0.556   0.569   3.032  0.4376  0.6399 -0.3327
  746ANI     NH10437   0.664   0.537   3.236 -0.0009 -0.3526 -0.4444
  746ANI     HC10438   0.573   0.788   3.293  0.5089  0.3450 -0.2631
  746ANI     HC10439   0.393   0.894   3.159  1.4081 -0.2024  2.1236
  746ANI     HC10440   0.312   0.794   2.952  0.9753  0.2535 -1.2994
  746ANI     HC10441   0.414   0.578   2.872 -0.4748  0.4989 -0.2021
  746ANI     HC10442   0.593   0.476   2.991  2.4576 -0.0799  2.9184
  746ANI     HN10443   0.686   0.562   3.331 -0.0010  0.1429 -0.5703
  746ANI     HN10444   0.750   0.502   3.197  0.4161 -0.0903  0.2324
  747ANI     CN10445   0.385   0.482   1.534  0.2519 -0.2159 -0.0673
  747ANI     CH10446   0.357   0.619   1.544  0.0935 -0.2580  0.0711
  747ANI     CH10447   0.268   0.676   1.452  0.1836 -0.0053  0.1403
  747ANI     CH10448   0.222   0.599   1.344  0.0560 -0.1804  0.3190
  747ANI     CH10449   0.244   0.461   1.340 -0.0533 -0.1738 -0.4024
  747ANI     CH10450   0.326   0.401   1.436 -0.1909  0.1354 -0.0913
  747ANI     NH10451   0.468   0.430   1.626  0.2071  0.3449  0.2851
  747ANI     HC10452   0.394   0.678   1.626  0.1027  0.5700 -0.5233
  747ANI     HC10453   0.238   0.779   1.460 -0.6633 -0.3075  0.9153
  747ANI     HC10454   0.163   0.647   1.268  2.7881  3.0833  0.1218
  747ANI     HC10455   0.209   0.402   1.256 -0.9269 -0.4513  0.1450
  747ANI     HC10456   0.337   0.294   1.436 -0.6881  0.0802 -0.4839
  747ANI     HN10457   0.504   0.499   1.691  0.9403 -0.1526  0.4129
  747ANI     HN10458   0.401   0.377   1.681 -0.2910 -0.4749 -1.0951
  748ANI     CN10459   3.839   0.638   3.702 -0.3303 -0.3556 -0.2854
  748ANI     CH10460   3.749   0.642   3.810 -0.3877  0.4483 -0.3604
  748ANI     CH10461   3.685   0.762   3.844  0.2744  0.6054  0.3507
  748ANI     CH10462   3.718   0.880   3.776  0.5565  0.3688  0.0701
  748ANI     CH10463   3.813   0.874   3.674 -0.0433  0.7787 -0.5160
  748ANI     CH10464   3.866   0.753   3.627 -0.6650  0.1574  0.3762
  748ANI     NH10465   3.901   0.525   3.666  0.0217 -0.3958  0.4461
  748ANI     HC10466   3.717   0.553   3.862 -0.8475  1.4082  1.0204
  748ANI     HC10467   3.623   0.767   3.931  1.6711 -1.6505  1.5313
  748ANI     HC10468   3.685   0.979   3.806  0.0503  0.2672 -0.1441
  748ANI     HC10469   3.855   0.963   3.630  2.4216 -1.3366 -2.6133
  748ANI     HC10470   3.945   0.765   3.555  2.3034  2.4622  3.8312
  748ANI     HN10471   3.922   0.477   3.753 -1.0566  0.9801  1.4872
  748ANI     HN10472   3.997   0.538   3.636  0.2224 -2.0972  0.2904
  749ANI     CN10473   2.584   6.232   0.133  0.4709  0.2180  0.0454
  749ANI     CH10474   2.604   6.097   0.102 -0.4741  0.1223 -0.1665
  749ANI     CH10475   2.584   6.054  -0.030  0.4245  0.2424 -0.3460
  749ANI     CH10476   2.555   6.148  -0.130 -0.0269 -0.0104 -0.4540
  749ANI     CH10477   2.546   6.285  -0.103  0.3759 -0.0930  0.1318
  749ANI     CH10478   2.558   6.324   0.031  0.0437  0.1506  0.0917
  749ANI     NH10479   2.600   6.264   0.262 -0.3885 -0.2784  0.2846
  749ANI     HC10480   2.618   6.028   0.183 -1.3472  0.6284  0.4223
  749ANI     HC10481   2.587   5.948  -0.048 -4.0448 -0.0620  0.0504
  749ANI     HC10482   2.546   6.122  -0.234  0.1158 -0.6857 -0.3006
  749ANI     HC10483   2.532   6.357  -0.182  0.0188 -0.2369  0.0622
  749ANI     HC10484   2.560   6.431   0.034  0.6284  0.1594 -0.5197
  749ANI     HN10485   2.569   6.192   0.326 -2.0567  0.8198  0.7457
  749ANI     HN10486   2.559   6.351   0.294 -1.1041  0.0003 -1.3444
  750ANI     CN10487   4.546   2.369   5.749 -0.4428  0.2823 -0.4708
  750ANI     CH10488   4.502   2.259   5.823  0.3995  0.2427 -0.0268
  750ANI     CH10489   4.539   2.130   5.780 -0.2191  0.3098 -0.7909
  750ANI     CH10490   4.622   2.114   5.669  0.2504 -0.8385 -0.2816
  750ANI     CH10491   4.670   2.225   5.598 -1.0909 -0.1758 -0.1595
  750ANI     CH10492   4.631   2.353   5.639 -0.5063  0.1085 -0.4949
  750ANI     NH10493   4.513   2.494   5.784  0.8145  0.3652  0.4268
  750ANI     HC10494   4.430   2.270   5.902  1.4873  0.0537  0.9996
  750ANI     HC10495   4.496   2.038   5.816 -2.0812  0.6713 -2.0644
  750ANI     HC10496   4.629   2.010   5.639 -0.8723 -0.5174 -1.7384
  750ANI     HC10497   4.716   2.207   5.502 -1.6354  1.7520 -0.7998
  750ANI     HC10498   4.652   2.442   5.581 -0.1565  1.0606  1.0695
  750ANI     HN10499   4.553   2.571   5.732  2.0751  0.9840  2.3009
  750ANI     HN10500   4.484   2.514   5.878 -0.0615  0.5972  0.1148
  751ANI     CN10501   0.572   5.504   0.343 -0.0063 -0.2326 -0.2310
  751ANI     CH10502   0.666   5.558   0.254  0.3239  0.4337  0.5190
  751ANI     CH10503   0.633   5.678   0.191 -0.1723  0.0494  0.0439
  751ANI     CH10504   0.519   5.754   0.222  0.1554  0.6774 -0.2680
  751ANI     CH10505   0.430   5.702   0.318 -0.1453 -0.2083 -1.0157
  751ANI     CH10506   0.458   5.578   0.375  0.2515  0.2005 -0.3049
  751ANI     NH10507   0.595   5.380   0.388  0.3614 -0.0048  0.2167
  751ANI     HC10508   0.761   5.514   0.229  0.4587  1.4508 -0.8292
  751ANI     HC10509   0.715   5.723   0.137 -2.7373  3.9864 -0.8417
  751ANI     HC10510   0.504   5.847   0.170  0.6253  1.3496  0.7653
  751ANI     HC10511   0.342   5.760   0.339  0.2574 -0.1317  0.4864
  751ANI     HC10512   0.373   5.540   0.431  0.4565 -3.7724 -2.4917
  751ANI     HN10513   0.618   5.314   0.315  2.5044  0.2238  0.6550
  751ANI     HN10514   0.525   5.341   0.450  2.7161 -3.3686  0.9175
  752ANI     CN10515   3.550   1.896   1.323  0.4851  0.1615  0.0549
  752ANI     CH10516   3.452   1.939   1.414  0.1889 -0.2040 -0.0893
  752ANI     CH10517   3.399   2.066   1.392  0.0688 -0.2504 -0.0644
  752ANI     CH10518   3.440   2.155   1.292  0.0984 -0.3545 -0.1442
  752ANI     CH10519   3.540   2.108   1.206 -0.4949 -0.2505 -0.8961
  752ANI     CH10520   3.594   1.979   1.219 -0.1285 -0.0449 -0.3720
  752ANI     NH10521   3.615   1.780   1.338  0.0149 -0.0900  0.1507
  752ANI     HC10522   3.414   1.887   1.500 -3.2559  1.5595 -0.4735
  752ANI     HC10523   3.328   2.108   1.463 -2.0960 -0.6021 -1.9602
  752ANI     HC10524   3.404   2.256   1.280 -0.5417 -0.5868 -0.2144
  752ANI     HC10525   3.568   2.168   1.121  0.0799 -2.8556 -2.6105
  752ANI     HC10526   3.667   1.951   1.146 -1.8887  0.5196 -2.4075
  752ANI     HN10527   3.709   1.764   1.305 -0.4347 -0.0900 -1.1336
  752ANI     HN10528   3.598   1.725   1.422 -1.0728 -0.7405 -0.4889
  753ANI     CN10529   1.963   5.411   4.231  0.0767  0.3457 -0.2251
  753ANI     CH10530   2.053   5.309   4.263  0.9141  1.2150  0.2276
  753ANI     CH10531   2.134   5.252   4.165 -0.8832 -0.4211 -0.3483
  753ANI     CH10532   2.133   5.303   4.034  0.3569  0.6257  0.0330
  753ANI     CH10533   2.045   5.407   4.002 -0.3480 -0.1668 -0.5968
  753ANI     CH10534   1.961   5.461   4.100  0.0629  0.0172 -0.3485
  753ANI     NH10535   1.871   5.459   4.317 -0.0752 -0.1533 -0.1100
  753ANI     HC10536   2.054   5.267   4.363 -0.2849 -0.3207 -0.3830
  753ANI     HC10537   2.201   5.173   4.197  0.2362  0.6630  0.0419
  753ANI     HC10538   2.194   5.266   3.953 -0.1014  0.1678 -0.1014
  753ANI     HC10539   2.036   5.429   3.896  1.7263 -0.8699 -0.9314
  753ANI     HC10540   1.891   5.536   4.069 -0.2128  0.0646  0.3672
  753ANI     HN10541   1.826   5.382   4.365  1.9553 -1.2489  0.1403
  753ANI     HN10542   1.807   5.523   4.273  1.7240  0.8158 -1.4044
  754ANI     CN10543   0.861   0.752   1.447  0.1208 -0.2653 -0.0801
  754ANI     CH10544   0.963   0.715   1.358  0.0841 -0.5194 -0.0163
  754ANI     CH10545   0.962   0.592   1.292 -0.0589 -0.4217 -0.1947
  754ANI     CH10546   0.854   0.507   1.314 -0.7624  0.3713 -0.5731
  754ANI     CH10547   0.749   0.543   1.400 -0.1807  0.0369  0.2816
  754ANI     CH10548   0.749   0.669   1.459 -0.1895  0.1652  0.0089
  754ANI     NH10549   0.870   0.865   1.518  0.7188 -0.5226  0.2552
  754ANI     HC10550   1.046   0.781   1.335 -1.3494  0.4572 -2.6184
  754ANI     HC10551   1.034   0.567   1.215 -0.8892 -1.2035 -0.7287
  754ANI     HC10552   0.843   0.422   1.248  1.4630 -0.7446  0.4530
  754ANI     HC10553   0.660   0.481   1.403  0.4914 -1.1673 -2.5204
  754ANI     HC10554   0.667   0.701   1.522  0.2593 -0.2480  0.8150
  754ANI     HN10555   0.873   0.946   1.458 -0.4432 -0.3110  0.4650
  754ANI     HN10556   0.778   0.869   1.559  0.1672 -2.2567 -0.7998
  755ANI     CN10557   2.968   1.038   6.220  0.3820 -0.2520 -0.1141
  755ANI     CH10558   2.986   1.168   6.269 -0.1445 -0.2012 -0.0522
  755ANI     CH10559   2.994   1.279   6.185 -0.5086  0.2187  0.4650
  755ANI     CH10560   2.966   1.262   6.049  0.1341 -0.0942  0.3693
  755ANI     CH10561   2.934   1.134   6.002  0.3257 -0.1069  0.2714
  755ANI     CH10562   2.945   1.020   6.083 -0.2808 -0.3577  0.0066
  755ANI     NH10563   2.934   0.937   6.301  0.3884 -0.3121 -0.1864
  755ANI     HC10564   2.987   1.184   6.376 -2.6230  2.6590 -0.3949
  755ANI     HC10565   3.016   1.378   6.221 -0.4160  0.9216 -1.4665
  755ANI     HC10566   2.964   1.347   5.982 -0.8064  0.5208  1.1648
  755ANI     HC10567   2.904   1.119   5.900  0.4382  0.2002  0.1914
  755ANI     HC10568   2.925   0.921   6.045 -0.6979 -0.2047 -0.1685
  755ANI     HN10569   2.940   0.842   6.265  0.3429 -1.2035  2.0526
  755ANI     HN10570   2.978   0.934   6.392  3.3578 -2.1366 -1.6068
  756ANI     CN10571   2.530   5.191   2.687  0.6343 -0.2148 -0.4397
  756ANI     CH10572   2.508   5.063   2.739 -0.1546  0.1068  0.0259
  756ANI     CH10573   2.460   5.049   2.870 -0.0102  0.1639  0.0859
  756ANI     CH10574   2.441   5.157   2.956 -0.1246  0.4158 -0.2552
  756ANI     CH10575   2.460   5.285   2.901  0.5604  0.3037 -0.2932
  756ANI     CH10576   2.508   5.301   2.770  0.7323 -0.2947 -0.3086
  756ANI     NH10577   2.579   5.214   2.564  0.3327 -0.0216 -0.5244
  756ANI     HC10578   2.540   4.976   2.684  0.1522  2.1511 -3.1702
  756ANI     HC10579   2.440   4.949   2.906 -0.4888 -0.5795 -2.1408
  756ANI     HC10580   2.407   5.153   3.058  0.7771 -1.5518 -0.0043
  756ANI     HC10581   2.449   5.367   2.969  0.8869 -1.7859  2.3382
  756ANI     HC10582   2.524   5.402   2.735  2.4359 -0.1255  0.9437
  756ANI     HN10583   2.595   5.136   2.501  0.5145 -1.3318  1.1029
  756ANI     HN10584   2.664   5.263   2.587 -0.1212  0.4058  0.2658
  757ANI     CN10585   1.727   6.011   4.385  0.3230  0.2590  0.0498
  757ANI     CH10586   1.782   6.130   4.338  0.0869  0.4754  0.3197
  757ANI     CH10587   1.906   6.126   4.272  0.0876 -0.2151  0.3555
  757ANI     CH10588   1.964   6.002   4.244  0.4126  0.0085  0.0262
  757ANI     CH10589   1.906   5.882   4.288  0.3281  0.1004  0.1669
  757ANI     CH10590   1.783   5.886   4.355 -0.1987  0.2322 -0.8071
  757ANI     NH10591   1.604   6.022   4.439 -0.0591  0.6893 -0.9095
  757ANI     HC10592   1.738   6.227   4.356 -2.5354 -0.1219 -2.5771
  757ANI     HC10593   1.947   6.218   4.233  0.6901 -1.0917 -1.1179
  757ANI     HC10594   2.054   5.994   4.184  1.3643  0.6793  1.3318
  757ANI     HC10595   1.955   5.788   4.269 -0.0074  0.2060 -1.2562
  757ANI     HC10596   1.746   5.792   4.392 -1.5217  1.3741  0.8334
  757ANI     HN10597   1.598   5.946   4.505  1.7885  1.9254  0.7656
  757ANI     HN10598   1.576   6.107   4.486 -0.5592 -1.1213  2.1699
  758ANI     CN10599   6.102   4.130   5.128  0.2188 -0.0593 -0.4221
  758ANI     CH10600   6.150   4.103   5.257 -0.3206 -0.0955 -0.2266
  758ANI     CH10601   6.176   3.972   5.298 -0.3892 -0.2177 -0.5690
  758ANI     CH10602   6.145   3.866   5.212  0.1456 -0.1731 -0.8215
  758ANI     CH10603   6.086   3.889   5.087  0.2178 -0.2643 -0.8732
  758ANI     CH10604   6.065   4.021   5.047 -0.3614 -0.1133 -0.0900
  758ANI     NH10605   6.084   4.256   5.087 -0.6813  0.1306  0.5193
  758ANI     HC10606   6.173   4.181   5.327  1.2001 -0.0476 -0.7478
  758ANI     HC10607   6.202   3.954   5.401 -0.1041 -1.1978 -0.8089
  758ANI     HC10608   6.165   3.770   5.258 -0.3805  0.3672  0.5588
  758ANI     HC10609   6.064   3.814   5.013 -1.8258 -0.1166 -0.4322
  758ANI     HC10610   6.016   4.041   4.953  0.2971  0.4671 -0.3145
  758ANI     HN10611   6.067   4.323   5.160 -1.3208  1.7808 -1.0968
  758ANI     HN10612   5.999   4.261   5.033  0.6928  3.0051 -1.4787
  759ANI     CN10613   4.094   0.055   1.271  0.0952  0.4096 -0.1436
  759ANI     CH10614   3.977   0.033   1.345  0.2446  0.2330  0.0432
  759ANI     CH10615   3.954   0.108   1.460 -0.1850  0.3919 -0.1457
  759ANI     CH10616   4.052   0.198   1.504 -0.2746  0.8710 -0.9137
  759ANI     CH10617   4.170   0.220   1.432  0.0907  0.1510 -0.5416
  759ANI     CH10618   4.188   0.151   1.312  0.2427  0.5143 -0.7301
  759ANI     NH10619   4.108  -0.011   1.155 -0.1689  0.0970  0.0016
  759ANI     HC10620   3.914  -0.050   1.316  3.8044 -3.4950  2.2918
  759ANI     HC10621   3.864   0.084   1.514  0.9820  1.3682  2.3548
  759ANI     HC10622   4.050   0.257   1.595 -0.2657  0.8205 -0.8808
  759ANI     HC10623   4.248   0.291   1.456  0.5707 -0.2705 -0.8471
  759ANI     HC10624   4.269   0.178   1.245  1.4545  2.0720  1.3179
  759ANI     HN10625   4.019  -0.041   1.118  0.4956 -0.9732 -0.7319
  759ANI     HN10626   4.167   0.021   1.080 -1.5252  0.8079 -0.7899
  760ANI     CN10627   3.800   6.202   4.973  0.0604  0.0147  0.0348
  760ANI     CH10628   3.776   6.070   4.931 -0.0063  0.0073  0.0923
  760ANI     CH10629   3.702   5.981   5.009  0.0302  0.2936  0.4547
  760ANI     CH10630   3.634   6.034   5.120  0.1517  0.5280  0.4170
  760ANI     CH10631   3.661   6.162   5.169  0.2781  0.5470  0.3002
  760ANI     CH10632   3.753   6.242   5.099  0.3608  0.2520  0.0728
  760ANI     NH10633   3.864   6.285   4.890  0.0485  0.2412  0.2526
  760ANI     HC10634   3.816   6.026   4.841 -0.2455  1.2186 -0.6119
  760ANI     HC10635   3.685   5.878   4.982  1.1228  0.2736 -0.1579
  760ANI     HC10636   3.565   5.967   5.169  1.4544  0.1674  1.8025
  760ANI     HC10637   3.609   6.190   5.259  2.1965 -1.3972  2.0591
  760ANI     HC10638   3.768   6.340   5.142 -0.4287  0.5149 -0.2340
  760ANI     HN10639   3.925   6.342   4.947 -0.9838  2.5983 -0.9498
  760ANI     HN10640   3.926   6.229   4.833 -0.1927 -0.0345  0.2578
  761ANI     CN10641   3.913   2.263   0.206 -0.0772 -0.4627  0.0388
  761ANI     CH10642   4.032   2.190   0.219  0.3333  0.1861 -0.0775
  761ANI     CH10643   4.044   2.080   0.304 -0.0877  0.1438 -0.0718
  761ANI     CH10644   3.930   2.034   0.373  0.0253  0.1049  0.0908
  761ANI     CH10645   3.809   2.103   0.361  0.0119  0.0455 -0.1277
  761ANI     CH10646   3.804   2.217   0.281 -0.4050  0.0105 -0.1484
  761ANI     NH10647   3.904   2.379   0.140  0.1517 -0.3921  0.1334
  761ANI     HC10648   4.118   2.223   0.164  2.1022 -1.5288  1.6032
  761ANI     HC10649   4.141   2.036   0.320 -0.2554 -0.0383  0.4572
  761ANI     HC10650   3.933   1.954   0.446 -1.3866 -0.0336 -0.0000
  761ANI     HC10651   3.722   2.062   0.411  0.4519 -1.0299 -0.2201
  761ANI     HC10652   3.709   2.269   0.269  0.4767  1.3193 -1.6998
  761ANI     HN10653   3.815   2.398   0.097 -0.4934 -1.3552  1.0159
  761ANI     HN10654   3.972   2.375   0.065 -0.1464 -1.8537 -0.0728
  762ANI     CN10655   5.421   0.605   1.195  1.1598 -0.9033 -0.5601
  762ANI     CH10656   5.447   0.560   1.325  0.0366  0.3807  0.1236
  762ANI     CH10657   5.538   0.633   1.402  0.2450 -0.0331  0.2727
  762ANI     CH10658   5.603   0.748   1.355 -0.2174 -0.1503 -0.6625
  762ANI     CH10659   5.575   0.791   1.224  0.3058  0.3215 -0.6233
  762ANI     CH10660   5.488   0.717   1.144 -0.2682  0.2468  0.0576
  762ANI     NH10661   5.322   0.552   1.121  0.7600  0.1525 -0.7915
  762ANI     HC10662   5.390   0.479   1.367  0.0535 -0.1858 -0.9159
  762ANI     HC10663   5.556   0.586   1.498 -1.9854 -1.3006  0.1168
  762ANI     HC10664   5.670   0.802   1.420  0.3467 -1.4164 -0.1712
  762ANI     HC10665   5.610   0.884   1.184 -2.8890  2.4855  1.3237
  762ANI     HC10666   5.448   0.747   1.048 -0.3068  1.8378  0.5541
  762ANI     HN10667   5.270   0.629   1.083 -0.2620 -0.0200  0.2225
  762ANI     HN10668   5.258   0.485   1.162  1.1292 -0.4825 -1.2608
  763ANI     CN10669   0.847   0.526   5.778 -0.7961  0.6092 -0.1776
  763ANI     CH10670   0.944   0.628   5.784 -0.2864  0.1032  0.2272
  763ANI     CH10671   0.973   0.679   5.912  0.3173  0.4258 -0.0385
  763ANI     CH10672   0.913   0.627   6.027  0.4342 -0.1148 -0.2196
  763ANI     CH10673   0.813   0.529   6.017  0.0375  0.3259 -0.5321
  763ANI     CH10674   0.786   0.473   5.892  0.0201 -0.3978 -0.2029
  763ANI     NH10675   0.824   0.472   5.658  0.3563 -0.0664 -0.1025
  763ANI     HC10676   0.990   0.661   5.693 -2.0658  0.7047 -0.4775
  763ANI     HC10677   1.053   0.751   5.913  1.2133 -0.5416 -0.3227
  763ANI     HC10678   0.940   0.664   6.125 -3.5600 -0.0515  0.9198
  763ANI     HC10679   0.767   0.482   6.102 -0.1812 -0.8963 -1.3090
  763ANI     HC10680   0.718   0.389   5.882 -0.4859  0.1540 -1.5047
  763ANI     HN10681   0.811   0.372   5.670 -1.3713  0.1886  0.2329
  763ANI     HN10682   0.893   0.494   5.587  0.6265  1.1712  0.5382
  764ANI     CN10683   3.983   2.360   3.938 -0.2190 -0.4933 -0.4518
  764ANI     CH10684   3.998   2.285   4.055  0.4593 -0.4849 -0.5273
  764ANI     CH10685   4.116   2.216   4.085  0.6630  0.2510  0.3920
  764ANI     CH10686   4.226   2.230   4.000  0.2797  0.1612 -0.1263
  764ANI     CH10687   4.213   2.306   3.883  0.7635  0.4171 -0.0161
  764ANI     CH10688   4.095   2.377   3.855  0.6315  0.5622  0.8965
  764ANI     NH10689   3.870   2.429   3.919  0.0269  0.0530  0.0545
  764ANI     HC10690   3.915   2.269   4.122  0.4025  0.4286 -0.3742
  764ANI     HC10691   4.120   2.158   4.176 -0.4967  0.8185  0.8186
  764ANI     HC10692   4.319   2.184   4.028 -0.0824  1.0604  2.7285
  764ANI     HC10693   4.298   2.332   3.821  0.1240  1.1794 -0.5803
  764ANI     HC10694   4.084   2.431   3.763  0.6650 -0.4519  0.2842
  764ANI     HN10695   3.862   2.479   4.007  0.0437 -0.4642  0.3549
  764ANI     HN10696   3.885   2.508   3.858 -0.7116 -0.4093 -0.7332
  765ANI     CN10697   2.509   1.415   4.655 -0.1655 -0.5477 -0.0422
  765ANI     CH10698   2.489   1.280   4.624  0.2090 -0.5207 -0.3946
  765ANI     CH10699   2.473   1.182   4.722 -0.6105 -0.1179 -0.1242
  765ANI     CH10700   2.474   1.222   4.856  0.1457 -0.1975 -0.1060
  765ANI     CH10701   2.479   1.358   4.892  0.1964 -0.2756  0.1868
  765ANI     CH10702   2.503   1.451   4.790 -0.5042 -0.4000 -0.0974
  765ANI     NH10703   2.507   1.512   4.563 -0.6728 -0.3520  0.1710
  765ANI     HC10704   2.480   1.239   4.524 -1.2687 -2.5922  0.5302
  765ANI     HC10705   2.459   1.082   4.682 -2.9106 -0.1951  0.7744
  765ANI     HC10706   2.470   1.147   4.934 -0.0412  0.9336  1.0001
  765ANI     HC10707   2.478   1.383   4.996  0.8703  0.5987 -0.0145
  765ANI     HC10708   2.504   1.557   4.811 -1.2648 -0.7463  1.7604
  765ANI     HN10709   2.441   1.485   4.491 -0.3725  2.9511 -1.4437
  765ANI     HN10710   2.487   1.605   4.595 -0.5015 -0.6840  1.2836
  766ANI     CN10711   2.064   2.711   3.726 -0.1824 -0.1935 -0.1504
  766ANI     CH10712   1.992   2.826   3.692 -0.4058 -0.3075 -0.0702
  766ANI     CH10713   1.915   2.886   3.792  0.2472 -0.0090  0.2620
  766ANI     CH10714   1.898   2.830   3.920 -0.2200  0.0616  0.2342
  766ANI     CH10715   1.981   2.724   3.955 -0.6177 -0.4728 -0.4367
  766ANI     CH10716   2.057   2.660   3.856  0.4706  0.1230  0.0067
  766ANI     NH10717   2.134   2.638   3.638  0.1834 -0.3490  0.2669
  766ANI     HC10718   2.017   2.881   3.603  1.3087 -0.6067  0.2127
  766ANI     HC10719   1.857   2.976   3.776 -0.7909 -0.8544 -0.8058
  766ANI     HC10720   1.840   2.879   3.997 -0.0340 -1.8628  1.6221
  766ANI     HC10721   1.989   2.686   4.056  1.1771  0.8008 -0.0725
  766ANI     HC10722   2.114   2.570   3.874  0.3587 -0.2806 -1.6082
  766ANI     HN10723   2.229   2.660   3.661  0.4567  0.6859 -1.6941
  766ANI     HN10724   2.125   2.537   3.639  1.1235 -0.4318  2.3352
  767ANI     CN10725   4.009   1.082   0.987  0.1350 -0.1883 -0.4533
  767ANI     CH10726   3.902   1.058   0.900  0.1367 -0.0075 -0.5053
  767ANI     CH10727   3.822   1.167   0.863  0.9372  0.6910 -0.1784
  767ANI     CH10728   3.840   1.296   0.915 -0.7201  0.9388 -0.1886
  767ANI     CH10729   3.941   1.314   1.011 -0.4787 -0.0690 -0.2462
  767ANI     CH10730   4.029   1.210   1.040 -0.5204 -0.1306 -0.3369
  767ANI     NH10731   4.090   0.984   1.030 -0.1735 -0.1846  0.1351
  767ANI     HC10732   3.890   0.956   0.868  0.4767 -1.3081  3.3027
  767ANI     HC10733   3.745   1.159   0.788  2.3078  3.0617 -1.9113
  767ANI     HC10734   3.774   1.376   0.885  0.5418  1.7874 -0.7683
  767ANI     HC10735   3.968   1.413   1.045  1.4958 -0.3029 -1.0591
  767ANI     HC10736   4.113   1.227   1.106 -0.9203 -1.8777  0.6723
  767ANI     HN10737   4.056   0.889   1.027 -0.9405  0.1246 -1.2857
  767ANI     HN10738   4.137   0.996   1.119  2.3046 -0.9505 -1.0251
  768ANI     CN10739   2.691   6.012   5.019 -0.1270  0.0460  0.4469
  768ANI     CH10740   2.680   6.149   4.991  0.0264 -0.2030 -0.8652
  768ANI     CH10741   2.558   6.201   4.948  0.1868  0.6573 -0.2972
  768ANI     CH10742   2.449   6.115   4.930  0.2337  0.5519 -0.0787
  768ANI     CH10743   2.464   5.977   4.948  0.3824  0.4389 -0.9958
  768ANI     CH10744   2.583   5.924   5.000 -0.3188  0.2713  0.4852
  768ANI     NH10745   2.804   5.955   5.063  0.1166  0.2147  0.0364
  768ANI     HC10746   2.771   6.207   5.002  0.0219 -0.1915 -0.8871
  768ANI     HC10747   2.544   6.306   4.925 -0.9109  0.9940  1.8170
  768ANI     HC10748   2.359   6.165   4.897  0.3035 -0.2298 -1.4858
  768ANI     HC10749   2.381   5.913   4.922  0.0584  1.6852 -3.0839
  768ANI     HC10750   2.605   5.822   5.025 -1.8287 -0.3084 -0.5291
  768ANI     HN10751   2.883   6.003   5.023 -0.1274  0.3963 -0.2320
  768ANI     HN10752   2.800   5.855   5.046 -0.6857  0.2852 -0.2104
  769ANI     CN10753   5.973   2.335   0.304  0.6013 -0.1833  0.2613
  769ANI     CH10754   5.998   2.353   0.167 -0.3494 -0.3962  0.0596
  769ANI     CH10755   5.918   2.286   0.073 -0.7751  0.8225 -0.4640
  769ANI     CH10756   5.818   2.196   0.112 -0.0305  0.2586  0.1583
  769ANI     CH10757   5.800   2.169   0.249  0.3211 -0.1930  0.1161
  769ANI     CH10758   5.878   2.239   0.341  0.2781  0.0286 -0.0161
  769ANI     NH10759   6.038   2.402   0.400  0.0760  0.4594  0.1666
  769ANI     HC10760   6.082   2.414   0.138 -0.0321 -0.3243  1.0933
  769ANI     HC10761   5.924   2.313  -0.031 -0.8867 -0.0332 -0.6957
  769ANI     HC10762   5.780   2.138   0.030  0.3631  0.6084 -0.2776
  769ANI     HC10763   5.732   2.092   0.282  1.5597 -0.9979  0.8358
  769ANI     HC10764   5.871   2.224   0.448 -2.2198  1.0104 -0.0119
  769ANI     HN10765   6.071   2.496   0.383  1.6639  0.5485  3.3816
  769ANI     HN10766   5.991   2.410   0.489  3.8344 -0.3735  2.3127
  770ANI     CN10767   3.033   1.636   1.248 -0.3069 -0.1324  0.2710
  770ANI     CH10768   3.173   1.625   1.251 -0.3255 -0.4653  0.0256
  770ANI     CH10769   3.253   1.733   1.211 -0.6435 -0.2353  0.0114
  770ANI     CH10770   3.198   1.854   1.165  0.2761  0.2703  0.2229
  770ANI     CH10771   3.058   1.862   1.158  0.3060  0.3802 -0.2488
  770ANI     CH10772   2.978   1.755   1.200  0.6599  0.3905  0.4497
  770ANI     NH10773   2.954   1.534   1.284  0.1443 -0.7959 -0.6083
  770ANI     HC10774   3.220   1.530   1.267 -0.1023 -0.3670 -0.0398
  770ANI     HC10775   3.358   1.713   1.200 -0.8712 -1.0822 -0.6071
  770ANI     HC10776   3.251   1.938   1.123 -1.1720  1.2019  0.2176
  770ANI     HC10777   3.022   1.950   1.108 -0.0619 -0.0034 -0.6664
  770ANI     HC10778   2.870   1.760   1.192  0.7822  1.2196 -0.7598
  770ANI     HN10779   2.858   1.547   1.257  0.5727  1.9812 -0.9140
  770ANI     HN10780   2.960   1.503   1.380  0.9624 -0.6106 -0.5920
  771ANI     CN10781   6.216   0.071   5.194  0.4327 -0.2339 -0.2244
  771ANI     CH10782   6.297  -0.043   5.202 -0.1739 -0.7182 -0.8351
  771ANI     CH10783   6.243  -0.156   5.264  0.0855  0.0375  0.8067
  771ANI     CH10784   6.109  -0.154   5.306 -0.2924 -0.0318 -0.3638
  771ANI     CH10785   6.027  -0.041   5.298  0.0491  0.2299 -0.1766
  771ANI     CH10786   6.082   0.071   5.235  0.3880 -0.0418 -0.3712
  771ANI     NH10787   6.271   0.184   5.149 -0.3891  0.2777  0.0338
  771ANI     HC10788   6.403  -0.033   5.185 -0.3254 -1.4028 -2.2876
  771ANI     HC10789   6.313  -0.236   5.284 -1.3516 -1.2179  0.9376
  771ANI     HC10790   6.067  -0.244   5.348 -0.6132  0.2080 -0.1617
  771ANI     HC10791   5.924  -0.031   5.328  0.2891 -0.9439  1.0855
  771ANI     HC10792   6.030   0.166   5.226 -1.4284 -0.6964  2.4953
  771ANI     HN10793   6.342   0.157   5.082 -1.5721  0.0202 -1.1498
  771ANI     HN10794   6.208   0.252   5.110 -0.2176 -0.2328 -1.1667
  772ANI     CN10795   1.022   2.619   4.341 -0.1178 -0.0331 -0.0537
  772ANI     CH10796   1.057   2.722   4.429  0.4271  0.1167 -0.4423
  772ANI     CH10797   0.954   2.804   4.476  0.3571  0.3134 -0.9405
  772ANI     CH10798   0.821   2.786   4.436  0.2933  0.3623 -0.7502
  772ANI     CH10799   0.791   2.689   4.340  0.3199 -0.3898 -0.0022
  772ANI     CH10800   0.890   2.599   4.299  0.0788 -0.4395 -0.4800
  772ANI     NH10801   1.114   2.533   4.296 -0.6173 -0.5728 -0.0476
  772ANI     HC10802   1.161   2.744   4.450  0.2299 -0.1301  0.8351
  772ANI     HC10803   0.974   2.882   4.548 -1.3865 -0.5781  0.5711
  772ANI     HC10804   0.738   2.852   4.455  0.7855  1.2058 -1.5269
  772ANI     HC10805   0.689   2.675   4.307  0.6220  0.2872 -1.2383
  772ANI     HC10806   0.863   2.516   4.235  0.0123  0.8330 -2.1452
  772ANI     HN10807   1.055   2.451   4.294 -2.9281  1.0062  0.9000
  772ANI     HN10808   1.200   2.527   4.349 -1.6913 -1.2966  1.6715
  773ANI     CN10809   4.436   2.846   1.851 -0.1640 -0.2925  0.1185
  773ANI     CH10810   4.477   2.714   1.874  0.9581 -0.0258 -0.3435
  773ANI     CH10811   4.391   2.614   1.921  0.2011  0.5936 -0.4096
  773ANI     CH10812   4.259   2.653   1.945 -0.0853 -0.1901 -0.6911
  773ANI     CH10813   4.212   2.781   1.911 -0.3850  0.0178  0.4712
  773ANI     CH10814   4.302   2.880   1.870 -0.1748 -0.3256  0.0963
  773ANI     NH10815   4.523   2.939   1.808  0.1350 -0.6520 -0.0557
  773ANI     HC10816   4.582   2.689   1.861  1.1430  0.3109  0.4705
  773ANI     HC10817   4.422   2.513   1.938 -0.7398  0.2409 -0.7599
  773ANI     HC10818   4.196   2.580   1.994  0.6856  0.7453  1.7866
  773ANI     HC10819   4.108   2.810   1.919 -0.3861 -0.0693  0.7956
  773ANI     HC10820   4.257   2.978   1.864 -1.4559 -0.6798  3.1240
  773ANI     HN10821   4.480   2.988   1.731 -1.0903 -1.1651  0.2730
  773ANI     HN10822   4.611   2.901   1.776 -0.1338 -0.0387 -1.5672
  774ANI     CN10823   6.121   2.685   1.383  0.5882 -0.0547  0.0746
  774ANI     CH10824   6.018   2.738   1.304  0.6557 -0.0515 -0.0104
  774ANI     CH10825   6.017   2.725   1.165  0.2530  0.0197 -0.0144
  774ANI     CH10826   6.134   2.678   1.104  0.0645  0.0468 -0.4015
  774ANI     CH10827   6.246   2.646   1.183 -0.5445  0.1536  0.5126
  774ANI     CH10828   6.239   2.639   1.322  0.5054 -0.8770  0.5228
  774ANI     NH10829   6.118   2.685   1.517  0.1447  0.6033  0.0653
  774ANI     HC10830   5.933   2.782   1.355 -0.0246  0.1366 -1.2842
  774ANI     HC10831   5.928   2.750   1.109  0.9161  1.2922 -0.5344
  774ANI     HC10832   6.143   2.691   0.997  0.9347 -1.5331 -0.5376
  774ANI     HC10833   6.338   2.631   1.129 -0.3630  1.6314  0.3872
  774ANI     HC10834   6.322   2.607   1.383  1.4313 -0.2192 -0.3868
  774ANI     HN10835   6.127   2.596   1.564 -1.7358 -0.0029 -0.6939
  774ANI     HN10836   6.036   2.729   1.556  0.9712  1.4224  0.9031
  775ANI     CN10837   3.000   3.915   4.518  0.6784  0.5000  0.2612
  775ANI     CH10838   3.047   3.833   4.415 -0.4438  0.2200 -0.0310
  775ANI     CH10839   3.059   3.883   4.285  0.2345  0.2291  0.0363
  775ANI     CH10840   3.018   4.013   4.253  0.0917  0.0313 -0.5922
  775ANI     CH10841   2.959   4.089   4.355  0.3387 -0.1866 -0.2873
  775ANI     CH10842   2.944   4.039   4.485  0.2329  0.1912 -0.1510
  775ANI     NH10843   2.993   3.862   4.641 -0.1414 -0.4785 -0.1967
  775ANI     HC10844   3.088   3.734   4.426  0.4642  0.4874 -0.9333
  775ANI     HC10845   3.110   3.824   4.210  1.0308  1.4692 -0.4294
  775ANI     HC10846   3.017   4.058   4.155 -0.9566  0.6409 -0.3206
  775ANI     HC10847   2.935   4.192   4.330  0.9537 -0.5983 -2.6263
  775ANI     HC10848   2.887   4.091   4.561 -1.4287 -1.9442  0.1036
  775ANI     HN10849   2.898   3.850   4.674 -0.4983  1.0333 -0.6212
  775ANI     HN10850   3.045   3.776   4.631 -2.3064 -1.8170 -0.1809
  776ANI     CN10851   5.643   2.844   3.775 -0.0959  0.3196  0.5070
  776ANI     CH10852   5.524   2.784   3.817  0.0255 -0.4326 -0.2188
  776ANI     CH10853   5.525   2.656   3.873 -0.2073 -0.2219  0.2745
  776ANI     CH10854   5.648   2.590   3.889 -0.3531 -0.5152  0.1828
  776ANI     CH10855   5.765   2.641   3.833 -0.4603 -0.0906  0.3459
  776ANI     CH10856   5.757   2.763   3.766 -0.4138 -0.1100  0.3056
  776ANI     NH10857   5.647   2.962   3.712 -0.2833  0.3983  0.6411
  776ANI     HC10858   5.427   2.831   3.823 -0.4399 -1.2588 -1.0291
  776ANI     HC10859   5.432   2.618   3.911  0.7469 -2.6337  0.3041
  776ANI     HC10860   5.649   2.498   3.946 -1.4823 -1.3961 -1.1723
  776ANI     HC10861   5.858   2.589   3.854 -0.8441 -1.0562 -0.3429
  776ANI     HC10862   5.842   2.808   3.716 -1.3512  1.6212  0.2233
  776ANI     HN10863   5.744   2.986   3.693 -0.3974  1.4250  1.3566
  776ANI     HN10864   5.600   2.951   3.623  0.2937 -3.1217  0.6913
  777ANI     CN10865   1.442   0.697   1.107  0.3666  0.0709  0.3182
  777ANI     CH10866   1.307   0.735   1.115  0.2482 -0.2135 -0.2762
  777ANI     CH10867   1.287   0.872   1.137  0.1254 -0.1892 -0.5266
  777ANI     CH10868   1.393   0.962   1.154  0.1460 -0.1861 -0.6708
  777ANI     CH10869   1.525   0.917   1.148  0.4572  0.7040 -0.6044
  777ANI     CH10870   1.552   0.782   1.124  0.0604  0.3383  0.9702
  777ANI     NH10871   1.468   0.568   1.082 -0.0691  0.0194  0.1189
  777ANI     HC10872   1.233   0.657   1.115 -1.9208  1.7842  1.2168
  777ANI     HC10873   1.181   0.894   1.139 -0.0688 -0.7789 -3.1819
  777ANI     HC10874   1.371   1.066   1.176 -1.8310 -0.5294 -0.8938
  777ANI     HC10875   1.603   0.987   1.173 -0.9966  2.1184  0.0157
  777ANI     HC10876   1.654   0.747   1.123  0.0017  0.1359 -1.6034
  777ANI     HN10877   1.433   0.504   1.152 -1.8288  0.0325 -0.7149
  777ANI     HN10878   1.568   0.555   1.079 -0.0951  0.0593 -1.0523
  778ANI     CN10879   2.592   4.682   2.909 -0.6207  0.1234  0.2639
  778ANI     CH10880   2.496   4.706   3.008 -0.4722  0.5453  0.3055
  778ANI     CH10881   2.364   4.678   2.972 -0.2078 -0.2896 -0.0456
  778ANI     CH10882   2.327   4.623   2.849  0.0051 -0.6044  0.0302
  778ANI     CH10883   2.430   4.601   2.757  0.0814 -0.0529 -0.0165
  778ANI     CH10884   2.565   4.629   2.782  0.0674 -0.2239  0.2570
  778ANI     NH10885   2.722   4.701   2.938 -0.2069 -0.8395 -0.8784
  778ANI     HC10886   2.529   4.750   3.101 -0.7021  1.4358 -0.0362
  778ANI     HC10887   2.290   4.689   3.051  1.1598 -0.8349  1.3314
  778ANI     HC10888   2.226   4.592   2.824 -0.7396  2.3451 -0.8471
  778ANI     HC10889   2.414   4.558   2.660 -1.2485 -1.0021  0.6068
  778ANI     HC10890   2.641   4.610   2.707 -0.0936  0.4636 -0.0845
  778ANI     HN10891   2.780   4.734   2.863 -0.0668  1.4443  0.1970
  778ANI     HN10892   2.732   4.777   3.004 -1.5324 -0.3876 -1.1800
  779ANI     CN10893   0.734   5.394   1.470  0.1921 -0.1093 -0.5412
  779ANI     CH10894   0.807   5.393   1.350  0.6175 -0.2757 -0.2813
  779ANI     CH10895   0.814   5.511   1.274 -0.3898  0.2192  0.3700
  779ANI     CH10896   0.755   5.630   1.317 -0.2609  0.4485 -0.0877
  779ANI     CH10897   0.690   5.631   1.441  0.2472 -0.2331  0.1921
  779ANI     CH10898   0.676   5.514   1.515  0.1001 -0.3509 -0.0210
  779ANI     NH10899   0.698   5.286   1.539  0.0039  0.3802  0.1347
  779ANI     HC10900   0.842   5.295   1.323  0.6799 -0.7799  1.5511
  779ANI     HC10901   0.860   5.501   1.177  1.4810 -2.0789  1.4482
  779ANI     HC10902   0.762   5.721   1.260  1.7066 -1.4327 -2.9544
  779ANI     HC10903   0.640   5.723   1.469 -1.2161 -1.1880  0.8285
  779ANI     HC10904   0.620   5.521   1.607 -0.5259  2.8197 -0.5903
  779ANI     HN10905   0.786   5.240   1.559 -0.2223  0.3593  1.1374
  779ANI     HN10906   0.655   5.308   1.628 -1.8111  0.8207 -0.8336
  780ANI     CN10907   2.305   1.024   1.073 -0.0627  0.4526  0.2520
  780ANI     CH10908   2.327   1.099   0.956  0.5384 -0.2112 -0.0647
  780ANI     CH10909   2.448   1.168   0.938  0.3773  0.1003  0.0477
  780ANI     CH10910   2.547   1.158   1.036  0.2164 -0.0031  0.2016
  780ANI     CH10911   2.530   1.080   1.151 -0.2037  0.2852  0.3385
  780ANI     CH10912   2.409   1.012   1.166  0.1700 -0.4990 -0.1244
  780ANI     NH10913   2.197   0.952   1.103  0.5056 -0.5867 -0.1844
  780ANI     HC10914   2.246   1.098   0.884  1.2596  1.3951 -0.9263
  780ANI     HC10915   2.456   1.235   0.854 -0.9212 -0.4856 -0.5600
  780ANI     HC10916   2.637   1.214   1.016  0.1433  0.0987  0.1570
  780ANI     HC10917   2.603   1.067   1.230  0.6955 -0.9386 -0.6652
  780ANI     HC10918   2.398   0.946   1.251 -0.8492  0.0702  0.1925
  780ANI     HN10919   2.139   0.947   1.021 -1.9741  3.2778  1.2427
  780ANI     HN10920   2.135   1.000   1.166  0.4419  1.9347 -2.1066
  781ANI     CN10921   3.319   5.314   1.622 -0.0777 -0.1243 -0.0837
  781ANI     CH10922   3.182   5.332   1.644 -0.0478 -0.0580  0.0502
  781ANI     CH10923   3.095   5.317   1.535  0.0780  0.5916 -0.1381
  781ANI     CH10924   3.141   5.285   1.407 -0.4998 -0.6489 -0.0439
  781ANI     CH10925   3.278   5.261   1.388 -0.3463 -0.0390  0.2630
  781ANI     CH10926   3.364   5.269   1.497  0.0087 -0.2738  0.0025
  781ANI     NH10927   3.414   5.318   1.717 -0.3547  0.2537  0.1825
  781ANI     HC10928   3.147   5.349   1.745 -0.3975 -2.1718  0.3094
  781ANI     HC10929   2.990   5.330   1.557 -0.1031  0.6676 -1.0253
  781ANI     HC10930   3.070   5.273   1.327 -0.8152 -0.9548  0.2842
  781ANI     HC10931   3.310   5.236   1.287  1.4030 -0.4635  0.9058
  781ANI     HC10932   3.469   5.246   1.484  0.2379  1.1953 -0.8522
  781ANI     HN10933   3.384   5.377   1.793 -2.3699 -1.4572  0.7644
  781ANI     HN10934   3.496   5.366   1.684 -0.9123 -0.0442 -1.7415
  782ANI     CN10935   1.786   4.765   6.240  0.2096 -0.1504 -0.3087
  782ANI     CH10936   1.718   4.880   6.198  0.2703  0.2305  0.6099
  782ANI     CH10937   1.582   4.898   6.225 -0.0054  0.1092 -0.6492
  782ANI     CH10938   1.517   4.804   6.306  0.5634  0.1612 -0.1339
  782ANI     CH10939   1.588   4.692   6.352  0.4995  0.3777  0.4997
  782ANI     CH10940   1.721   4.668   6.317  0.1742 -0.1822 -0.3788
  782ANI     NH10941   1.913   4.745   6.203  0.2224 -0.8296  0.0875
  782ANI     HC10942   1.769   4.944   6.128  1.7894  0.3463  1.8052
  782ANI     HC10943   1.528   4.984   6.188  0.1768  0.6315  0.2809
  782ANI     HC10944   1.414   4.809   6.336  0.6667  2.4380 -0.0885
  782ANI     HC10945   1.529   4.627   6.415  1.9375 -2.0391 -0.5573
  782ANI     HC10946   1.767   4.578   6.357  0.6387  0.6899  1.0908
  782ANI     HN10947   1.941   4.797   6.121  0.3354  1.4143  1.5009
  782ANI     HN10948   1.973   4.769   6.281 -1.7017 -0.3216  1.4504
  783ANI     CN10949   5.435   0.411   2.423 -0.0289 -0.1580 -0.5209
  783ANI     CH10950   5.344   0.488   2.495 -0.0013 -0.4886 -0.1342
  783ANI     CH10951   5.255   0.418   2.578 -0.4087 -0.1835 -0.3108
  783ANI     CH10952   5.259   0.280   2.602 -0.5291 -0.2148 -0.4724
  783ANI     CH10953   5.357   0.208   2.531  0.3124 -0.0592  0.5149
  783ANI     CH10954   5.447   0.274   2.446  0.2277  0.0337  0.4960
  783ANI     NH10955   5.518   0.479   2.342  0.3853 -0.2195 -0.1446
  783ANI     HC10956   5.346   0.595   2.485  0.4623 -0.3385  1.4301
  783ANI     HC10957   5.180   0.473   2.633 -0.4072 -1.9712  1.5689
  783ANI     HC10958   5.193   0.226   2.667  1.1024  2.3184  3.4599
  783ANI     HC10959   5.353   0.101   2.529  1.6661 -0.1069  0.4625
  783ANI     HC10960   5.511   0.215   2.382  0.8775 -1.8877  2.8204
  783ANI     HN10961   5.515   0.579   2.355 -0.0334 -0.5821  3.2302
  783ANI     HN10962   5.611   0.439   2.334  0.9211  0.3929  2.4923
  784ANI     CN10963   3.348   1.028   0.873 -0.2447 -0.0960  0.3276
  784ANI     CH10964   3.447   1.117   0.828 -0.6673  0.3625  0.2969
  784ANI     CH10965   3.458   1.149   0.692  0.1807 -0.1805  0.2323
  784ANI     CH10966   3.380   1.081   0.598 -0.0157  0.3975 -0.0278
  784ANI     CH10967   3.293   0.979   0.639  0.2077  0.2198  0.0033
  784ANI     CH10968   3.271   0.962   0.777 -0.3737  0.5910 -0.0426
  784ANI     NH10969   3.355   0.999   1.003 -0.3112  0.6397  0.5000
  784ANI     HC10970   3.525   1.157   0.891  0.3711 -2.1647  0.6973
  784ANI     HC10971   3.529   1.220   0.652  1.0836 -0.9349  0.4902
  784ANI     HC10972   3.410   1.092   0.495  1.8000 -0.9835  0.3269
  784ANI     HC10973   3.243   0.919   0.565  0.4681  0.9333 -0.7598
  784ANI     HC10974   3.201   0.898   0.827  0.9890 -0.8141  0.0815
  784ANI     HN10975   3.351   1.086   1.054  0.4935  0.5024  0.8117
  784ANI     HN10976   3.269   0.952   1.028 -0.8760  1.0544 -0.6413
  785ANI     CN10977   2.035   6.163   4.771  0.0969  0.3257 -0.4362
  785ANI     CH10978   1.924   6.166   4.686 -0.2250  0.0837 -0.0234
  785ANI     CH10979   1.869   6.285   4.637 -0.0950  0.1353 -0.0429
  785ANI     CH10980   1.919   6.407   4.683  0.3117 -0.0154 -0.0805
  785ANI     CH10981   2.034   6.404   4.762 -0.3294  0.0031  0.8623
  785ANI     CH10982   2.095   6.285   4.804  0.0218  0.0895  0.5958
  785ANI     NH10983   2.083   6.047   4.818 -0.0746  0.2721 -0.3911
  785ANI     HC10984   1.891   6.068   4.652 -1.0234  0.0558  0.8060
  785ANI     HC10985   1.779   6.289   4.577  1.3397  5.1865 -2.0950
  785ANI     HC10986   1.884   6.506   4.655  1.5019  0.8108  1.2849
  785ANI     HC10987   2.069   6.497   4.804  1.3482 -0.9017  1.5257
  785ANI     HC10988   2.171   6.292   4.881  1.2397  1.4454 -0.6943
  785ANI     HN10989   2.107   6.049   4.916 -2.3253 -2.1073  0.2693
  785ANI     HN10990   2.011   5.976   4.821  1.7548 -1.6046  0.6151
  786ANI     CN10991   2.589   0.358   1.138  0.3463 -0.0655 -0.4733
  786ANI     CH10992   2.537   0.229   1.127 -0.2283  0.0558  0.6888
  786ANI     CH10993   2.417   0.204   1.059  0.2180  0.0315 -0.0964
  786ANI     CH10994   2.352   0.304   0.986  0.1751  0.0747  0.0005
  786ANI     CH10995   2.416   0.427   0.974  0.1794  0.0889  0.1705
  786ANI     CH10996   2.524   0.454   1.059  0.1561  0.3099  0.1324
  786ANI     NH10997   2.714   0.372   1.185  0.2298  0.2128 -0.2439
  786ANI     HC10998   2.586   0.147   1.178 -1.1426 -0.5209  0.6549
  786ANI     HC10999   2.374   0.107   1.080  2.2115 -1.2839 -1.8041
  786ANI     HC11000   2.259   0.279   0.937  0.2263  0.7773 -0.4637
  786ANI     HC11001   2.367   0.496   0.906 -1.0496 -0.5588  0.3911
  786ANI     HC11002   2.564   0.554   1.064 -1.4488  0.9379  0.8782
  786ANI     HN11003   2.774   0.417   1.118 -0.3400 -0.3613 -1.1475
  786ANI     HN11004   2.759   0.284   1.206 -0.6109  0.7470  4.3041
  787ANI     CN11005   3.386   0.859   5.623 -0.0668 -0.8203  0.0903
  787ANI     CH11006   3.260   0.852   5.562 -0.0389 -0.1864 -0.0405
  787ANI     CH11007   3.147   0.881   5.638 -0.0189  0.2120 -0.1577
  787ANI     CH11008   3.157   0.897   5.777  0.1388 -0.1014 -0.1326
  787ANI     CH11009   3.279   0.882   5.844 -0.2410 -0.3466  0.5058
  787ANI     CH11010   3.392   0.872   5.762 -0.5654 -0.9228  0.1246
  787ANI     NH11011   3.496   0.838   5.551  0.2098  0.7337  0.0340
  787ANI     HC11012   3.265   0.849   5.454  0.3785 -3.5172  0.0192
  787ANI     HC11013   3.059   0.910   5.581 -0.2459  3.2522  1.6086
  787ANI     HC11014   3.066   0.929   5.825 -1.4947 -0.6757 -2.7188
  787ANI     HC11015   3.298   0.901   5.949 -0.0939  0.8604  0.2750
  787ANI     HC11016   3.489   0.871   5.811 -0.7052  1.3970  0.5061
  787ANI     HN11017   3.588   0.842   5.595  0.7488  1.1145 -1.1088
  787ANI     HN11018   3.499   0.756   5.492 -0.6022  0.9092 -0.2499
  788ANI     CN11019   3.651   6.089   1.492  0.1847 -0.0980 -0.2091
  788ANI     CH11020   3.546   6.019   1.431 -0.1125 -0.0653  0.2644
  788ANI     CH11021   3.570   5.894   1.374 -0.3604 -0.3280  0.7391
  788ANI     CH11022   3.698   5.837   1.377 -0.0382  0.3211 -0.5812
  788ANI     CH11023   3.804   5.909   1.432  0.1879 -0.3207 -0.1690
  788ANI     CH11024   3.780   6.034   1.491  0.0376 -0.4428  0.0268
  788ANI     NH11025   3.625   6.205   1.555  0.4246 -0.0140 -0.2618
  788ANI     HC11026   3.445   6.056   1.428  0.1475  0.7322  0.9287
  788ANI     HC11027   3.487   5.846   1.324 -0.0245  0.3541 -0.4984
  788ANI     HC11028   3.719   5.744   1.326  1.9371 -0.6099  1.8310
  788ANI     HC11029   3.905   5.873   1.420  0.6434  1.1696 -1.0063
  788ANI     HC11030   3.862   6.090   1.531  0.9903 -2.1360  0.4778
  788ANI     HN11031   3.695   6.219   1.626  0.4559  0.0925 -0.3137
  788ANI     HN11032   3.535   6.203   1.601  0.3270 -2.1372 -0.4682
  789ANI     CN11033   0.883   3.615   2.303  0.0815 -0.5327 -0.0095
  789ANI     CH11034   0.935   3.635   2.432 -0.1732 -0.2230  0.0449
  789ANI     CH11035   1.011   3.533   2.488  0.1568 -0.0061 -0.0046
  789ANI     CH11036   1.028   3.407   2.428 -0.4763 -0.2209  0.2549
  789ANI     CH11037   0.978   3.390   2.298  0.2500  0.1299 -0.0800
  789ANI     CH11038   0.907   3.494   2.237  0.2063 -0.1959 -0.5864
  789ANI     NH11039   0.818   3.708   2.231  0.3337 -0.3477  0.0027
  789ANI     HC11040   0.937   3.732   2.479  0.3506 -0.3587  0.3025
  789ANI     HC11041   1.068   3.538   2.580 -0.4240  1.0913  0.2993
  789ANI     HC11042   1.101   3.346   2.480 -0.3159 -0.8984 -0.7484
  789ANI     HC11043   0.998   3.296   2.249 -1.3046  1.3515 -3.1364
  789ANI     HC11044   0.869   3.474   2.138 -1.5647 -4.5844  0.8324
  789ANI     HN11045   0.790   3.791   2.281 -0.7078 -0.1695 -0.8752
  789ANI     HN11046   0.727   3.678   2.202  0.8719  0.2512 -2.4408
  790ANI     CN11047   0.801   5.742   2.716  0.1156 -0.1928 -0.3044
  790ANI     CH11048   0.766   5.699   2.587 -0.3844  0.3011 -0.3348
  790ANI     CH11049   0.849   5.602   2.531 -0.1723  0.4660 -0.3058
  790ANI     CH11050   0.963   5.551   2.594 -0.3313  0.6862  0.1623
  790ANI     CH11051   1.001   5.601   2.720  0.6341  0.2498  0.0523
  790ANI     CH11052   0.916   5.695   2.779 -0.0990 -0.3502 -0.0305
  790ANI     NH11053   0.719   5.831   2.774  0.1124 -0.1779 -0.3298
  790ANI     HC11054   0.680   5.742   2.537 -1.1898 -0.9118 -0.0036
  790ANI     HC11055   0.834   5.569   2.429  1.7674  0.9037 -0.7605
  790ANI     HC11056   1.025   5.480   2.541 -2.5135 -0.8370 -0.4062
  790ANI     HC11057   1.096   5.575   2.763 -0.0054  2.9943  3.3128
  790ANI     HC11058   0.936   5.730   2.880  0.3562 -0.2956 -0.1393
  790ANI     HN11059   0.630   5.837   2.728  0.3765  0.2350 -0.7937
  790ANI     HN11060   0.710   5.848   2.873  1.6662 -1.5213  0.0647
  791ANI     CN11061   3.796   3.077   5.344  0.0515 -0.2371  0.4450
  791ANI     CH11062   3.855   3.114   5.223 -0.6809  0.1233  0.1940
  791ANI     CH11063   3.826   3.237   5.161  0.5253  0.2648 -0.1077
  791ANI     CH11064   3.741   3.330   5.222 -0.1159 -0.3495 -0.0557
  791ANI     CH11065   3.680   3.294   5.343  0.1282  0.2887  0.2612
  791ANI     CH11066   3.699   3.165   5.394 -0.3053 -0.0822 -0.5057
  791ANI     NH11067   3.839   2.969   5.410 -0.3243 -0.5283  0.2199
  791ANI     HC11068   3.911   3.042   5.167 -2.8770 -0.3046 -1.5076
  791ANI     HC11069   3.868   3.269   5.067 -0.7779 -0.0628 -0.8014
  791ANI     HC11070   3.722   3.426   5.176 -0.5549 -0.4355 -0.0521
  791ANI     HC11071   3.611   3.358   5.395 -0.4236 -1.1605  1.3434
  791ANI     HC11072   3.646   3.150   5.487 -1.0105  3.3685 -0.2729
  791ANI     HN11073   3.939   2.952   5.411  0.0529  1.4978 -1.0860
  791ANI     HN11074   3.799   2.946   5.500 -0.9096 -0.0767  0.0789
  792ANI     CN11075   2.004   5.883   2.525  0.0680  0.1840 -0.1138
  792ANI     CH11076   1.981   5.763   2.456  0.4195 -0.1271  0.3038
  792ANI     CH11077   2.084   5.720   2.373  0.1728  0.1350 -0.1393
  792ANI     CH11078   2.204   5.789   2.350  0.2961  0.1876  0.6376
  792ANI     CH11079   2.215   5.917   2.404  0.2166  0.7461 -0.6465
  792ANI     CH11080   2.117   5.960   2.494  0.4670 -0.2960  0.1333
  792ANI     NH11081   1.909   5.924   2.611  0.0451  0.2242 -0.1584
  792ANI     HC11082   1.881   5.723   2.458  0.0871  0.6047 -1.0836
  792ANI     HC11083   2.078   5.618   2.338  1.1183  0.1720 -0.4361
  792ANI     HC11084   2.279   5.762   2.276  0.0937  1.1874  0.0603
  792ANI     HC11085   2.298   5.985   2.391  1.0013 -0.3165 -1.3234
  792ANI     HC11086   2.138   6.050   2.550  0.7022 -1.1552  1.4355
  792ANI     HN11087   1.882   5.849   2.673  0.7538  0.2189  0.1514
  792ANI     HN11088   1.917   6.009   2.666 -2.2802  0.0437  0.4932
  793ANI     CN11089   3.079   1.220   3.367 -0.3485  0.0907  0.3601
  793ANI     CH11090   2.981   1.132   3.413 -0.0301 -0.2212  0.4395
  793ANI     CH11091   2.862   1.180   3.470 -0.1403 -0.0604  0.0772
  793ANI     CH11092   2.845   1.317   3.491  0.2443  0.0339 -0.2270
  793ANI     CH11093   2.943   1.407   3.446 -0.6616  0.7051 -0.8934
  793ANI     CH11094   3.060   1.357   3.387 -0.5264  0.1465 -0.1702
  793ANI     NH11095   3.181   1.171   3.295 -0.3078  0.1930  0.3484
  793ANI     HC11096   2.994   1.025   3.404  0.6924  0.0182 -1.5055
  793ANI     HC11097   2.790   1.108   3.507 -2.8321  1.7797 -1.4440
  793ANI     HC11098   2.752   1.352   3.533  0.6148 -0.0832  0.6960
  793ANI     HC11099   2.925   1.510   3.470 -1.5602  0.1474  0.9808
  793ANI     HC11100   3.129   1.430   3.349 -0.2407  0.5846  1.1570
  793ANI     HN11101   3.200   1.072   3.296  2.0739  0.5395 -2.9291
  793ANI     HN11102   3.150   1.181   3.199  0.9062 -3.2230 -0.4634
  794ANI     CN11103   2.370   0.511   4.677 -0.4701  0.0157  0.2584
  794ANI     CH11104   2.368   0.435   4.559 -0.1774  0.0156  0.2536
  794ANI     CH11105   2.378   0.296   4.565  0.0314 -0.0123 -0.6261
  794ANI     CH11106   2.389   0.234   4.690  0.4829 -0.0519 -0.6844
  794ANI     CH11107   2.388   0.309   4.808 -0.0014 -0.3377 -0.5030
  794ANI     CH11108   2.372   0.448   4.802  0.6025 -0.2361  0.1185
  794ANI     NH11109   2.354   0.644   4.670  0.7154  0.1475 -0.0809
  794ANI     HC11110   2.370   0.488   4.465 -1.6268 -0.0805  0.1604
  794ANI     HC11111   2.391   0.231   4.480  3.3525 -3.0568  2.0313
  794ANI     HC11112   2.402   0.129   4.714  1.1470  0.0064 -0.7697
  794ANI     HC11113   2.420   0.266   4.902 -0.3047  0.1543 -0.1706
  794ANI     HC11114   2.366   0.507   4.893 -1.9195 -1.2064  0.6244
  794ANI     HN11115   2.291   0.685   4.738  1.2207  2.6150 -1.0519
  794ANI     HN11116   2.320   0.671   4.579 -0.8008  1.8049  0.9410
  795ANI     CN11117   5.467   2.000   2.452 -0.2978 -0.2335 -0.0853
  795ANI     CH11118   5.459   1.884   2.375  0.1962  0.0426 -0.5546
  795ANI     CH11119   5.399   1.768   2.427 -0.3203  0.4993 -0.1348
  795ANI     CH11120   5.353   1.764   2.559  0.0206  0.0576 -0.0301
  795ANI     CH11121   5.353   1.884   2.632 -0.2318  0.1240 -0.1389
  795ANI     CH11122   5.413   2.000   2.582 -0.1460  0.1324 -0.0198
  795ANI     NH11123   5.522   2.110   2.399 -0.1117 -0.2500  0.0743
  795ANI     HC11124   5.495   1.867   2.275  0.8531 -2.8163  0.1149
  795ANI     HC11125   5.388   1.676   2.372  0.1179  0.0744  0.4878
  795ANI     HC11126   5.303   1.681   2.605  0.2929 -0.7046 -1.0913
  795ANI     HC11127   5.308   1.895   2.730 -3.1012 -1.0055 -1.2943
  795ANI     HC11128   5.413   2.091   2.640 -0.0272  0.9882 -1.3411
  795ANI     HN11129   5.524   2.192   2.458  1.1312 -0.3952  0.2529
  795ANI     HN11130   5.491   2.130   2.305  2.4225 -2.1504 -1.2545
  796ANI     CN11131   3.784   0.876   2.092  0.5409  0.3095  0.1024
  796ANI     CH11132   3.869   0.766   2.078 -0.2040 -0.2517 -0.0384
  796ANI     CH11133   3.938   0.707   2.185 -0.2786 -0.0514  0.1222
  796ANI     CH11134   3.928   0.762   2.313  0.1775  0.0127  0.1331
  796ANI     CH11135   3.842   0.871   2.329  0.0556 -0.0249 -0.2473
  796ANI     CH11136   3.765   0.921   2.224 -0.1467  0.2499  0.0285
  796ANI     NH11137   3.731   0.942   1.988  0.5485  0.4708  0.2004
  796ANI     HC11138   3.888   0.733   1.977  0.3714 -0.6988  0.2075
  796ANI     HC11139   3.998   0.619   2.164 -1.2190 -0.9598  1.1413
  796ANI     HC11140   3.985   0.721   2.395 -1.3459  2.8712  2.7159
  796ANI     HC11141   3.832   0.921   2.425  2.3363 -0.7500  0.4033
  796ANI     HC11142   3.714   1.014   2.241 -0.7285  0.1887 -1.2999
  796ANI     HN11143   3.688   0.891   1.912 -0.9563  1.2880  0.4841
  796ANI     HN11144   3.667   1.005   2.034  0.5784 -0.3732  1.4386
  797ANI     CN11145   6.121   4.646   0.819  0.0377 -0.2744  0.3824
  797ANI     CH11146   6.071   4.606   0.695  0.3380 -0.2459  0.2532
  797ANI     CH11147   6.099   4.477   0.649 -0.2832 -0.3179  0.0698
  797ANI     CH11148   6.169   4.392   0.736 -0.3922 -0.0096  0.4622
  797ANI     CH11149   6.229   4.436   0.854  0.2768 -0.8977  0.4612
  797ANI     CH11150   6.207   4.568   0.897 -0.2000 -0.8468  0.0703
  797ANI     NH11151   6.091   4.774   0.844 -0.9301 -0.4066 -0.0604
  797ANI     HC11152   6.003   4.662   0.632  0.3207 -0.2211  0.2936
  797ANI     HC11153   6.063   4.447   0.552  2.6144  0.6347 -1.3616
  797ANI     HC11154   6.200   4.292   0.707  1.1476  1.2846 -2.6170
  797ANI     HC11155   6.275   4.361   0.916 -0.6063 -1.9063 -0.0899
  797ANI     HC11156   6.251   4.594   0.992  2.5753  0.6493 -1.5754
  797ANI     HN11157   6.008   4.799   0.792 -1.3457 -1.2662  0.1819
  797ANI     HN11158   6.076   4.806   0.939 -0.6158  0.2676 -0.2327
  798ANI     CN11159   2.757   1.346   1.521  0.3350  0.2988 -0.4080
  798ANI     CH11160   2.852   1.271   1.591 -0.1725  0.0092 -0.0320
  798ANI     CH11161   2.869   1.296   1.728  0.8627  0.3498 -0.2151
  798ANI     CH11162   2.798   1.399   1.791  0.4412  0.1301 -0.3287
  798ANI     CH11163   2.702   1.470   1.718  0.2748  0.1404 -0.1019
  798ANI     CH11164   2.685   1.450   1.580  0.8102  0.5287 -0.2292
  798ANI     NH11165   2.738   1.328   1.389  0.5414 -0.1767 -0.3724
  798ANI     HC11166   2.910   1.191   1.546  0.3733  1.4805 -2.0020
  798ANI     HC11167   2.927   1.229   1.789 -0.5409 -0.0524  0.7195
  798ANI     HC11168   2.818   1.418   1.895 -2.3325 -3.3039  0.9487
  798ANI     HC11169   2.637   1.542   1.765 -0.0047 -0.2769  0.1491
  798ANI     HC11170   2.611   1.501   1.520  0.0025 -2.0622 -1.4863
  798ANI     HN11171   2.824   1.361   1.347  0.2336 -0.8131 -1.5312
  798ANI     HN11172   2.664   1.384   1.350  0.5983  1.6504  2.0172
  799ANI     CN11173   3.758   5.700   2.013 -0.5145  0.4208 -0.4787
  799ANI     CH11174   3.823   5.773   2.113 -0.0081 -0.5269 -0.1164
  799ANI     CH11175   3.870   5.901   2.083 -0.1776 -0.4529 -0.0596
  799ANI     CH11176   3.858   5.952   1.953 -0.3664  0.5548  0.3456
  799ANI     CH11177   3.804   5.876   1.849  0.1847  0.3501  0.2050
  799ANI     CH11178   3.752   5.750   1.882 -0.3015  0.3591 -0.5120
  799ANI     NH11179   3.720   5.577   2.048  0.1871  0.2991 -0.1376
  799ANI     HC11180   3.842   5.743   2.215 -0.0053 -0.5244 -0.1160
  799ANI     HC11181   3.923   5.957   2.159  0.5015  0.0031 -0.8594
  799ANI     HC11182   3.904   6.043   1.916 -0.4647 -0.7721 -3.2441
  799ANI     HC11183   3.789   5.901   1.745 -2.0365 -0.1704  0.3640
  799ANI     HC11184   3.702   5.685   1.812 -0.5504  0.3455 -0.3185
  799ANI     HN11185   3.753   5.508   1.982  1.0077 -1.0105  1.5860
  799ANI     HN11186   3.760   5.554   2.138 -0.1518 -2.8238 -0.7031
  800ANI     CN11187   1.031   1.361   3.988  0.0104 -0.5364 -0.8244
  800ANI     CH11188   0.931   1.284   3.927 -0.0851 -0.4739 -0.7463
  800ANI     CH11189   0.848   1.336   3.827 -0.3220  0.1015 -0.2537
  800ANI     CH11190   0.879   1.466   3.787  0.2463  0.0126 -0.1116
  800ANI     CH11191   0.982   1.546   3.840  0.1730  0.0690 -0.0539
  800ANI     CH11192   1.049   1.495   3.951 -0.3865 -0.2101  0.1618
  800ANI     NH11193   1.104   1.306   4.086 -0.3423 -0.0732 -0.2980
  800ANI     HC11194   0.915   1.179   3.950 -0.8497 -0.0247  0.8254
  800ANI     HC11195   0.774   1.274   3.779 -1.2323  0.3571  0.8062
  800ANI     HC11196   0.826   1.504   3.701  0.9851  2.0379  0.2849
  800ANI     HC11197   0.989   1.642   3.792 -2.3325  1.2183  1.8059
  800ANI     HC11198   1.123   1.554   4.004  1.9777 -2.5649 -0.3704
  800ANI     HN11199   1.136   1.371   4.155  1.2567 -0.1582 -0.9305
  800ANI     HN11200   1.059   1.228   4.132 -0.8145  0.3596 -0.0215
  801ANI     CN11201   2.687   3.045   5.930 -0.4053  0.1683 -0.0231
  801ANI     CH11202   2.751   3.090   6.046  0.1409 -0.0532 -0.2372
  801ANI     CH11203   2.891   3.087   6.049  0.1313 -0.1101  0.1633
  801ANI     CH11204   2.968   3.044   5.940 -0.0453  0.2458 -0.1028
  801ANI     CH11205   2.898   3.004   5.825  0.0115 -0.3504  0.0668
  801ANI     CH11206   2.759   2.989   5.824 -0.0852  0.5120  0.0120
  801ANI     NH11207   2.554   3.049   5.916 -0.4733  0.3712  0.6920
  801ANI     HC11208   2.697   3.141   6.124  2.6059  0.3323  1.2856
  801ANI     HC11209   2.927   3.128   6.142  2.3730 -1.3502 -0.1149
  801ANI     HC11210   3.076   3.045   5.949 -0.1435 -0.6955  1.3297
  801ANI     HC11211   2.952   2.972   5.737 -0.1730  1.2335 -0.6491
  801ANI     HC11212   2.698   2.969   5.737 -1.0725  1.5059  0.4672
  801ANI     HN11213   2.517   3.009   5.832 -0.7557 -2.0611  1.9207
  801ANI     HN11214   2.537   3.148   5.904  1.7451  0.7273  0.2388
  802ANI     CN11215   2.004   3.446   2.224 -0.0707 -0.7015  0.2489
  802ANI     CH11216   1.914   3.550   2.249  0.3410 -0.2516 -0.1254
  802ANI     CH11217   1.891   3.590   2.382 -0.0470  0.0617 -0.2848
  802ANI     CH11218   1.969   3.532   2.483 -0.1994  0.4441  0.0531
  802ANI     CH11219   2.065   3.433   2.458 -0.5681  0.1248 -0.1047
  802ANI     CH11220   2.086   3.395   2.325  0.5868  0.0491  0.0978
  802ANI     NH11221   2.011   3.401   2.098  0.7039 -0.0912  0.0683
  802ANI     HC11222   1.863   3.606   2.172 -4.4039 -1.6583  1.8284
  802ANI     HC11223   1.822   3.666   2.413 -0.1309 -0.6398  1.2940
  802ANI     HC11224   1.956   3.568   2.584  1.2377 -1.1125  0.8160
  802ANI     HC11225   2.121   3.394   2.542 -0.7134 -0.5635 -0.3237
  802ANI     HC11226   2.168   3.326   2.309  0.7187  0.0646  0.7022
  802ANI     HN11227   2.098   3.355   2.079  0.4657  0.0423 -1.4288
  802ANI     HN11228   1.987   3.460   2.019  1.0358  1.5628  1.1668
  803ANI     CN11229   3.050   2.165   2.367 -0.4410  0.1866 -0.3537
  803ANI     CH11230   3.106   2.245   2.267 -0.4047  0.4079 -0.1560
  803ANI     CH11231   3.097   2.201   2.135  0.3059  0.1603 -0.1250
  803ANI     CH11232   3.047   2.074   2.102 -0.0664  0.2430  0.1189
  803ANI     CH11233   2.995   1.996   2.206  0.4584 -0.7394 -0.3508
  803ANI     CH11234   2.986   2.044   2.338  0.3529 -0.1876 -0.5582
  803ANI     NH11235   3.041   2.214   2.491 -0.2593 -0.7813  0.0490
  803ANI     HC11236   3.148   2.342   2.290 -0.1552 -0.3078  2.5942
  803ANI     HC11237   3.140   2.262   2.057  1.1214  0.0581  0.2509
  803ANI     HC11238   3.043   2.039   2.000 -1.6968  2.0128 -0.4640
  803ANI     HC11239   2.957   1.900   2.174  0.2170 -0.9576  0.5642
  803ANI     HC11240   2.942   1.984   2.416 -0.6789  1.5495  0.2079
  803ANI     HN11241   2.948   2.189   2.521  0.2844 -0.6015  1.9701
  803ANI     HN11242   3.050   2.315   2.494  1.4299 -0.9278  0.2538
  804ANI     CN11243   1.999   2.510   4.686 -0.1453 -0.5462 -0.1237
  804ANI     CH11244   1.987   2.582   4.805  0.3988 -0.1004 -0.3412
  804ANI     CH11245   1.881   2.671   4.826  0.1946 -0.3929 -0.1314
  804ANI     CH11246   1.777   2.668   4.733  0.3397  0.4359 -0.3260
  804ANI     CH11247   1.774   2.573   4.630 -0.3354  0.0535  0.0357
  804ANI     CH11248   1.887   2.494   4.604 -0.2828  0.1645 -0.0763
  804ANI     NH11249   2.114   2.450   4.653 -0.2578 -0.8240 -0.0130
  804ANI     HC11250   2.069   2.576   4.876 -0.6925 -2.8605  0.7492
  804ANI     HC11251   1.868   2.733   4.913 -1.0786  1.7797 -1.8272
  804ANI     HC11252   1.687   2.725   4.755  0.1782 -0.2256  0.7448
  804ANI     HC11253   1.694   2.554   4.561  1.0749  0.4304 -1.7512
  804ANI     HC11254   1.877   2.418   4.528  1.9801 -1.8139  1.5597
  804ANI     HN11255   2.107   2.428   4.554  0.5445  0.1145 -0.2871
  804ANI     HN11256   2.199   2.504   4.653  0.3007 -1.6969  0.1748
  805ANI     CN11257   3.711   5.137   0.494  0.0750  0.2013  0.2382
  805ANI     CH11258   3.583   5.182   0.457  0.0641  0.0337  0.0706
  805ANI     CH11259   3.476   5.093   0.443  0.2016 -0.0488 -0.5050
  805ANI     CH11260   3.502   4.958   0.467 -0.1202 -0.0139  0.0581
  805ANI     CH11261   3.627   4.909   0.506 -0.0992  0.1654  0.2129
  805ANI     CH11262   3.734   5.000   0.512 -0.1566  0.2093  0.6046
  805ANI     NH11263   3.815   5.221   0.500  0.1814  0.0995 -0.1628
  805ANI     HC11264   3.562   5.287   0.441  2.0967  0.5668  0.7746
  805ANI     HC11265   3.375   5.124   0.418 -1.0877 -3.9871 -0.4908
  805ANI     HC11266   3.420   4.890   0.450  0.3473 -0.3439 -0.9118
  805ANI     HC11267   3.638   4.803   0.516 -0.2701  0.1211 -0.0690
  805ANI     HC11268   3.831   4.954   0.521 -0.7999 -1.6021 -1.2520
  805ANI     HN11269   3.805   5.305   0.445  1.5698  0.4053  0.0233
  805ANI     HN11270   3.908   5.181   0.495  0.1012 -0.0837 -0.1768
  806ANI     CN11271   4.863   2.456   1.537  0.1386  0.0457 -0.4169
  806ANI     CH11272   4.799   2.420   1.418  0.9242 -0.2308 -0.7610
  806ANI     CH11273   4.693   2.501   1.374  0.7752  0.0742  0.1494
  806ANI     CH11274   4.650   2.613   1.445 -0.7024 -0.0150 -0.5987
  806ANI     CH11275   4.708   2.638   1.570  0.2730 -0.3642 -0.9772
  806ANI     CH11276   4.822   2.568   1.611 -0.0378 -0.3073  0.0232
  806ANI     NH11277   4.956   2.374   1.589 -0.5851 -0.3219  0.3179
  806ANI     HC11278   4.832   2.338   1.356  1.2885  0.5015 -1.5548
  806ANI     HC11279   4.657   2.469   1.278  1.3722  0.8233 -0.3276
  806ANI     HC11280   4.570   2.675   1.406 -0.6827  0.0531 -0.5297
  806ANI     HC11281   4.683   2.723   1.631  1.0597  0.9001 -2.3988
  806ANI     HC11282   4.875   2.594   1.701 -1.9923  3.6674  0.1391
  806ANI     HN11283   5.020   2.435   1.638  1.5102 -0.0434 -2.5689
  806ANI     HN11284   5.004   2.339   1.507  1.7588  0.9040  1.1323
  807ANI     CN11285   4.632   5.957   0.687 -0.1129  0.0331  0.3554
  807ANI     CH11286   4.634   5.829   0.630 -0.0345  0.1553  0.0796
  807ANI     CH11287   4.639   5.718   0.715 -0.5440 -0.3080 -0.4963
  807ANI     CH11288   4.644   5.733   0.854  0.2903  0.5496 -0.6160
  807ANI     CH11289   4.623   5.860   0.909 -0.0306  0.1605  0.1659
  807ANI     CH11290   4.622   5.972   0.826  0.1678  0.2973  0.3463
  807ANI     NH11291   4.637   6.068   0.612 -0.1874 -0.1718  0.0450
  807ANI     HC11292   4.625   5.825   0.523  2.0329 -0.8758 -0.0907
  807ANI     HC11293   4.646   5.616   0.678  2.0115 -0.4677  0.3103
  807ANI     HC11294   4.657   5.649   0.921  0.5980  0.9731 -0.1344
  807ANI     HC11295   4.619   5.878   1.016  3.5348  1.7036  0.1108
  807ANI     HC11296   4.618   6.066   0.880 -0.1339  0.8714 -0.6512
  807ANI     HN11297   4.606   6.052   0.517  2.7655  0.3111 -1.0657
  807ANI     HN11298   4.737   6.085   0.606 -0.2142  0.4035  1.1306
  808ANI     CN11299   1.153   4.788   5.237  0.2439  0.1058  0.0462
  808ANI     CH11300   1.237   4.693   5.178 -0.2445 -0.0828 -0.3503
  808ANI     CH11301   1.373   4.718   5.160 -0.1680  0.0463  0.4233
  808ANI     CH11302   1.423   4.835   5.219 -0.0330  0.1712  0.0593
  808ANI     CH11303   1.343   4.926   5.289 -0.0552  0.0646  0.1740
  808ANI     CH11304   1.207   4.897   5.305 -0.0220  0.0278  0.3851
  808ANI     NH11305   1.020   4.770   5.225  0.2940 -0.4182  0.2563
  808ANI     HC11306   1.201   4.613   5.115  0.2390 -0.9451  0.4662
  808ANI     HC11307   1.428   4.644   5.105  1.2575  0.8188  0.7697
  808ANI     HC11308   1.529   4.857   5.208  0.1793 -1.1529 -0.6393
  808ANI     HC11309   1.396   5.012   5.328  0.2841  1.0915 -2.4329
  808ANI     HC11310   1.144   4.973   5.349  2.5824  2.0264  0.8402
  808ANI     HN11311   0.966   4.852   5.249  0.3375 -0.6366  1.1476
  808ANI     HN11312   0.985   4.721   5.145  0.3175 -1.3921  0.8305
  809ANI     CN11313   1.789   0.836   0.271  0.2734 -0.1334 -0.0434
  809ANI     CH11314   1.868   0.943   0.314  0.1826 -0.0369 -0.1129
  809ANI     CH11315   1.971   0.992   0.232  0.3927  0.0933  0.2282
  809ANI     CH11316   2.002   0.928   0.111  0.1301  0.4298 -0.0178
  809ANI     CH11317   1.922   0.823   0.065  0.2799  0.2452  0.1437
  809ANI     CH11318   1.817   0.779   0.146  0.4153 -0.2602  0.0468
  809ANI     NH11319   1.684   0.787   0.339  0.1407 -0.4080 -0.4412
  809ANI     HC11320   1.850   0.996   0.406 -2.7123  1.6682 -1.6016
  809ANI     HC11321   2.027   1.080   0.260 -0.6706  0.4674  1.2258
  809ANI     HC11322   2.082   0.975   0.056  0.0927  0.1232 -0.3314
  809ANI     HC11323   1.937   0.778  -0.032  0.5184  1.0989 -0.2194
  809ANI     HC11324   1.757   0.696   0.111  1.8691 -0.9376 -0.8651
  809ANI     HN11325   1.616   0.730   0.291 -0.2122 -0.4060  0.0546
  809ANI     HN11326   1.642   0.843   0.411 -1.0672  1.7456 -2.7369
  810ANI     CN11327   1.227   0.925   1.639 -0.4107  0.4397  0.2806
  810ANI     CH11328   1.230   1.036   1.554 -0.6473  0.1878 -0.0540
  810ANI     CH11329   1.298   1.153   1.586  0.3134 -0.2330 -0.5193
  810ANI     CH11330   1.371   1.155   1.706 -0.1930  0.5414 -0.2193
  810ANI     CH11331   1.387   1.038   1.781  0.1399  0.3381 -0.6045
  810ANI     CH11332   1.318   0.921   1.746  0.3109  0.1571 -0.3396
  810ANI     NH11333   1.158   0.817   1.600  0.1608  0.1130  0.1668
  810ANI     HC11334   1.177   1.035   1.459 -0.4946  0.9257 -0.1443
  810ANI     HC11335   1.299   1.234   1.514 -0.5832 -0.1456 -0.4359
  810ANI     HC11336   1.433   1.237   1.739  0.2602 -0.5997  1.8647
  810ANI     HC11337   1.446   1.031   1.871 -0.0740  0.4223 -0.4549
  810ANI     HC11338   1.317   0.831   1.805 -1.5263  0.8997  0.8171
  810ANI     HN11339   1.064   0.834   1.567  1.1485  1.5985 -2.0489
  810ANI     HN11340   1.143   0.754   1.677  0.2780 -0.6083 -0.3874
  811ANI     CN11341   2.821   5.835   4.415 -0.2812 -0.2030 -0.2528
  811ANI     CH11342   2.720   5.815   4.510 -0.3556  0.2129 -0.2394
  811ANI     CH11343   2.713   5.885   4.631  0.0824  0.0453 -0.1171
  811ANI     CH11344   2.807   5.988   4.650 -0.2106  0.3104 -0.0984
  811ANI     CH11345   2.908   6.011   4.557  0.1336 -0.1632  0.1550
  811ANI     CH11346   2.920   5.930   4.443 -0.2062 -0.4482  0.3202
  811ANI     NH11347   2.822   5.754   4.308  0.1974  0.1637 -0.5270
  811ANI     HC11348   2.648   5.736   4.497  2.1534 -1.9082 -1.8385
  811ANI     HC11349   2.633   5.865   4.700  0.3613 -0.3364  0.0961
  811ANI     HC11350   2.816   6.034   4.748 -2.8056  1.2034 -0.2382
  811ANI     HC11351   2.991   6.077   4.578 -0.6569  0.7248  0.5096
  811ANI     HC11352   3.009   5.949   4.385 -2.3584  0.8318 -2.7227
  811ANI     HN11353   2.776   5.671   4.342 -1.0850  1.0861  0.0240
  811ANI     HN11354   2.920   5.733   4.296 -0.1443 -0.7794 -1.7981
  812ANI     CN11355   2.138   2.302   3.671 -0.2539 -0.3194 -0.9195
  812ANI     CH11356   2.198   2.234   3.778 -0.4478 -0.2538 -0.7690
  812ANI     CH11357   2.123   2.202   3.891 -0.1082  0.5735 -0.3064
  812ANI     CH11358   1.989   2.242   3.901 -0.4120 -0.6257  0.5408
  812ANI     CH11359   1.929   2.312   3.796 -0.1033 -0.2395  0.6160
  812ANI     CH11360   2.004   2.343   3.682 -0.3578 -0.9480  0.2443
  812ANI     NH11361   2.213   2.333   3.564  0.6721  0.2933 -0.1036
  812ANI     HC11362   2.298   2.194   3.768 -0.6764 -1.7370  2.3711
  812ANI     HC11363   2.162   2.132   3.963  1.6948  2.1216  0.2882
  812ANI     HC11364   1.935   2.221   3.992  1.9989 -0.5384  2.0369
  812ANI     HC11365   1.829   2.351   3.806 -0.6537 -1.6331  0.7142
  812ANI     HC11366   1.971   2.409   3.603  0.9245 -0.5936 -0.0081
  812ANI     HN11367   2.169   2.283   3.488 -1.7732  2.5380 -0.2553
  812ANI     HN11368   2.306   2.297   3.575  0.0863 -0.8911  1.2903
  813ANI     CN11369   0.558   4.083   4.659  0.0805  0.2570  0.2950
  813ANI     CH11370   0.686   4.072   4.603  0.2398  0.0530  0.6978
  813ANI     CH11371   0.712   4.163   4.500  0.0890 -0.0822  0.5397
  813ANI     CH11372   0.627   4.267   4.460  0.2740 -0.0396  0.2500
  813ANI     CH11373   0.505   4.280   4.528  0.0876 -0.4216 -0.0102
  813ANI     CH11374   0.471   4.190   4.630 -0.0809  0.1731  0.4665
  813ANI     NH11375   0.526   4.003   4.761 -0.6956  0.7111  0.4131
  813ANI     HC11376   0.756   3.998   4.638  0.5257  0.3322  0.7142
  813ANI     HC11377   0.802   4.143   4.445  0.7647 -0.3381  1.7347
  813ANI     HC11378   0.654   4.331   4.377 -0.8556  0.8549  0.5551
  813ANI     HC11379   0.442   4.364   4.503  2.1539  0.9532 -0.7324
  813ANI     HC11380   0.375   4.203   4.675  0.0238 -1.0739  1.0822
  813ANI     HN11381   0.595   4.005   4.835 -0.9504  2.5819  0.6148
  813ANI     HN11382   0.445   4.026   4.817 -1.3995  0.7106 -0.5958
  814ANI     CN11383   5.217   2.380   2.082  0.4015 -0.2422  0.2121
  814ANI     CH11384   5.165   2.393   2.211  0.0996 -0.1003  0.0768
  814ANI     CH11385   5.170   2.519   2.272 -0.6432 -0.0981  0.1402
  814ANI     CH11386   5.216   2.631   2.201 -0.6039 -0.2298 -0.0442
  814ANI     CH11387   5.272   2.619   2.074  0.7409 -0.3007  0.5504
  814ANI     CH11388   5.268   2.492   2.015 -0.2720 -0.0355  0.0399
  814ANI     NH11389   5.199   2.266   2.014  0.6860 -0.2551  0.1563
  814ANI     HC11390   5.119   2.310   2.262  1.8583 -0.4521  1.1033
  814ANI     HC11391   5.122   2.530   2.368  0.5062  0.9218  0.6025
  814ANI     HC11392   5.204   2.731   2.241  0.6811  0.7605 -2.0472
  814ANI     HC11393   5.296   2.701   2.007 -0.9376  0.2691  0.6161
  814ANI     HC11394   5.296   2.483   1.911  2.6790 -0.4430  0.8269
  814ANI     HN11395   5.110   2.279   1.969  0.0551 -0.8923  1.1820
  814ANI     HN11396   5.170   2.193   2.079  0.7481 -0.9047 -0.5376
  815ANI     CN11397   1.168   4.212   1.354 -0.1160 -0.2121 -0.0886
  815ANI     CH11398   1.209   4.305   1.450  0.1473 -0.3542 -0.0644
  815ANI     CH11399   1.189   4.280   1.587  0.2865  0.1700  0.0505
  815ANI     CH11400   1.131   4.160   1.627  0.0447  0.2312 -0.1131
  815ANI     CH11401   1.084   4.072   1.528  0.3999  0.3797 -0.4156
  815ANI     CH11402   1.101   4.095   1.392  0.1750 -0.5450 -0.6019
  815ANI     NH11403   1.184   4.236   1.223  0.0383  0.1294 -0.0075
  815ANI     HC11404   1.255   4.396   1.415  1.7165 -0.7162  0.9714
  815ANI     HC11405   1.212   4.355   1.662 -1.6686  0.6026  0.2384
  815ANI     HC11406   1.110   4.142   1.732 -3.9692 -1.7030 -1.1591
  815ANI     HC11407   1.036   3.980   1.558 -0.5620  0.9387 -0.2184
  815ANI     HC11408   1.065   4.022   1.321  2.1342 -0.2213 -2.0009
  815ANI     HN11409   1.105   4.205   1.169 -0.9609  2.6280 -0.0529
  815ANI     HN11410   1.220   4.328   1.202  2.6289 -0.5001  1.4336
  816ANI     CN11411   4.161   5.902   4.957 -0.7167  0.3036 -0.6398
  816ANI     CH11412   4.266   5.905   4.863 -0.7583  0.3647 -0.6855
  816ANI     CH11413   4.359   6.010   4.864 -0.2651 -0.0762  0.6059
  816ANI     CH11414   4.353   6.111   4.961  0.6247  0.2210  0.3561
  816ANI     CH11415   4.254   6.102   5.060  0.0106 -0.1038 -0.2841
  816ANI     CH11416   4.159   5.999   5.058  0.1183 -0.2031 -0.1345
  816ANI     NH11417   4.065   5.810   4.949 -0.0033 -0.5727  0.6433
  816ANI     HC11418   4.278   5.822   4.795  2.6864 -0.2497  0.5802
  816ANI     HC11419   4.439   6.016   4.792 -1.6287  1.5150 -0.8066
  816ANI     HC11420   4.417   6.197   4.950  1.4869 -0.7568 -2.7277
  816ANI     HC11421   4.242   6.179   5.135  0.3217  1.3140 -1.6506
  816ANI     HC11422   4.083   5.993   5.135 -0.2055  0.5961 -0.3838
  816ANI     HN11423   3.978   5.857   4.973  0.9111  1.3916  0.2382
  816ANI     HN11424   4.069   5.774   4.854  1.3984  1.5161 -0.1226
  817ANI     CN11425   3.189   4.051   5.527  0.6753 -0.1056 -0.3796
  817ANI     CH11426   3.212   4.188   5.511 -0.2011  0.0678 -0.2084
  817ANI     CH11427   3.342   4.239   5.529 -0.0154 -0.4342 -0.1223
  817ANI     CH11428   3.443   4.156   5.578  0.3083  0.2650  0.4067
  817ANI     CH11429   3.419   4.019   5.595  0.6840  0.1523  0.0491
  817ANI     CH11430   3.294   3.966   5.562  0.5261  0.1363  0.6649
  817ANI     NH11431   3.066   4.004   5.502  0.4928  0.0469  0.2135
  817ANI     HC11432   3.133   4.259   5.494 -1.2885 -0.2546  3.0969
  817ANI     HC11433   3.353   4.345   5.511  1.3244 -0.6688 -0.7254
  817ANI     HC11434   3.541   4.199   5.595 -0.2963  1.3468  1.1791
  817ANI     HC11435   3.499   3.952   5.625  0.5610  0.1481  0.3716
  817ANI     HC11436   3.283   3.859   5.560 -0.2934  0.2388 -0.5613
  817ANI     HN11437   3.063   3.906   5.477 -0.3694  0.3399 -0.8780
  817ANI     HN11438   3.025   4.046   5.420  0.6273  0.4315  0.3467
  818ANI     CN11439   5.554   2.852   3.358 -0.0209 -0.1095  0.4083
  818ANI     CH11440   5.634   2.851   3.243 -0.5812 -0.3458  0.0151
  818ANI     CH11441   5.726   2.747   3.226 -0.1688  0.0558 -0.2389
  818ANI     CH11442   5.724   2.639   3.315  0.1380  0.1517 -0.1176
  818ANI     CH11443   5.634   2.636   3.423  0.1479 -0.3694 -0.1202
  818ANI     CH11444   5.544   2.742   3.444 -0.0318 -0.5224 -0.1204
  818ANI     NH11445   5.473   2.957   3.378  0.2257  0.2175 -0.3005
  818ANI     HC11446   5.634   2.940   3.183 -0.9082 -0.6668 -0.4595
  818ANI     HC11447   5.795   2.745   3.144 -0.2428 -1.9425 -0.2791
  818ANI     HC11448   5.803   2.566   3.305  2.0719  2.1678  0.0714
  818ANI     HC11449   5.641   2.550   3.488  0.1270  0.1098  0.5191
  818ANI     HC11450   5.470   2.733   3.522  0.2733 -2.3992 -0.0193
  818ANI     HN11451   5.454   3.007   3.292  0.3811  0.3712 -0.2441
  818ANI     HN11452   5.384   2.929   3.417 -0.6424  0.0709 -2.2847
  819ANI     CN11453   2.677   4.757   1.340  0.3463 -0.0672 -0.2115
  819ANI     CH11454   2.584   4.755   1.445  0.3224 -0.5270 -0.2414
  819ANI     CH11455   2.579   4.864   1.533 -0.3947 -0.4089 -0.4240
  819ANI     CH11456   2.664   4.975   1.516 -0.2896 -0.3661  0.3684
  819ANI     CH11457   2.759   4.972   1.413 -0.0768  0.0727  0.5557
  819ANI     CH11458   2.758   4.869   1.319  0.0229  0.2744  0.3331
  819ANI     NH11459   2.684   4.664   1.244  0.0303 -0.2958 -0.0183
  819ANI     HC11460   2.531   4.662   1.459  1.3159 -0.6789  2.9547
  819ANI     HC11461   2.516   4.850   1.619  0.2828 -1.6551 -0.1143
  819ANI     HC11462   2.659   5.050   1.593  1.2148  1.1942 -1.0296
  819ANI     HC11463   2.842   5.041   1.409 -2.3242  2.8554  0.0888
  819ANI     HC11464   2.821   4.868   1.231 -1.4704 -1.3914 -0.7463
  819ANI     HN11465   2.770   4.667   1.191 -0.9514 -3.4790 -1.9183
  819ANI     HN11466   2.665   4.573   1.281  0.1581  0.5100  2.1218
  820ANI     CN11467   2.127   5.561   4.624  0.1586  0.4660  0.1492
  820ANI     CH11468   2.237   5.536   4.706 -0.3300 -0.2385  0.5987
  820ANI     CH11469   2.315   5.647   4.742 -0.0706 -0.0849 -0.4267
  820ANI     CH11470   2.299   5.774   4.685 -0.2561  0.0938  0.0225
  820ANI     CH11471   2.191   5.797   4.600 -0.4058  0.2671  0.2595
  820ANI     CH11472   2.104   5.690   4.576 -0.1417  0.2040 -0.4186
  820ANI     NH11473   2.045   5.459   4.593  0.1224  0.5641 -0.0746
  820ANI     HC11474   2.266   5.441   4.750 -0.3837 -0.5992 -0.1412
  820ANI     HC11475   2.395   5.630   4.812 -1.5757  0.0337  1.3576
  820ANI     HC11476   2.369   5.857   4.691 -2.0170  1.5863  0.3102
  820ANI     HC11477   2.173   5.889   4.545  1.7233  1.6909  1.8843
  820ANI     HC11478   2.021   5.715   4.511 -0.9467  0.5771  0.7479
  820ANI     HN11479   2.059   5.362   4.617 -2.0880  0.6001  1.6073
  820ANI     HN11480   2.008   5.469   4.500 -1.0231  0.1173  0.3224
  821ANI     CN11481   5.218   4.116   0.713 -0.2993  0.1841  0.1859
  821ANI     CH11482   5.214   3.993   0.781 -0.5631  0.2498  0.2879
  821ANI     CH11483   5.314   3.957   0.872 -0.2576 -0.6934 -0.4205
  821ANI     CH11484   5.423   4.043   0.891 -0.3082 -0.5190 -0.9333
  821ANI     CH11485   5.427   4.168   0.828  0.1101 -0.0396  0.0477
  821ANI     CH11486   5.323   4.204   0.742  0.1083 -0.2266 -0.0280
  821ANI     NH11487   5.134   4.148   0.615 -0.2352 -0.4562 -0.0813
  821ANI     HC11488   5.129   3.930   0.762  0.1408 -0.2543 -1.2340
  821ANI     HC11489   5.301   3.867   0.931  0.1958 -0.2004  0.4458
  821ANI     HC11490   5.494   4.020   0.969 -2.5859 -0.9103  1.0797
  821ANI     HC11491   5.497   4.246   0.855 -0.2428  0.1501  0.4277
  821ANI     HC11492   5.333   4.305   0.704  0.7329 -0.4495 -0.4810
  821ANI     HN11493   5.075   4.070   0.588 -0.2055 -0.3112 -0.5788
  821ANI     HN11494   5.183   4.188   0.536 -0.3934 -0.0543  0.0245
  822ANI     CN11495   2.202   1.462   1.330 -0.1139 -0.5520 -0.9199
  822ANI     CH11496   2.327   1.406   1.358 -0.2420 -0.5582 -0.3511
  822ANI     CH11497   2.344   1.305   1.453  0.3213  0.1169  0.2695
  822ANI     CH11498   2.228   1.254   1.514 -0.1721 -0.2696 -0.9711
  822ANI     CH11499   2.102   1.300   1.475 -0.2503  0.2443 -0.1298
  822ANI     CH11500   2.087   1.413   1.394 -0.0658  0.1624 -0.2781
  822ANI     NH11501   2.180   1.550   1.232 -0.2701  0.8256  0.3406
  822ANI     HC11502   2.407   1.446   1.298  1.2808 -1.5733  0.9717
  822ANI     HC11503   2.443   1.266   1.471  0.6086  1.8887  2.9941
  822ANI     HC11504   2.234   1.171   1.583 -1.5959 -0.0171 -0.5369
  822ANI     HC11505   2.008   1.253   1.500  1.0330 -2.4347 -0.1805
  822ANI     HC11506   1.993   1.459   1.367  0.0387 -0.0702 -1.0657
  822ANI     HN11507   2.254   1.590   1.175 -0.1784  1.2797  0.7775
  822ANI     HN11508   2.091   1.558   1.186  0.3295 -1.7044 -1.3220
  823ANI     CN11509   1.267   6.000   5.109 -0.2970  0.1915 -0.0271
  823ANI     CH11510   1.372   6.019   5.199 -0.0119  0.4549 -0.4125
  823ANI     CH11511   1.374   6.125   5.291 -0.1515 -0.2133  0.3747
  823ANI     CH11512   1.266   6.215   5.290 -0.0765 -0.1245 -0.3125
  823ANI     CH11513   1.157   6.194   5.205 -0.3546  0.3998 -0.0882
  823ANI     CH11514   1.158   6.088   5.113 -0.3515  0.1130  0.2434
  823ANI     NH11515   1.277   5.898   5.022 -0.0351  0.0802  0.1328
  823ANI     HC11516   1.461   5.958   5.200 -0.2693  0.0002  3.1171
  823ANI     HC11517   1.456   6.136   5.360 -0.1316 -2.0882  0.6759
  823ANI     HC11518   1.275   6.300   5.355 -0.3171  0.0728 -0.5367
  823ANI     HC11519   1.085   6.274   5.210 -0.3108  0.8159 -4.2120
  823ANI     HC11520   1.079   6.058   5.046 -0.2919 -2.6166  1.3310
  823ANI     HN11521   1.195   5.856   4.979 -1.1888  2.5175 -0.1700
  823ANI     HN11522   1.332   5.826   5.066 -2.1774 -1.2552  0.7108
  824ANI     CN11523   5.100   5.915   0.022 -0.0872 -0.2745 -0.2498
  824ANI     CH11524   5.185   5.916  -0.089 -0.0822 -0.2263 -0.2449
  824ANI     CH11525   5.319   5.875  -0.080  0.2779  0.9767 -0.0343
  824ANI     CH11526   5.363   5.837   0.047 -0.3130  0.4638  0.0221
  824ANI     CH11527   5.280   5.827   0.159  0.0489  0.0975  0.2635
  824ANI     CH11528   5.146   5.868   0.145  0.0931  0.0925 -0.1767
  824ANI     NH11529   4.973   5.955   0.008  0.1656  0.4462 -0.5740
  824ANI     HC11530   5.163   5.948  -0.190 -0.6259  0.5325  0.1118
  824ANI     HC11531   5.384   5.885  -0.165 -0.4272  2.6844 -0.4020
  824ANI     HC11532   5.459   5.788   0.057  0.1985  1.2502 -1.0023
  824ANI     HC11533   5.322   5.782   0.248 -1.9386 -1.7990  0.2874
  824ANI     HC11534   5.074   5.856   0.225 -0.8461 -0.2031 -1.0671
  824ANI     HN11535   4.902   5.896   0.050  0.9819  1.6955  2.7599
  824ANI     HN11536   4.941   5.987  -0.082  2.3917  0.3554 -1.4325
  825ANI     CN11537   3.061   2.449   1.607 -0.8486 -0.0054 -0.2181
  825ANI     CH11538   3.017   2.421   1.477  0.2988 -0.2497 -0.5547
  825ANI     CH11539   2.986   2.290   1.441  0.4858 -0.4017 -0.1599
  825ANI     CH11540   2.999   2.185   1.533  0.1680 -0.1286  0.1991
  825ANI     CH11541   3.030   2.216   1.666 -0.0109 -0.2226  0.2632
  825ANI     CH11542   3.049   2.349   1.705 -0.4638 -0.0258 -0.1922
  825ANI     NH11543   3.087   2.573   1.649 -0.3878 -0.1062 -0.2000
  825ANI     HC11544   2.996   2.501   1.407  2.3155  0.4099 -0.4579
  825ANI     HC11545   2.957   2.271   1.339 -0.0352  0.7286 -0.2266
  825ANI     HC11546   2.991   2.081   1.504  1.5760 -0.3113  0.4184
  825ANI     HC11547   3.044   2.139   1.741 -0.2759 -1.4217 -0.9122
  825ANI     HC11548   3.083   2.360   1.807  1.8553  1.7863 -1.0966
  825ANI     HN11549   3.057   2.644   1.583 -0.5356 -0.4990 -0.5528
  825ANI     HN11550   3.050   2.603   1.739  4.9841 -0.7533  2.4293
  826ANI     CN11551   4.554   1.334   2.769 -0.1463  0.0692  0.3546
  826ANI     CH11552   4.688   1.348   2.808 -0.1498  0.7176  0.1330
  826ANI     CH11553   4.759   1.248   2.875 -0.4213  0.2711 -0.2358
  826ANI     CH11554   4.689   1.135   2.919  0.5763 -0.3059 -0.1137
  826ANI     CH11555   4.555   1.122   2.882  0.5521 -0.0277 -0.1255
  826ANI     CH11556   4.487   1.216   2.804  0.1717 -0.2358 -0.0510
  826ANI     NH11557   4.487   1.432   2.706 -0.2443 -0.1223  0.1579
  826ANI     HC11558   4.734   1.445   2.796  1.3342  0.1480  1.1710
  826ANI     HC11559   4.862   1.257   2.906 -0.5580  0.6870  0.1130
  826ANI     HC11560   4.743   1.060   2.975  1.6066 -0.4840 -1.3220
  826ANI     HC11561   4.506   1.032   2.918  2.1578 -0.1629  1.8437
  826ANI     HC11562   4.387   1.196   2.769 -0.0610  1.3916 -0.3580
  826ANI     HN11563   4.398   1.395   2.677 -1.0197  1.5707  0.3527
  826ANI     HN11564   4.485   1.516   2.762 -1.4841  0.2993 -0.5123
  827ANI     CN11565   5.467   4.943   1.376  0.3171  0.0114  0.2519
  827ANI     CH11566   5.363   4.925   1.283  0.2775 -0.2033  0.3376
  827ANI     CH11567   5.246   4.867   1.334 -0.3559  1.0086  0.2707
  827ANI     CH11568   5.224   4.849   1.471 -0.2207 -0.4723  0.1051
  827ANI     CH11569   5.319   4.895   1.563 -0.2998 -0.1487  0.0241
  827ANI     CH11570   5.445   4.928   1.513 -0.1170 -0.7057  0.1127
  827ANI     NH11571   5.584   4.988   1.328  0.4255 -0.7427 -0.2165
  827ANI     HC11572   5.379   4.949   1.179 -0.8909  0.6660  0.3520
  827ANI     HC11573   5.166   4.844   1.267  2.3626 -1.2216 -2.3367
  827ANI     HC11574   5.125   4.818   1.502 -0.7560  1.7889  0.7146
  827ANI     HC11575   5.296   4.887   1.668 -1.8247 -1.9269 -0.4181
  827ANI     HC11576   5.515   4.959   1.590  0.7428  0.2265 -1.0107
  827ANI     HN11577   5.626   4.943   1.249  0.2517 -0.7729 -0.2915
  827ANI     HN11578   5.648   5.006   1.404 -2.0256  1.3302  1.4358
  828ANI     CN11579   5.150   4.489   2.222 -0.3297  0.1818  0.0705
  828ANI     CH11580   5.068   4.376   2.228 -0.1348  0.0160 -0.3620
  828ANI     CH11581   5.027   4.323   2.351  0.1826  0.4124 -0.0849
  828ANI     CH11582   5.077   4.377   2.470  0.7905 -0.0547 -0.1284
  828ANI     CH11583   5.163   4.487   2.462  0.6046  0.1128  0.1562
  828ANI     CH11584   5.198   4.548   2.340 -0.0009  0.1031 -0.0225
  828ANI     NH11585   5.191   4.528   2.101  0.9154 -0.1139  0.3901
  828ANI     HC11586   5.042   4.324   2.137  2.7410  0.2040 -1.3179
  828ANI     HC11587   4.976   4.228   2.355 -2.9009  2.0165  0.1661
  828ANI     HC11588   5.056   4.333   2.566  0.0124 -0.5678 -0.5325
  828ANI     HC11589   5.198   4.524   2.557  1.3492 -0.5614  0.1588
  828ANI     HC11590   5.272   4.626   2.341  0.7432 -0.6013  0.2214
  828ANI     HN11591   5.117   4.513   2.034  1.4057 -0.3830 -0.1038
  828ANI     HN11592   5.219   4.625   2.096  2.2834 -0.5299 -0.2629
  829ANI     CN11593   6.049   0.414   1.258 -0.4648  0.3650 -0.0981
  829ANI     CH11594   6.166   0.416   1.335 -0.3747  0.0709 -0.2265
  829ANI     CH11595   6.169   0.498   1.449 -0.1782 -0.3867  0.0959
  829ANI     CH11596   6.054   0.559   1.500 -0.1800 -0.3676  0.0691
  829ANI     CH11597   5.938   0.553   1.420 -0.1464 -0.0832 -0.0017
  829ANI     CH11598   5.936   0.488   1.296 -0.7460 -0.1272  0.0308
  829ANI     NH11599   6.048   0.347   1.142 -0.3152 -0.2341  0.2469
  829ANI     HC11600   6.251   0.358   1.303  0.5565  2.0936 -1.5167
  829ANI     HC11601   6.258   0.508   1.509 -0.1752  1.5033 -0.2145
  829ANI     HC11602   6.067   0.601   1.598  3.3658 -1.0147 -0.0622
  829ANI     HC11603   5.854   0.611   1.454 -1.5562 -1.8152 -0.4387
  829ANI     HC11604   5.843   0.493   1.241 -0.2179  3.0887 -0.6706
  829ANI     HN11605   5.959   0.339   1.094  0.1774 -0.4863 -0.6385
  829ANI     HN11606   6.078   0.253   1.164  1.7460  0.4556  0.4895
  830ANI     CN11607   3.757   6.208   0.326  0.0440 -0.1017  0.1448
  830ANI     CH11608   3.804   6.192   0.457  0.3055 -0.3427  0.0227
  830ANI     CH11609   3.942   6.193   0.480  0.2906 -0.0236  0.0928
  830ANI     CH11610   4.034   6.208   0.376  0.0265 -0.0255 -0.1427
  830ANI     CH11611   3.988   6.223   0.245  0.1608 -0.3155 -0.2235
  830ANI     CH11612   3.849   6.226   0.222  0.0966 -0.0285  0.2036
  830ANI     NH11613   3.627   6.218   0.297 -0.0564  0.1344  0.6852
  830ANI     HC11614   3.728   6.169   0.531 -0.6851  1.9297 -0.2585
  830ANI     HC11615   3.977   6.194   0.582 -1.4087  0.2521  0.7004
  830ANI     HC11616   4.138   6.204   0.404 -0.1104 -1.2765  0.2068
  830ANI     HC11617   4.059   6.217   0.164 -2.4286  2.3865 -2.8280
  830ANI     HC11618   3.812   6.237   0.121 -1.0498  3.4192  0.9173
  830ANI     HN11619   3.614   6.239   0.200 -0.9957 -0.6449  0.6298
  830ANI     HN11620   3.569   6.139   0.322 -1.1617  0.2933 -1.3308
  831ANI     CN11621   0.874   4.433   1.288 -0.1120  0.5049  0.0607
  831ANI     CH11622   0.923   4.482   1.409 -0.1321  0.0088  0.2681
  831ANI     CH11623   0.988   4.606   1.404 -1.0602  0.4955  0.1168
  831ANI     CH11624   0.992   4.684   1.288 -0.2109  0.3947  0.0717
  831ANI     CH11625   0.937   4.634   1.169  0.3174 -0.6690  0.2644
  831ANI     CH11626   0.874   4.509   1.170 -0.3853 -0.3266 -0.4807
  831ANI     NH11627   0.813   4.314   1.294 -0.8138  0.8563  0.0642
  831ANI     HC11628   0.914   4.440   1.508  0.9227 -0.3290  0.2274
  831ANI     HC11629   1.039   4.647   1.490 -0.0627 -0.7969  0.1607
  831ANI     HC11630   1.029   4.785   1.289 -1.3801  0.8264  1.4018
  831ANI     HC11631   0.927   4.698   1.082 -0.4517 -1.7874 -0.4749
  831ANI     HC11632   0.829   4.486   1.075 -0.2753  0.8176 -0.8150
  831ANI     HN11633   0.838   4.255   1.216  0.8091  1.0820  0.3988
  831ANI     HN11634   0.844   4.258   1.372  0.4574  0.7628 -0.4956
  832ANI     CN11635   5.390   1.991   1.056  0.0198  0.1777  0.2767
  832ANI     CH11636   5.512   2.028   0.998 -0.3803  0.2976 -0.4903
  832ANI     CH11637   5.600   2.112   1.068 -0.1931 -0.7142  0.5063
  832ANI     CH11638   5.563   2.157   1.195 -0.2485  0.2750  0.1472
  832ANI     CH11639   5.437   2.131   1.249 -0.4723  0.6400 -0.1961
  832ANI     CH11640   5.350   2.047   1.178 -0.2250 -0.0290  0.2910
  832ANI     NH11641   5.314   1.897   0.998 -0.1752  0.4692  0.0601
  832ANI     HC11642   5.533   1.989   0.900 -3.7992 -0.9893 -0.7846
  832ANI     HC11643   5.697   2.135   1.026  0.5081  0.2225  2.6050
  832ANI     HC11644   5.632   2.224   1.245 -0.8589  0.4348  0.7816
  832ANI     HC11645   5.412   2.157   1.351 -0.7654  0.9020 -0.3355
  832ANI     HC11646   5.253   2.029   1.223 -0.6625  0.4598 -0.4511
  832ANI     HN11647   5.310   1.926   0.902 -0.4563  0.7168  0.1482
  832ANI     HN11648   5.218   1.894   1.028 -0.9305 -1.4835 -2.4735
  833ANI     CN11649   1.857   4.051   2.334  0.2040 -0.1590 -0.1339
  833ANI     CH11650   1.929   4.015   2.219 -0.2456 -0.0726 -0.4427
  833ANI     CH11651   1.906   4.082   2.098 -0.3964 -0.0880 -0.4239
  833ANI     CH11652   1.811   4.184   2.091 -0.6365 -0.2886 -0.0971
  833ANI     CH11653   1.740   4.219   2.206  0.4940  0.1930  0.4531
  833ANI     CH11654   1.772   4.162   2.330  0.3634 -0.0204  0.3895
  833ANI     NH11655   1.880   3.996   2.454  0.0260  0.3454  0.1329
  833ANI     HC11656   2.005   3.940   2.233  2.2974  2.4297 -0.5669
  833ANI     HC11657   1.969   4.068   2.011 -0.1735  2.6635 -0.7313
  833ANI     HC11658   1.786   4.228   1.995  1.9187  4.0421  1.1294
  833ANI     HC11659   1.668   4.298   2.202 -1.2420 -1.4226 -1.0189
  833ANI     HC11660   1.712   4.183   2.418 -0.1503 -2.5348  0.6820
  833ANI     HN11661   1.938   3.914   2.445 -1.5070 -0.9131  1.3236
  833ANI     HN11662   1.802   3.973   2.513 -0.0763 -2.3051 -0.9602
  834ANI     CN11663   4.362   5.978   1.519  0.0282 -0.2790  0.5924
  834ANI     CH11664   4.241   6.047   1.509 -0.1777 -0.7074  0.1572
  834ANI     CH11665   4.147   6.041   1.613  0.0642  0.2475  0.4375
  834ANI     CH11666   4.162   5.958   1.725  0.7029  0.0226  0.1935
  834ANI     CH11667   4.281   5.885   1.736  0.5151 -0.2233  0.6134
  834ANI     CH11668   4.373   5.894   1.631 -0.2657 -1.3329 -0.1707
  834ANI     NH11669   4.455   5.980   1.423 -0.0365  0.1239  0.5405
  834ANI     HC11670   4.222   6.106   1.421 -0.7369 -0.9524  0.1104
  834ANI     HC11671   4.062   6.106   1.604  0.1060  0.1273 -0.9994
  834ANI     HC11672   4.089   5.966   1.804  0.9746  2.0622  0.2800
  834ANI     HC11673   4.306   5.817   1.816 -2.6958 -0.4851  1.4525
  834ANI     HC11674   4.458   5.827   1.635  1.9427  1.4336  0.0399
  834ANI     HN11675   4.447   6.040   1.342 -0.9546 -1.6058 -0.6841
  834ANI     HN11676   4.475   5.887   1.391 -1.8535 -0.9912  2.5683
  835ANI     CN11677   4.996   5.365   6.071 -0.4012 -0.0068  0.6535
  835ANI     CH11678   4.990   5.355   6.210  1.1276 -0.4730  0.6977
  835ANI     CH11679   4.969   5.470   6.287 -0.3100 -0.3045  0.0704
  835ANI     CH11680   4.958   5.594   6.223  0.3538 -0.3595 -0.1570
  835ANI     CH11681   4.968   5.600   6.084  0.4011 -0.1421 -0.1435
  835ANI     CH11682   4.982   5.487   6.003 -0.2958 -0.3438  0.0192
  835ANI     NH11683   5.007   5.254   5.997 -0.6053  0.3462  0.0861
  835ANI     HC11684   4.975   5.258   6.255 -2.7411  0.2742  1.2170
  835ANI     HC11685   4.960   5.451   6.393  1.6087  0.8467  0.4520
  835ANI     HC11686   4.950   5.685   6.281 -0.5704 -0.4416 -0.1385
  835ANI     HC11687   4.972   5.692   6.026  1.3172 -1.8020 -2.8103
  835ANI     HC11688   4.990   5.499   5.896 -0.7773 -0.0925  0.0132
  835ANI     HN11689   4.981   5.175   6.055 -1.3717  1.8327  1.8131
  835ANI     HN11690   4.945   5.250   5.918  0.3221  1.3265 -0.7045
  836ANI     CN11691   3.189   0.796   0.300 -0.2540  0.1595  0.3649
  836ANI     CH11692   3.162   0.659   0.293 -0.1721  0.1729 -0.2405
  836ANI     CH11693   3.267   0.571   0.264 -0.0609  0.1044  0.3590
  836ANI     CH11694   3.399   0.613   0.240 -0.0712  0.2347  0.5256
  836ANI     CH11695   3.426   0.749   0.257  0.5797  0.2183 -0.3408
  836ANI     CH11696   3.322   0.838   0.289 -0.0441 -0.6085 -0.0571
  836ANI     NH11697   3.093   0.888   0.312 -0.2907  0.1770 -0.0895
  836ANI     HC11698   3.062   0.617   0.295 -0.1384  0.1212  2.8482
  836ANI     HC11699   3.233   0.470   0.251  0.7937 -0.0676 -0.6021
  836ANI     HC11700   3.482   0.551   0.210  1.1326  2.5218 -1.0311
  836ANI     HC11701   3.522   0.798   0.249  0.5726  0.8494  2.6974
  836ANI     HC11702   3.355   0.940   0.296  0.8847 -0.9104  0.0090
  836ANI     HN11703   3.121   0.975   0.355 -0.1475  1.1901 -2.1386
  836ANI     HN11704   3.003   0.859   0.349 -1.2322  0.7696 -1.8458
  837ANI     CN11705   1.516   6.027   1.189  0.2453 -0.3833 -0.2846
  837ANI     CH11706   1.577   5.925   1.114  0.3686 -0.2215 -0.4027
  837ANI     CH11707   1.703   5.943   1.054  0.0826  0.1487 -0.8951
  837ANI     CH11708   1.768   6.064   1.080  0.2157 -0.1938  0.3791
  837ANI     CH11709   1.705   6.169   1.148 -0.1213 -0.0350 -0.1802
  837ANI     CH11710   1.582   6.148   1.212 -0.2527 -0.0824 -0.4483
  837ANI     NH11711   1.399   6.008   1.251  0.2482  0.0440 -0.1496
  837ANI     HC11712   1.524   5.832   1.108  2.1748 -1.6080  3.3784
  837ANI     HC11713   1.752   5.862   1.003 -0.5086 -0.9842  0.3124
  837ANI     HC11714   1.867   6.069   1.037 -0.2230  1.0608 -0.5055
  837ANI     HC11715   1.750   6.266   1.158 -0.8991  0.5781 -2.2925
  837ANI     HC11716   1.537   6.228   1.269 -0.4421 -1.2329  1.0374
  837ANI     HN11717   1.394   6.074   1.327  1.3750 -0.3530  0.2730
  837ANI     HN11718   1.386   5.913   1.284  0.7027 -0.0415 -0.2234
  838ANI     CN11719   3.929   4.363   1.002  0.1954  0.4536  0.1746
  838ANI     CH11720   4.025   4.412   1.090  0.0178  0.2174  0.4977
  838ANI     CH11721   4.020   4.362   1.221  0.4736  0.3366  0.5623
  838ANI     CH11722   3.926   4.267   1.265  0.1166  0.2164 -0.4456
  838ANI     CH11723   3.828   4.226   1.174 -0.4011  0.1155  0.1558
  838ANI     CH11724   3.833   4.268   1.041  0.6186  0.0143  0.1564
  838ANI     NH11725   3.926   4.413   0.877  0.5187 -0.6017 -0.2618
  838ANI     HC11726   4.098   4.485   1.060 -2.4083  1.9789 -1.2085
  838ANI     HC11727   4.100   4.389   1.288  0.8866 -0.5365  0.4269
  838ANI     HC11728   3.927   4.234   1.368 -0.6142  1.7192  0.0647
  838ANI     HC11729   3.754   4.154   1.204  0.1857 -0.5282  0.0624
  838ANI     HC11730   3.753   4.237   0.976  0.7850  0.4084 -0.2430
  838ANI     HN11731   4.012   4.443   0.833  0.8110  0.5709  1.0723
  838ANI     HN11732   3.873   4.349   0.819 -0.8657 -1.8100  2.2195
  839ANI     CN11733   5.592   0.447   3.380 -0.3081 -0.6222 -0.4712
  839ANI     CH11734   5.697   0.520   3.437 -0.6630 -0.6615  0.2322
  839ANI     CH11735   5.727   0.503   3.573  0.0435 -0.0273  0.1557
  839ANI     CH11736   5.667   0.398   3.642  0.6596 -0.0970  0.5914
  839ANI     CH11737   5.565   0.321   3.585  0.0497  1.1120  0.0360
  839ANI     CH11738   5.528   0.346   3.452 -0.3092 -0.3987 -0.1584
  839ANI     NH11739   5.572   0.459   3.248  0.3632 -0.3570 -0.5522
  839ANI     HC11740   5.750   0.600   3.389 -1.7676 -0.3610 -0.5153
  839ANI     HC11741   5.800   0.556   3.632  1.3733 -1.7133  0.0530
  839ANI     HC11742   5.692   0.381   3.746  0.4365  2.8537  1.1531
  839ANI     HC11743   5.514   0.242   3.639  0.6223  0.3237 -0.5656
  839ANI     HC11744   5.457   0.275   3.412  0.2548 -1.1824  0.2027
  839ANI     HN11745   5.572   0.555   3.218 -1.0607 -0.3658 -0.6420
  839ANI     HN11746   5.483   0.418   3.222  0.8527 -0.8159 -1.5266
  840ANI     CN11747   1.965   5.047   1.682 -0.1435 -0.0784  0.3718
  840ANI     CH11748   1.827   5.036   1.704 -0.1390 -0.5221  0.1787
  840ANI     CH11749   1.739   5.055   1.597  0.0059  0.1416  0.1780
  840ANI     CH11750   1.788   5.078   1.468  0.2653 -0.0637  0.2395
  840ANI     CH11751   1.926   5.090   1.450  0.1636  0.3419 -0.2955
  840ANI     CH11752   2.017   5.064   1.553 -0.5582 -0.4063  0.1573
  840ANI     NH11753   2.044   5.041   1.790 -0.6300  0.0579  0.7347
  840ANI     HC11754   1.787   5.005   1.799  1.2071 -2.2827  0.2104
  840ANI     HC11755   1.633   5.046   1.615  0.1152  0.2668  0.8932
  840ANI     HC11756   1.724   5.093   1.382 -1.6593  1.4154  1.8710
  840ANI     HC11757   1.968   5.103   1.351 -1.5008 -3.4317 -1.5983
  840ANI     HC11758   2.124   5.064   1.534 -0.5303  0.5181  0.2806
  840ANI     HN11759   2.134   5.078   1.765 -0.1712  1.4427  4.1742
  840ANI     HN11760   2.013   5.104   1.863 -1.5834 -0.7739  1.0545
  841ANI     CN11761   3.674   4.035   4.530  0.1943 -0.7517 -0.3242
  841ANI     CH11762   3.611   4.117   4.625  0.2405 -0.5146 -0.4999
  841ANI     CH11763   3.504   4.059   4.695  0.2270 -0.4420 -0.4588
  841ANI     CH11764   3.464   3.926   4.680 -0.2021 -0.2993 -0.5843
  841ANI     CH11765   3.536   3.847   4.589  0.0473 -0.5853 -0.1399
  841ANI     CH11766   3.638   3.901   4.509  0.0266 -0.7176 -0.2562
  841ANI     NH11767   3.774   4.082   4.456  0.1705 -0.3590 -0.1108
  841ANI     HC11768   3.642   4.218   4.649  2.6503 -0.8699 -2.0025
  841ANI     HC11769   3.464   4.121   4.774 -0.5367 -1.5773  0.0523
  841ANI     HC11770   3.383   3.892   4.743 -0.9610 -0.3905 -1.5947
  841ANI     HC11771   3.511   3.743   4.581  1.6569 -0.9921 -0.1439
  841ANI     HC11772   3.693   3.836   4.444 -0.5011 -1.2552 -0.1731
  841ANI     HN11773   3.808   4.027   4.378  2.2650  1.7052 -0.7578
  841ANI     HN11774   3.745   4.170   4.414 -0.2573 -0.9714 -1.1096
  842ANI     CN11775   0.760   2.636   5.401  0.1727 -0.6016 -0.1574
  842ANI     CH11776   0.819   2.623   5.527  0.9726 -0.3871 -0.5066
  842ANI     CH11777   0.737   2.578   5.632  0.2575  0.6961 -0.5957
  842ANI     CH11778   0.605   2.536   5.613  0.0810  0.9624  0.0137
  842ANI     CH11779   0.548   2.547   5.486 -0.4392 -0.0981  0.1453
  842ANI     CH11780   0.625   2.602   5.382 -0.1055  0.1212  0.5109
  842ANI     NH11781   0.836   2.676   5.298 -0.3962  0.0792 -0.3178
  842ANI     HC11782   0.922   2.649   5.546  0.0936  3.9456 -1.3339
  842ANI     HC11783   0.787   2.583   5.728  0.4052  0.9444 -0.6858
  842ANI     HC11784   0.540   2.502   5.692 -1.8898 -0.7772 -2.2575
  842ANI     HC11785   0.444   2.523   5.470 -0.4182  0.0846 -0.2794
  842ANI     HC11786   0.583   2.608   5.283  0.0996  1.2467  0.4837
  842ANI     HN11787   0.832   2.614   5.218  2.7864  0.3586 -0.7381
  842ANI     HN11788   0.934   2.701   5.302 -0.1337 -1.0500  0.4860
  843ANI     CN11789   5.136   1.109   1.496  0.3267 -0.2790 -0.0387
  843ANI     CH11790   5.205   1.062   1.384 -0.1635 -0.0983 -0.4139
  843ANI     CH11791   5.303   0.963   1.394 -0.1289 -0.0271 -0.0823
  843ANI     CH11792   5.329   0.907   1.520  0.2219 -0.5642 -0.3925
  843ANI     CH11793   5.252   0.949   1.629  0.3542 -0.2232 -0.4327
  843ANI     CH11794   5.169   1.062   1.624  0.1777 -0.3352 -0.0216
  843ANI     NH11795   5.044   1.205   1.479 -0.1698 -0.7014  0.2793
  843ANI     HC11796   5.186   1.101   1.285 -0.7777 -0.1569 -0.3200
  843ANI     HC11797   5.356   0.926   1.308  2.3843 -0.2438  1.5097
  843ANI     HC11798   5.400   0.826   1.529  0.4760 -0.6059 -2.5518
  843ANI     HC11799   5.263   0.902   1.725  1.1784  1.2721  0.2234
  843ANI     HC11800   5.101   1.078   1.707 -1.5649 -6.1124 -0.0817
  843ANI     HN11801   5.066   1.286   1.535  0.2241 -3.2300  4.0105
  843ANI     HN11802   5.020   1.234   1.386 -1.1987  1.3913  1.1673
  844ANI     CN11803   6.158   2.845   6.181  0.0725 -0.7531 -0.3443
  844ANI     CH11804   6.023   2.827   6.147 -0.2368  0.3749  0.2682
  844ANI     CH11805   5.936   2.754   6.230 -0.1095  0.4463  0.4642
  844ANI     CH11806   5.987   2.699   6.348 -0.4410 -0.0108  0.3920
  844ANI     CH11807   6.120   2.720   6.384 -0.1669 -0.6243 -0.2625
  844ANI     CH11808   6.206   2.793   6.301 -0.1862 -0.4031 -0.0883
  844ANI     NH11809   6.243   2.917   6.107 -0.6811  0.6459  0.1438
  844ANI     HC11810   5.988   2.869   6.054  2.1674  1.1642 -0.3222
  844ANI     HC11811   5.831   2.748   6.210 -0.4026  0.6283  1.9029
  844ANI     HC11812   5.921   2.643   6.413 -0.1175 -0.7314  0.1032
  844ANI     HC11813   6.150   2.691   6.484  1.9399 -0.1806 -0.7245
  844ANI     HC11814   6.305   2.817   6.339  0.5674 -2.4946 -0.6590
  844ANI     HN11815   6.193   2.984   6.050 -0.9638 -0.6293 -1.1341
  844ANI     HN11816   6.324   2.960   6.150  1.0480 -1.2134 -1.1704
  845ANI     CN11817   2.306   3.040   5.147  0.1650  0.1582 -0.0626
  845ANI     CH11818   2.228   3.142   5.090  0.0233  0.1981  0.2024
  845ANI     CH11819   2.115   3.116   5.012  0.2033 -0.2907  0.1051
  845ANI     CH11820   2.074   2.983   4.999 -0.1596 -0.1688 -0.0048
  845ANI     CH11821   2.150   2.881   5.058  0.0094 -0.0781 -0.0653
  845ANI     CH11822   2.259   2.909   5.141  0.1685  0.1703 -0.3552
  845ANI     NH11823   2.415   3.061   5.223  0.1512 -0.6557  0.1867
  845ANI     HC11824   2.263   3.244   5.095 -1.7209  0.8580 -0.6109
  845ANI     HC11825   2.061   3.202   4.975  0.0339 -0.2646  0.4159
  845ANI     HC11826   1.988   2.947   4.944 -0.3736 -1.8776  1.3720
  845ANI     HC11827   2.121   2.777   5.055 -0.6298  0.1267 -2.4261
  845ANI     HC11828   2.313   2.824   5.181  0.1454  0.6408  0.6839
  845ANI     HN11829   2.423   3.159   5.247 -1.5948 -0.5129  0.2379
  845ANI     HN11830   2.414   3.007   5.308  0.3804 -3.5035 -1.5480
  846ANI     CN11831   2.080   3.210   3.789  0.0768 -0.0920 -0.0474
  846ANI     CH11832   2.174   3.153   3.876 -0.0905 -0.0805  0.1400
  846ANI     CH11833   2.282   3.083   3.822  0.2082 -0.1126  0.7727
  846ANI     CH11834   2.295   3.065   3.684 -0.9177  0.4636  0.5812
  846ANI     CH11835   2.194   3.114   3.601 -0.4835 -0.3590 -0.4508
  846ANI     CH11836   2.086   3.188   3.651 -0.0718 -0.0154 -0.0668
  846ANI     NH11837   1.981   3.279   3.846 -0.2487 -0.3220 -0.3344
  846ANI     HC11838   2.172   3.171   3.983 -0.4399 -0.4056  0.1903
  846ANI     HC11839   2.364   3.045   3.881 -0.0161  0.5094  1.4892
  846ANI     HC11840   2.377   3.007   3.643 -0.1938  0.7602  1.6079
  846ANI     HC11841   2.200   3.089   3.496 -0.2734  1.2682 -0.8499
  846ANI     HC11842   2.009   3.231   3.590  0.4787  1.8498  0.5220
  846ANI     HN11843   1.988   3.277   3.947 -0.8959 -1.9257 -0.3015
  846ANI     HN11844   1.887   3.248   3.825 -0.8543  1.2964 -0.1244
  847ANI     CN11845   0.283   2.784   1.901 -0.2484  0.6802  0.5180
  847ANI     CH11846   0.165   2.747   1.836  0.1692 -0.3674  0.3595
  847ANI     CH11847   0.139   2.782   1.703 -0.0268 -0.0462  0.4851
  847ANI     CH11848   0.234   2.862   1.637 -0.0325 -0.2263  0.2577
  847ANI     CH11849   0.354   2.899   1.699  0.3237 -0.1527 -0.4835
  847ANI     CH11850   0.378   2.861   1.831 -0.6015  0.5464 -0.1173
  847ANI     NH11851   0.300   2.749   2.029 -0.0243 -0.0662  0.2862
  847ANI     HC11852   0.086   2.703   1.895 -0.9272  0.2812 -0.5969
  847ANI     HC11853   0.041   2.755   1.666  0.5288 -0.5650 -0.6346
  847ANI     HC11854   0.225   2.882   1.532  0.9103  0.3332  0.2772
  847ANI     HC11855   0.424   2.964   1.647  1.4556 -1.4970 -0.6702
  847ANI     HC11856   0.462   2.901   1.886 -0.0793 -0.8373  0.1060
  847ANI     HN11857   0.393   2.726   2.062  0.2208  1.1252  0.4679
  847ANI     HN11858   0.230   2.683   2.060 -2.7854  3.1519  1.1859
  848ANI     CN11859   3.312   2.289   4.377  0.1554 -0.3331  0.5544
  848ANI     CH11860   3.316   2.239   4.246 -0.3007 -0.9171  0.7645
  848ANI     CH11861   3.430   2.247   4.165 -0.5897 -0.0108  0.4430
  848ANI     CH11862   3.538   2.312   4.225 -0.6456  0.4416  0.0536
  848ANI     CH11863   3.536   2.373   4.350  0.5122 -0.5735  0.5753
  848ANI     CH11864   3.419   2.363   4.427  0.0289  0.2654 -0.0515
  848ANI     NH11865   3.195   2.293   4.442 -0.0779  0.9142  0.0676
  848ANI     HC11866   3.231   2.183   4.210  0.6670 -0.8726 -1.6696
  848ANI     HC11867   3.439   2.203   4.067  3.1754 -0.7427  1.0369
  848ANI     HC11868   3.624   2.327   4.161 -1.3477  1.4029 -0.6748
  848ANI     HC11869   3.614   2.441   4.382  0.7945 -0.7050  0.1670
  848ANI     HC11870   3.408   2.406   4.525  0.4299 -1.3688  0.7178
  848ANI     HN11871   3.213   2.264   4.537  0.1867  0.5737 -0.0846
  848ANI     HN11872   3.132   2.226   4.402  1.2902  0.5014 -1.4383
  849ANI     CN11873   1.537   3.470   2.021 -0.2188 -0.0958 -0.1071
  849ANI     CH11874   1.402   3.482   2.054 -0.1383  0.2402  0.1088
  849ANI     CH11875   1.336   3.376   2.119  0.1930 -0.0396 -0.0103
  849ANI     CH11876   1.393   3.248   2.122  0.0800 -0.0756  0.7802
  849ANI     CH11877   1.522   3.236   2.069 -0.2391  0.1932 -0.0765
  849ANI     CH11878   1.599   3.344   2.025  0.2296  0.1436  0.6095
  849ANI     NH11879   1.603   3.571   1.963 -0.0663  0.0122  0.2491
  849ANI     HC11880   1.346   3.573   2.040 -2.5037 -1.5218 -2.5123
  849ANI     HC11881   1.231   3.380   2.145 -0.6596 -2.4108 -2.8251
  849ANI     HC11882   1.342   3.160   2.157 -0.5372 -0.1881 -0.3610
  849ANI     HC11883   1.576   3.144   2.051 -0.9353 -0.1460 -0.4796
  849ANI     HC11884   1.701   3.332   1.995 -0.2378 -1.5491 -0.3225
  849ANI     HN11885   1.572   3.654   2.012  0.9212 -0.2979  1.4018
  849ANI     HN11886   1.575   3.585   1.866 -0.1124  0.5320  0.3339
  850ANI     CN11887   3.151   4.693   5.475 -0.6860 -0.3686  0.4498
  850ANI     CH11888   3.262   4.775   5.449 -0.4167 -0.9804 -0.3322
  850ANI     CH11889   3.366   4.736   5.364 -0.0155  0.2391 -0.4141
  850ANI     CH11890   3.359   4.607   5.309 -0.0746  0.1272 -0.1477
  850ANI     CH11891   3.252   4.523   5.340 -0.1044  0.2002 -0.0499
  850ANI     CH11892   3.145   4.566   5.418 -0.0594 -0.3409  0.3097
  850ANI     NH11893   3.062   4.737   5.565 -1.1135 -0.0482 -0.1271
  850ANI     HC11894   3.274   4.866   5.506 -0.9528  0.6124 -2.6361
  850ANI     HC11895   3.442   4.809   5.340  0.8243 -0.8056 -0.9759
  850ANI     HC11896   3.442   4.559   5.259  2.5075  1.6964  2.4716
  850ANI     HC11897   3.251   4.423   5.299  1.4078 -0.1180  0.6707
  850ANI     HC11898   3.063   4.498   5.439 -2.0164  0.7918 -3.2293
  850ANI     HN11899   3.108   4.795   5.634  1.3104  1.2931 -2.7677
  850ANI     HN11900   3.027   4.657   5.616 -1.8631  0.3596  0.0069
  851ANI     CN11901   0.667   3.724   4.365 -0.0303 -0.5355  0.4694
  851ANI     CH11902   0.741   3.610   4.398  0.3809 -0.4284 -0.0741
  851ANI     CH11903   0.842   3.566   4.311  0.4715 -0.3254 -0.0203
  851ANI     CH11904   0.876   3.637   4.195  0.5942  0.2763  0.3808
  851ANI     CH11905   0.802   3.750   4.159  0.2256 -0.0717  0.0535
  851ANI     CH11906   0.702   3.792   4.247  0.0765 -0.9124  0.2844
  851ANI     NH11907   0.569   3.766   4.446  0.1014  0.5702  0.0654
  851ANI     HC11908   0.719   3.557   4.489  0.1576 -1.4047 -0.6896
  851ANI     HC11909   0.903   3.482   4.340 -0.1031 -0.4889  0.7245
  851ANI     HC11910   0.958   3.613   4.128  0.5833  1.0709  0.0814
  851ANI     HC11911   0.816   3.817   4.075  1.9970  0.1531  0.5037
  851ANI     HC11912   0.660   3.889   4.225 -1.8410 -1.4626  1.3292
  851ANI     HN11913   0.603   3.734   4.535  1.4207  1.8357  0.0400
  851ANI     HN11914   0.572   3.867   4.450  0.1870  0.5562  0.3905
  852ANI     CN11915   5.504   1.329   5.748 -0.2047  0.2891  0.1065
  852ANI     CH11916   5.539   1.457   5.793 -0.1578  0.1666  0.4187
  852ANI     CH11917   5.529   1.487   5.929  0.7123 -0.0276  0.5289
  852ANI     CH11918   5.477   1.391   6.017  0.2089 -0.1901  0.0561
  852ANI     CH11919   5.456   1.259   5.974  0.0268 -0.0617 -0.2507
  852ANI     CH11920   5.456   1.232   5.837  0.4066 -0.3028 -0.2020
  852ANI     NH11921   5.517   1.307   5.616  0.9637 -0.1950  0.2977
  852ANI     HC11922   5.573   1.537   5.729  2.4687 -1.5884 -0.4670
  852ANI     HC11923   5.549   1.586   5.966 -1.0448  0.7026 -0.4371
  852ANI     HC11924   5.469   1.405   6.124  0.8260 -0.4014  0.1312
  852ANI     HC11925   5.418   1.192   6.050 -1.6549  2.3263  1.1195
  852ANI     HC11926   5.434   1.132   5.803 -0.1678 -0.2563  0.0237
  852ANI     HN11927   5.581   1.377   5.583  2.0915 -1.2223  0.2735
  852ANI     HN11928   5.547   1.216   5.586  0.0672 -0.3377 -0.1776
  853ANI     CN11929   2.758   2.161   5.856  0.2443 -0.5480  0.1184
  853ANI     CH11930   2.745   2.112   5.986  0.3916 -0.4339  0.1751
  853ANI     CH11931   2.736   2.201   6.093  0.0689 -0.1387 -0.0974
  853ANI     CH11932   2.748   2.339   6.069  0.1355 -0.1123  0.0836
  853ANI     CH11933   2.765   2.392   5.940  0.3328  0.0813  0.1889
  853ANI     CH11934   2.768   2.299   5.835 -0.2632 -0.4333  0.6125
  853ANI     NH11935   2.782   2.076   5.755  0.0586  0.0935 -0.4704
  853ANI     HC11936   2.724   2.008   6.008 -0.4553 -0.6448 -1.5237
  853ANI     HC11937   2.735   2.164   6.194 -0.7462  0.8015  0.2488
  853ANI     HC11938   2.751   2.412   6.148 -0.0102 -0.9978  0.9140
  853ANI     HC11939   2.791   2.492   5.910  1.3852  0.0523  0.9982
  853ANI     HC11940   2.798   2.324   5.734  2.4057  1.5941  1.8436
  853ANI     HN11941   2.830   1.994   5.788 -1.7713 -0.3798  1.0688
  853ANI     HN11942   2.841   2.115   5.682  2.3290  1.6138  2.0834
  854ANI     CN11943   1.005   4.138   3.464  0.1219  0.5138 -0.5664
  854ANI     CH11944   1.055   4.133   3.595 -0.6663 -0.5283 -0.3060
  854ANI     CH11945   1.139   4.027   3.633 -0.0262  0.2342  0.3996
  854ANI     CH11946   1.169   3.926   3.542 -0.6390  0.1550  0.2854
  854ANI     CH11947   1.138   3.942   3.406 -0.5827 -0.0795  0.2456
  854ANI     CH11948   1.050   4.045   3.370 -0.3774 -0.0686 -0.2315
  854ANI     NH11949   0.921   4.231   3.417 -0.2588  0.3706 -0.1721
  854ANI     HC11950   1.030   4.214   3.661 -1.9785 -0.1628 -1.2271
  854ANI     HC11951   1.185   4.029   3.731 -1.9195 -1.5628  1.3551
  854ANI     HC11952   1.230   3.846   3.580 -1.1656 -0.1020  0.5832
  854ANI     HC11953   1.165   3.867   3.333  0.3792 -0.3461  0.8573
  854ANI     HC11954   1.024   4.057   3.266  0.8905 -0.9607 -0.6635
  854ANI     HN11955   0.896   4.288   3.496  1.3937  1.4385 -0.4028
  854ANI     HN11956   0.839   4.193   3.371 -0.6133 -0.2658  0.9541
  855ANI     CN11957   1.527   1.181   3.174  0.0944  0.2563  0.7776
  855ANI     CH11958   1.640   1.099   3.173 -0.2440 -0.2117  0.3110
  855ANI     CH11959   1.631   0.966   3.128  0.0145 -0.1142 -0.0258
  855ANI     CH11960   1.510   0.921   3.075 -0.0068 -0.1818  0.0803
  855ANI     CH11961   1.399   1.007   3.064  0.0084 -0.1140  0.4406
  855ANI     CH11962   1.406   1.135   3.120  0.5932  0.1705 -0.2737
  855ANI     NH11963   1.532   1.301   3.232 -0.8475  0.4416  0.4874
  855ANI     HC11964   1.735   1.139   3.207 -0.9680  0.4864  1.5610
  855ANI     HC11965   1.721   0.911   3.105  1.0658  0.4820  2.5176
  855ANI     HC11966   1.500   0.825   3.027  1.6411  0.2754 -1.2366
  855ANI     HC11967   1.310   0.971   3.013  1.1033 -0.1623 -1.5132
  855ANI     HC11968   1.325   1.202   3.095  0.5073 -0.0613 -0.6250
  855ANI     HN11969   1.447   1.332   3.278 -0.4714  2.0418  0.1268
  855ANI     HN11970   1.611   1.291   3.294  1.6719  4.3317 -1.8893
  856ANI     CN11971   4.945   3.155   2.789 -0.6392 -0.3870 -0.8445
  856ANI     CH11972   5.062   3.117   2.722 -0.3147  0.0123 -0.5088
  856ANI     CH11973   5.141   3.216   2.664  0.0819 -0.2226 -0.3699
  856ANI     CH11974   5.111   3.352   2.677  0.1741 -0.2618  0.2342
  856ANI     CH11975   5.004   3.389   2.759 -0.0120 -0.0800 -0.0914
  856ANI     CH11976   4.916   3.291   2.805  0.2209 -0.2857 -0.0848
  856ANI     NH11977   4.876   3.056   2.848 -0.1003 -0.3251 -0.1074
  856ANI     HC11978   5.085   3.012   2.707 -1.0856 -0.0523 -1.2884
  856ANI     HC11979   5.229   3.178   2.613 -0.5025 -1.9647 -0.1130
  856ANI     HC11980   5.186   3.427   2.654  0.2177 -0.4401 -0.1953
  856ANI     HC11981   4.997   3.492   2.792  0.5775 -0.8234  2.4301
  856ANI     HC11982   4.839   3.331   2.869 -1.7105 -1.6830 -1.4760
  856ANI     HN11983   4.838   2.988   2.784 -1.0890 -0.5642  0.7212
  856ANI     HN11984   4.796   3.098   2.892  1.7422  2.3435  0.8312
  857ANI     CN11985   2.256   0.693   1.344 -0.2741 -0.7952  0.2116
  857ANI     CH11986   2.337   0.585   1.382  0.5405 -0.4441 -0.5300
  857ANI     CH11987   2.412   0.591   1.500 -0.3300  0.3348 -0.0065
  857ANI     CH11988   2.405   0.703   1.584 -0.2109  0.4312 -0.1218
  857ANI     CH11989   2.320   0.808   1.547 -0.0894  0.3198 -0.7210
  857ANI     CH11990   2.247   0.805   1.428 -0.0311 -0.0495 -0.7468
  857ANI     NH11991   2.170   0.677   1.242  0.3515  0.2237 -0.4783
  857ANI     HC11992   2.350   0.506   1.309  0.4329 -1.4781  0.5575
  857ANI     HC11993   2.476   0.505   1.513 -1.6482 -0.6356  0.0666
  857ANI     HC11994   2.460   0.715   1.676 -0.6609  2.4694 -0.0965
  857ANI     HC11995   2.311   0.897   1.607 -0.4253  0.1497 -0.5205
  857ANI     HC11996   2.182   0.889   1.411  1.7186  1.2741 -1.0282
  857ANI     HN11997   2.166   0.771   1.205 -2.0531 -0.1153 -1.1324
  857ANI     HN11998   2.194   0.621   1.162 -1.0739 -1.4903  0.2470
  858ANI     CN11999   2.800   1.276   0.508 -0.3933 -0.0896  0.2701
  858ANI     CH12000   2.796   1.329   0.638  0.1106  0.4086  0.0867
  858ANI     CH12001   2.731   1.451   0.655 -0.4131  0.1915 -0.3426
  858ANI     CH12002   2.670   1.517   0.547 -0.7724  0.4119 -0.0067
  858ANI     CH12003   2.684   1.469   0.416  0.4052  0.2142  0.1795
  858ANI     CH12004   2.742   1.342   0.400  0.0674  0.0661  0.1154
  858ANI     NH12005   2.866   1.163   0.481 -0.5308 -0.1335  0.1199
  858ANI     HC12006   2.847   1.280   0.720  0.6776  0.1803 -0.4015
  858ANI     HC12007   2.723   1.489   0.756 -0.0714 -0.4520 -0.0729
  858ANI     HC12008   2.611   1.606   0.563 -1.3939 -0.3177  1.8908
  858ANI     HC12009   2.643   1.513   0.327  0.8144  1.0704  0.4121
  858ANI     HC12010   2.747   1.288   0.307 -2.2146  1.4235 -0.8439
  858ANI     HN12011   2.847   1.114   0.395 -0.7078 -2.6869  1.5442
  858ANI     HN12012   2.873   1.093   0.554  1.1950  0.3497  0.4533
  859ANI     CN12013   4.573   3.493   3.745 -1.0790 -0.1427 -0.6394
  859ANI     CH12014   4.479   3.534   3.840  0.2871 -0.0041  0.6874
  859ANI     CH12015   4.452   3.668   3.869 -0.4848  0.0544 -0.2659
  859ANI     CH12016   4.521   3.766   3.796  0.3224 -0.3628 -0.0742
  859ANI     CH12017   4.612   3.728   3.696  0.5562 -0.3523  0.1335
  859ANI     CH12018   4.645   3.593   3.678  0.1037 -0.4657  0.1299
  859ANI     NH12019   4.623   3.369   3.738  0.2599  0.3892 -0.7728
  859ANI     HC12020   4.427   3.452   3.889  0.7777 -0.5124  0.3640
  859ANI     HC12021   4.386   3.693   3.950 -2.6570 -1.1892 -1.6216
  859ANI     HC12022   4.495   3.869   3.812  1.0249 -0.5051  2.1141
  859ANI     HC12023   4.659   3.802   3.633 -0.9978 -0.8584 -1.6928
  859ANI     HC12024   4.719   3.554   3.611 -0.2114 -0.4061 -0.2540
  859ANI     HN12025   4.669   3.350   3.651 -0.8365 -3.4773 -0.6139
  859ANI     HN12026   4.553   3.297   3.744  1.7831 -1.2041 -1.7125
  860ANI     CN12027   0.902   3.002   2.984  0.2421  0.0001  0.6444
  860ANI     CH12028   0.768   2.970   3.009  0.1797  0.2882  0.6723
  860ANI     CH12029   0.730   2.835   3.011  0.0179  0.3147 -0.4311
  860ANI     CH12030   0.827   2.734   3.005 -0.0240  0.2770 -0.4672
  860ANI     CH12031   0.961   2.771   2.985  0.2060 -0.2462  0.0950
  860ANI     CH12032   1.002   2.905   2.972  0.0764 -0.1592  0.5468
  860ANI     NH12033   0.932   3.131   2.968  0.1613 -0.0268  0.2643
  860ANI     HC12034   0.704   3.057   3.017  1.7713  1.4824  0.5239
  860ANI     HC12035   0.627   2.807   3.024  0.4704 -2.0598 -1.6599
  860ANI     HC12036   0.791   2.636   3.029  0.5199  0.3341  0.6225
  860ANI     HC12037   1.035   2.694   2.972  1.0886  0.4907  0.6357
  860ANI     HC12038   1.105   2.931   2.956 -0.7934  2.4568 -1.1383
  860ANI     HN12039   0.860   3.195   2.998 -0.8579 -1.1350  0.2100
  860ANI     HN12040   1.022   3.162   3.003  0.3610 -2.5361  2.1177
  861ANI     CN12041   5.510   5.255   4.698 -0.6943  0.6711  0.1101
  861ANI     CH12042   5.531   5.218   4.831  0.4268 -0.4752 -0.3690
  861ANI     CH12043   5.592   5.308   4.918 -0.3638  0.0919 -0.3966
  861ANI     CH12044   5.647   5.425   4.864  0.1374 -0.0797 -0.2604
  861ANI     CH12045   5.621   5.464   4.732  0.1142  0.1326 -0.1942
  861ANI     CH12046   5.557   5.375   4.645  0.2382  0.1411 -0.2945
  861ANI     NH12047   5.442   5.174   4.615  0.1583 -0.0729  0.1131
  861ANI     HC12048   5.510   5.118   4.868 -2.1039  0.5251  1.0447
  861ANI     HC12049   5.614   5.301   5.024  0.0188  0.6257 -0.4363
  861ANI     HC12050   5.708   5.483   4.932 -0.1968  1.4109 -1.2074
  861ANI     HC12051   5.641   5.567   4.706  0.3667 -0.2801 -1.6482
  861ANI     HC12052   5.545   5.405   4.542 -1.4278 -1.2395 -0.5289
  861ANI     HN12053   5.380   5.214   4.546 -0.3632  0.6287  0.9634
  861ANI     HN12054   5.376   5.130   4.677  0.6058  2.6281  2.6570
  862ANI     CN12055   1.189   3.797   5.577 -0.2769 -0.1461  0.5862
  862ANI     CH12056   1.215   3.935   5.573 -0.3762 -0.1387  0.1639
  862ANI     CH12057   1.139   4.021   5.492 -0.2919 -0.0504  0.1788
  862ANI     CH12058   1.030   3.970   5.422 -0.4203 -0.2171  0.5000
  862ANI     CH12059   1.003   3.832   5.429 -0.3746 -0.2836 -0.6365
  862ANI     CH12060   1.080   3.745   5.507 -0.1623  0.4401 -0.0340
  862ANI     NH12061   1.267   3.708   5.640 -0.2748 -0.5123  0.0742
  862ANI     HC12062   1.299   3.977   5.626  0.2602 -0.9059 -0.2249
  862ANI     HC12063   1.159   4.126   5.479  2.6123 -0.5727  0.1045
  862ANI     HC12064   0.977   4.028   5.348 -1.4828 -0.8073  0.7792
  862ANI     HC12065   0.917   3.798   5.373 -1.5318  0.0453  0.9282
  862ANI     HC12066   1.053   3.642   5.488 -3.3857  1.1135  0.5905
  862ANI     HN12067   1.278   3.611   5.617  0.4569 -0.6382  0.9105
  862ANI     HN12068   1.360   3.736   5.668  0.1186  0.1702 -1.8445
  863ANI     CN12069   4.601   5.255   0.927  0.0076  0.7362  0.0230
  863ANI     CH12070   4.559   5.168   0.825 -0.0657  0.5774  0.1885
  863ANI     CH12071   4.467   5.204   0.727  0.2204  0.1024 -0.2566
  863ANI     CH12072   4.446   5.342   0.709  0.4457  0.1122 -0.4518
  863ANI     CH12073   4.489   5.428   0.810  0.2533  0.0231 -0.2948
  863ANI     CH12074   4.572   5.391   0.916 -0.3900  0.6905  0.4540
  863ANI     NH12075   4.667   5.218   1.038  0.1030 -0.2715 -0.3624
  863ANI     HC12076   4.577   5.062   0.824  0.9210  0.7512 -0.9633
  863ANI     HC12077   4.432   5.135   0.652 -0.5778  0.9982 -0.7268
  863ANI     HC12078   4.383   5.374   0.627 -1.5843 -1.1270  0.5826
  863ANI     HC12079   4.444   5.526   0.796  0.5236  0.4450  1.6273
  863ANI     HC12080   4.605   5.463   0.990  1.0237  0.9489 -0.3976
  863ANI     HN12081   4.630   5.276   1.112  0.3584  0.2076 -0.6072
  863ANI     HN12082   4.665   5.121   1.064  2.1506 -0.0469  0.7336
  864ANI     CN12083   3.378   0.385   1.837 -0.5343 -0.1424 -0.0212
  864ANI     CH12084   3.346   0.413   1.970  0.2278 -0.1216  0.1631
  864ANI     CH12085   3.366   0.536   2.033  0.4267 -0.1964  0.2460
  864ANI     CH12086   3.413   0.640   1.952 -0.0368  0.0653  0.3092
  864ANI     CH12087   3.437   0.616   1.816  0.3069 -0.3508  0.4416
  864ANI     CH12088   3.415   0.492   1.754 -0.9419  0.0582  0.0567
  864ANI     NH12089   3.354   0.266   1.780  0.5346 -0.1157 -0.5494
  864ANI     HC12090   3.299   0.335   2.028 -1.6338 -0.0277 -1.1627
  864ANI     HC12091   3.351   0.547   2.139  0.3962  1.4313  0.0821
  864ANI     HC12092   3.429   0.737   1.996  0.0553  0.0722  0.2625
  864ANI     HC12093   3.477   0.702   1.764  1.6206 -0.7476  0.7809
  864ANI     HC12094   3.422   0.478   1.647 -2.2405  1.4612 -0.2347
  864ANI     HN12095   3.398   0.282   1.690 -0.9380 -2.3694 -1.7071
  864ANI     HN12096   3.401   0.195   1.833 -0.6921 -0.7317 -0.2630
  865ANI     CN12097   5.662   4.586   1.463  0.2621 -0.0251  0.3240
  865ANI     CH12098   5.785   4.653   1.470  0.2887  0.0203 -0.5674
  865ANI     CH12099   5.878   4.622   1.570 -0.2245  0.1512 -0.0438
  865ANI     CH12100   5.851   4.520   1.662 -0.0594 -0.0178 -0.1802
  865ANI     CH12101   5.729   4.452   1.655 -0.0908 -0.0542  0.6481
  865ANI     CH12102   5.634   4.486   1.558  0.3446 -0.1916  0.1742
  865ANI     NH12103   5.566   4.622   1.378 -0.0357 -0.3474  0.5222
  865ANI     HC12104   5.809   4.735   1.404  0.6125  1.9659  1.8863
  865ANI     HC12105   5.977   4.662   1.589  1.6955 -2.7073 -3.2084
  865ANI     HC12106   5.928   4.494   1.733  0.1307  0.3986 -0.2336
  865ANI     HC12107   5.704   4.372   1.723 -1.2826  1.1346  1.6482
  865ANI     HC12108   5.547   4.423   1.545  1.7106 -1.5629 -2.9108
  865ANI     HN12109   5.470   4.599   1.402  0.1956  0.6610  2.4971
  865ANI     HN12110   5.574   4.719   1.352 -2.0377 -0.1166  0.6688
  866ANI     CN12111   1.683   0.402   6.055  0.4194 -0.4305 -0.0367
  866ANI     CH12112   1.776   0.476   5.981  0.1765 -0.0053  0.0828
  866ANI     CH12113   1.892   0.523   6.044  0.0703  0.1837  0.1368
  866ANI     CH12114   1.907   0.497   6.180 -0.0664  0.3439  0.1817
  866ANI     CH12115   1.817   0.422   6.256  0.2158 -0.0307  0.1485
  866ANI     CH12116   1.698   0.383   6.193 -0.0160  0.6417  0.1612
  866ANI     NH12117   1.580   0.344   5.992 -0.2071  0.4698  0.1522
  866ANI     HC12118   1.766   0.488   5.874  1.8094  0.5415 -0.0272
  866ANI     HC12119   1.964   0.584   5.990 -0.0445  0.2115  0.0147
  866ANI     HC12120   1.988   0.523   6.247 -0.7197 -1.6135  1.7628
  866ANI     HC12121   1.831   0.393   6.360 -0.5699 -1.6462 -0.1859
  866ANI     HC12122   1.633   0.322   6.254  0.3261 -0.9333 -1.0182
  866ANI     HN12123   1.547   0.410   5.924  2.4666  1.7623  0.0301
  866ANI     HN12124   1.514   0.338   6.068  0.7135  1.8595  1.0940
  867ANI     CN12125   3.262   2.046   2.709  0.1540 -0.0334  0.0635
  867ANI     CH12126   3.163   2.070   2.805  0.1831  0.0289  0.0778
  867ANI     CH12127   3.122   1.970   2.894  0.1884  0.2768  0.3582
  867ANI     CH12128   3.188   1.847   2.889  1.0735  0.7506  0.2067
  867ANI     CH12129   3.298   1.827   2.804  0.8149  0.0936  0.0209
  867ANI     CH12130   3.329   1.923   2.707  0.3871  0.0974 -0.1162
  867ANI     NH12131   3.283   2.136   2.612 -0.9184  0.0885 -0.0625
  867ANI     HC12132   3.115   2.166   2.798 -1.7386 -0.7705  1.7122
  867ANI     HC12133   3.035   1.987   2.955 -0.2733 -0.0197 -0.2167
  867ANI     HC12134   3.165   1.764   2.954  0.6368  1.5833  1.1169
  867ANI     HC12135   3.361   1.740   2.808  1.8943  0.7787 -1.6777
  867ANI     HC12136   3.411   1.897   2.642  2.3957  1.3287  1.8381
  867ANI     HN12137   3.323   2.097   2.528 -3.1326 -0.4702 -0.8822
  867ANI     HN12138   3.198   2.175   2.574 -0.9933 -0.5905 -0.5928
  868ANI     CN12139   6.194   1.504   4.649  0.3618  0.2537  0.0444
  868ANI     CH12140   6.166   1.514   4.513  0.3929  0.2752  0.0395
  868ANI     CH12141   6.133   1.636   4.452  0.3911  0.1778 -0.1565
  868ANI     CH12142   6.125   1.750   4.534 -0.3731  0.1210 -0.1498
  868ANI     CH12143   6.142   1.742   4.673 -0.9136 -0.4957 -0.1185
  868ANI     CH12144   6.179   1.619   4.728 -0.5901 -0.1445  0.4475
  868ANI     NH12145   6.250   1.392   4.697  0.4233  0.3132  0.1139
  868ANI     HC12146   6.169   1.425   4.452 -2.7603 -0.1632  0.4219
  868ANI     HC12147   6.114   1.646   4.346 -1.7573  0.0674  0.1932
  868ANI     HC12148   6.087   1.844   4.497  2.3285  1.6923  0.9090
  868ANI     HC12149   6.124   1.831   4.731  1.7925  0.6868 -1.0210
  868ANI     HC12150   6.211   1.613   4.831 -0.6553 -0.7798  0.4353
  868ANI     HN12151   6.293   1.405   4.787  1.5021  0.9956 -0.4918
  868ANI     HN12152   6.320   1.363   4.630  1.5536 -0.4784  1.6133
  869ANI     CN12153   2.390   1.344   3.706 -0.2836  0.2045  0.4518
  869ANI     CH12154   2.404   1.460   3.629 -0.8554  0.1752  0.3021
  869ANI     CH12155   2.361   1.455   3.496 -0.0976 -0.0709  0.0679
  869ANI     CH12156   2.316   1.333   3.444 -0.3007 -0.0410  0.1738
  869ANI     CH12157   2.305   1.215   3.518 -0.1597 -0.0909  0.1149
  869ANI     CH12158   2.338   1.225   3.653 -0.3085  0.3627  0.1175
  869ANI     NH12159   2.406   1.351   3.839  1.1196  0.1297  0.2982
  869ANI     HC12160   2.441   1.551   3.674  0.6935 -0.2708 -0.0472
  869ANI     HC12161   2.372   1.544   3.435  1.8902 -0.8595 -0.7905
  869ANI     HC12162   2.295   1.326   3.338  0.4755  1.9763 -0.1352
  869ANI     HC12163   2.269   1.127   3.467  1.0949 -0.3500 -0.3555
  869ANI     HC12164   2.330   1.142   3.721 -0.8762  2.2460  2.4360
  869ANI     HN12165   2.480   1.417   3.852  0.1916  2.1219 -3.5910
  869ANI     HN12166   2.426   1.263   3.884 -1.0282 -0.5220  0.0726
  870ANI     CN12167   0.319   5.380   2.388 -0.0524  0.0286  0.1536
  870ANI     CH12168   0.357   5.514   2.391 -0.0035  0.0168  0.0552
  870ANI     CH12169   0.310   5.601   2.291 -0.0854 -0.0646  0.0235
  870ANI     CH12170   0.228   5.554   2.188 -0.1309  0.1918 -0.0568
  870ANI     CH12171   0.200   5.417   2.180  0.0234  0.1453  0.1868
  870ANI     CH12172   0.241   5.332   2.283  0.2296 -0.0221 -0.0333
  870ANI     NH12173   0.359   5.295   2.485  0.3397  0.1684  0.1157
  870ANI     HC12174   0.423   5.553   2.467 -0.6460 -0.5208  0.8992
  870ANI     HC12175   0.341   5.704   2.288  0.1386 -0.1577 -1.1014
  870ANI     HC12176   0.209   5.622   2.106  2.2479 -0.4340 -1.1797
  870ANI     HC12177   0.136   5.384   2.099 -1.0644 -0.9153  1.4451
  870ANI     HC12178   0.209   5.229   2.273 -0.2534  0.1655 -0.4859
  870ANI     HN12179   0.440   5.321   2.538 -0.1332  0.1950  0.8327
  870ANI     HN12180   0.370   5.200   2.455 -1.7871 -0.6180  1.7075
  871ANI     CN12181   4.346   1.241   2.392  0.2403 -0.2772  0.3079
  871ANI     CH12182   4.350   1.102   2.378  0.0858 -0.3047  0.5449
  871ANI     CH12183   4.233   1.032   2.345  0.0177 -0.3731  0.9384
  871ANI     CH12184   4.112   1.101   2.335  0.2415 -0.1268 -0.0902
  871ANI     CH12185   4.113   1.241   2.332  0.4742 -0.1258  0.0020
  871ANI     CH12186   4.227   1.312   2.374  0.2939 -0.1351  0.5040
  871ANI     NH12187   4.458   1.314   2.408  0.2185 -0.0213 -0.6577
  871ANI     HC12188   4.442   1.045   2.374  0.7175  0.6777  0.9292
  871ANI     HC12189   4.235   0.924   2.333 -0.3047 -0.4342  1.4081
  871ANI     HC12190   4.023   1.047   2.310  0.6270 -0.9654  0.3310
  871ANI     HC12191   4.021   1.294   2.311 -0.9640 -1.5177  2.6613
  871ANI     HC12192   4.217   1.418   2.392  0.6899 -0.0289  0.1082
  871ANI     HN12193   4.442   1.414   2.409  1.6149  0.2175 -0.3658
  871ANI     HN12194   4.490   1.306   2.503 -2.4524  3.4171  0.6000
  872ANI     CN12195   4.197   0.376   3.447  0.0263  0.0247  0.0193
  872ANI     CH12196   4.202   0.393   3.308  0.0563  0.1934  0.0399
  872ANI     CH12197   4.286   0.485   3.245 -0.2359  0.2579 -0.2595
  872ANI     CH12198   4.360   0.573   3.325  0.0422 -0.3367  0.1443
  872ANI     CH12199   4.349   0.559   3.464 -0.2540 -0.5760  0.0978
  872ANI     CH12200   4.273   0.461   3.528 -0.0873 -0.3983  0.5682
  872ANI     NH12201   4.115   0.281   3.493  0.6843 -0.2873  0.5577
  872ANI     HC12202   4.128   0.336   3.253 -1.3511  2.9015 -0.9626
  872ANI     HC12203   4.282   0.504   3.139 -1.7629  0.0200 -0.2568
  872ANI     HC12204   4.424   0.643   3.273  0.7767  1.6906  3.6371
  872ANI     HC12205   4.391   0.627   3.536 -2.8843  1.1194  0.0805
  872ANI     HC12206   4.268   0.445   3.635 -0.5760 -0.8732  0.4766
  872ANI     HN12207   4.021   0.288   3.456  2.0848  3.5490 -2.5846
  872ANI     HN12208   4.093   0.282   3.591  1.0239  0.1799  0.6258
  873ANI     CN12209   1.270   1.668   4.374  0.0224  0.6412  0.0678
  873ANI     CH12210   1.165   1.725   4.448 -0.0547  0.2040  0.2967
  873ANI     CH12211   1.121   1.854   4.417  0.7326  0.3373 -0.2949
  873ANI     CH12212   1.166   1.912   4.298  0.4795  0.8601 -0.1395
  873ANI     CH12213   1.268   1.855   4.220  0.3954  0.2777  0.1760
  873ANI     CH12214   1.316   1.728   4.256  0.8886  0.5097  0.3373
  873ANI     NH12215   1.321   1.555   4.424 -0.2931  0.1786 -0.6446
  873ANI     HC12216   1.133   1.671   4.536  1.1509 -2.2182 -0.6821
  873ANI     HC12217   1.041   1.900   4.474  1.6613  0.1642  1.1716
  873ANI     HC12218   1.124   2.008   4.272 -2.3220 -0.4368 -0.5441
  873ANI     HC12219   1.308   1.901   4.131  1.1618 -0.4929  0.1105
  873ANI     HC12220   1.405   1.695   4.205 -0.4673 -0.7894 -1.2671
  873ANI     HN12221   1.281   1.536   4.515  2.5734 -1.2234  0.3728
  873ANI     HN12222   1.421   1.566   4.435  0.1745 -3.9105  0.2415
  874ANI     CN12223   5.887   2.486   5.284 -0.0759 -0.1479 -0.0027
  874ANI     CH12224   5.772   2.469   5.363 -0.2987  0.0293 -0.2891
  874ANI     CH12225   5.755   2.359   5.449  0.1966  0.0285 -0.1907
  874ANI     CH12226   5.860   2.267   5.462 -0.0853 -0.3186 -0.3679
  874ANI     CH12227   5.976   2.289   5.388  0.0582  0.3892  0.0593
  874ANI     CH12228   5.995   2.399   5.303  0.3675  0.4372  0.1863
  874ANI     NH12229   5.894   2.590   5.201 -0.1928 -0.2188 -0.1016
  874ANI     HC12230   5.694   2.542   5.349  0.8801  1.0153 -1.9338
  874ANI     HC12231   5.666   2.351   5.510  1.2293 -0.2929  1.2770
  874ANI     HC12232   5.834   2.180   5.519  0.3914  0.1710  0.5989
  874ANI     HC12233   6.054   2.215   5.400 -0.2291  0.2343  0.9579
  874ANI     HC12234   6.090   2.422   5.257 -0.3537  1.3422 -0.8944
  874ANI     HN12235   5.970   2.588   5.134  0.9468  1.5188  1.1026
  874ANI     HN12236   5.818   2.608   5.137  1.3594  0.3539 -1.8397
  875ANI     CN12237   5.472   5.396   5.353  0.0735  0.0285 -0.3300
  875ANI     CH12238   5.571   5.302   5.383 -0.1656 -0.1657 -0.1423
  875ANI     CH12239   5.702   5.319   5.338 -0.3117  0.0349 -0.4898
  875ANI     CH12240   5.743   5.430   5.263 -0.0935 -0.2838 -0.8424
  875ANI     CH12241   5.642   5.523   5.235  0.2102  0.3346  0.1240
  875ANI     CH12242   5.509   5.505   5.273  0.0988 -0.0927 -0.4826
  875ANI     NH12243   5.357   5.395   5.423  0.2013 -0.8071 -0.1236
  875ANI     HC12244   5.548   5.218   5.447  2.3331 -0.5456  0.2963
  875ANI     HC12245   5.778   5.246   5.364  0.2433  1.0893  0.9391
  875ANI     HC12246   5.843   5.448   5.226  0.0339 -0.9887 -0.8422
  875ANI     HC12247   5.669   5.606   5.171  2.9836 -0.6190 -0.0145
  875ANI     HC12248   5.424   5.563   5.239 -0.6337 -0.2800  0.9509
  875ANI     HN12249   5.376   5.359   5.515  0.3957 -2.0220 -0.6377
  875ANI     HN12250   5.297   5.476   5.433 -0.0348 -0.8755 -0.9466
  876ANI     CN12251   2.678   2.452   3.185  0.1875 -0.0196 -0.4112
  876ANI     CH12252   2.791   2.370   3.187  0.1137 -0.1035  0.3367
  876ANI     CH12253   2.919   2.427   3.199 -0.1840  0.6769 -0.1893
  876ANI     CH12254   2.930   2.566   3.199  0.9641  0.5889 -0.5726
  876ANI     CH12255   2.818   2.649   3.183  0.1630 -0.4389 -0.2873
  876ANI     CH12256   2.691   2.591   3.172 -0.1700  0.1117  0.6253
  876ANI     NH12257   2.552   2.405   3.180  0.1564 -0.0038  0.2046
  876ANI     HC12258   2.776   2.263   3.186 -2.0252  0.1356  2.4786
  876ANI     HC12259   2.995   2.350   3.197 -1.6121 -0.7791  0.5238
  876ANI     HC12260   3.031   2.602   3.189  0.7425  1.8632  1.4102
  876ANI     HC12261   2.831   2.754   3.164 -3.2420  0.3561  1.3632
  876ANI     HC12262   2.597   2.640   3.153  0.2564  0.5616 -0.3082
  876ANI     HN12263   2.491   2.459   3.120 -1.8493  0.0374  2.2025
  876ANI     HN12264   2.539   2.312   3.143 -1.7632  0.9236 -1.5806
  877ANI     CN12265   0.054   3.326   5.713  0.2651 -0.3954  0.7087
  877ANI     CH12266   0.140   3.415   5.778  0.6828 -0.3079  0.0365
  877ANI     CH12267   0.278   3.419   5.754  0.5373  0.5406 -0.6961
  877ANI     CH12268   0.331   3.332   5.658  0.2386 -0.7191  0.2604
  877ANI     CH12269   0.245   3.245   5.590 -0.0587  0.0554 -0.3759
  877ANI     CH12270   0.109   3.233   5.624  0.1420 -0.1417  0.3653
  877ANI     NH12271  -0.076   3.317   5.744  0.0915 -0.4678 -0.0316
  877ANI     HC12272   0.096   3.476   5.855 -0.8557  0.5760 -1.4942
  877ANI     HC12273   0.346   3.479   5.812 -1.8256  1.9417  0.6870
  877ANI     HC12274   0.437   3.323   5.644  0.1350 -1.0021 -0.3763
  877ANI     HC12275   0.288   3.169   5.527 -0.1494 -1.6565  1.5562
  877ANI     HC12276   0.052   3.153   5.580 -0.3376  1.0199 -1.1709
  877ANI     HN12277  -0.134   3.304   5.662 -0.0901  0.2141 -0.0129
  877ANI     HN12278  -0.105   3.405   5.786  0.0623  0.3029 -1.6117
  878ANI     CN12279   2.944   3.484   1.532 -0.3885 -0.1203 -0.0826
  878ANI     CH12280   2.988   3.481   1.399 -0.3228  0.7772 -0.0825
  878ANI     CH12281   2.923   3.401   1.305 -0.3896  0.5202  0.1807
  878ANI     CH12282   2.831   3.306   1.351  0.3200 -0.3694 -0.2280
  878ANI     CH12283   2.800   3.296   1.487 -0.1184  0.8989 -0.2241
  878ANI     CH12284   2.847   3.393   1.576 -1.0524  0.8032  0.3795
  878ANI     NH12285   3.001   3.575   1.612 -0.1562  0.1569 -0.5597
  878ANI     HC12286   3.061   3.552   1.363 -1.2116  1.2107 -1.0570
  878ANI     HC12287   2.950   3.395   1.200  3.0657  1.8394  0.9307
  878ANI     HC12288   2.776   3.248   1.278  1.9876 -0.2221 -1.6259
  878ANI     HC12289   2.727   3.227   1.527 -0.0160  2.9669  3.7550
  878ANI     HC12290   2.814   3.394   1.679  1.6846 -1.0237  1.3194
  878ANI     HN12291   2.995   3.673   1.590  1.3273  0.0369 -1.5659
  878ANI     HN12292   2.967   3.560   1.706 -0.6930 -1.4603 -0.9964
  879ANI     CN12293   5.293   1.536   0.226  0.0712  0.0945 -0.0490
  879ANI     CH12294   5.240   1.411   0.194 -0.0248  0.1253 -0.0108
  879ANI     CH12295   5.327   1.316   0.138 -0.1906 -0.2834  0.4231
  879ANI     CH12296   5.459   1.351   0.105 -0.4200  0.0121 -0.1851
  879ANI     CH12297   5.513   1.472   0.149 -0.4912  0.1671 -0.5233
  879ANI     CH12298   5.428   1.569   0.202  0.0682  0.2796  0.1787
  879ANI     NH12299   5.207   1.628   0.271  0.0333 -0.0298  0.1311
  879ANI     HC12300   5.136   1.389   0.212  0.5487 -0.7609  2.3173
  879ANI     HC12301   5.296   1.215   0.118  0.5466 -0.7480  1.5413
  879ANI     HC12302   5.517   1.269   0.065  0.2825  2.0329 -3.5261
  879ANI     HC12303   5.615   1.498   0.125  0.0838  0.3710  2.0093
  879ANI     HC12304   5.475   1.666   0.204  0.7268 -0.0568  1.4809
  879ANI     HN12305   5.230   1.690   0.348  2.4455 -1.9567  1.0057
  879ANI     HN12306   5.114   1.592   0.289 -0.1941  0.1314 -0.7260
  880ANI     CN12307   5.549   6.115   1.576  0.4647 -0.3284  0.1695
  880ANI     CH12308   5.433   6.167   1.518  0.7676  0.1725  0.0122
  880ANI     CH12309   5.309   6.115   1.557  0.6304  0.5039  0.0224
  880ANI     CH12310   5.301   6.015   1.655  0.5241  0.4731 -0.0182
  880ANI     CH12311   5.418   5.969   1.715  0.2606 -0.0931  0.0706
  880ANI     CH12312   5.544   6.018   1.677  0.3534 -0.0175  0.4668
  880ANI     NH12313   5.665   6.172   1.541 -0.0423  0.3940 -0.3396
  880ANI     HC12314   5.436   6.245   1.443  1.5781  1.1068  0.9996
  880ANI     HC12315   5.218   6.155   1.515 -0.1766 -1.5253 -0.2210
  880ANI     HC12316   5.205   5.976   1.688  0.5767  1.9795  1.9897
  880ANI     HC12317   5.396   5.901   1.796 -1.1332 -0.3485 -0.5171
  880ANI     HC12318   5.630   5.976   1.727  0.2168  0.2331  0.9153
  880ANI     HN12319   5.652   6.271   1.521  0.8368  0.6712  0.4581
  880ANI     HN12320   5.739   6.170   1.610  0.5829 -2.1843 -1.0517
  881ANI     CN12321   4.921   3.710   5.091  0.4859 -0.1850  0.3762
  881ANI     CH12322   4.783   3.692   5.106  0.3834  0.2987  0.0181
  881ANI     CH12323   4.734   3.605   5.205 -0.1755  0.4343 -0.1410
  881ANI     CH12324   4.821   3.528   5.282  0.2404  0.6676 -0.3691
  881ANI     CH12325   4.958   3.544   5.262  0.3437 -0.1757 -0.3769
  881ANI     CH12326   5.010   3.638   5.173  0.8848 -0.1082  0.0069
  881ANI     NH12327   4.973   3.807   5.014 -0.2738  0.1303  0.2653
  881ANI     HC12328   4.715   3.753   5.049 -1.4061 -0.7699  0.9551
  881ANI     HC12329   4.627   3.594   5.201  0.0003 -0.9592 -1.6469
  881ANI     HC12330   4.780   3.472   5.365  1.6458 -0.2023 -0.2518
  881ANI     HC12331   5.027   3.486   5.321 -0.2526 -1.0306 -0.5159
  881ANI     HC12332   5.117   3.655   5.168  0.6735  1.5371  0.6986
  881ANI     HN12333   4.924   3.823   4.927  0.1872  0.4147  0.0613
  881ANI     HN12334   5.073   3.808   5.004 -0.3669 -0.0595 -0.7435
  882ANI     CN12335   0.352   1.825   1.340 -0.2675  0.0391  0.1143
  882ANI     CH12336   0.250   1.777   1.257  0.0078 -0.2145 -0.0763
  882ANI     CH12337   0.248   1.803   1.119 -0.1582 -0.6249 -0.1525
  882ANI     CH12338   0.348   1.881   1.060 -0.3229 -0.1215  0.2311
  882ANI     CH12339   0.455   1.919   1.142  0.1909  0.0683 -0.5308
  882ANI     CH12340   0.458   1.892   1.279 -0.7327  0.2508 -0.4716
  882ANI     NH12341   0.353   1.792   1.470 -0.1647  0.0785  0.1236
  882ANI     HC12342   0.168   1.722   1.301  0.2805  0.1151  0.8508
  882ANI     HC12343   0.174   1.754   1.057 -1.8025  1.7806 -0.1513
  882ANI     HC12344   0.323   1.906   0.959  0.1418  0.8110  0.3418
  882ANI     HC12345   0.535   1.975   1.096 -0.3324  2.0997  0.9466
  882ANI     HC12346   0.543   1.921   1.340 -1.3705 -0.8828  0.9989
  882ANI     HN12347   0.275   1.744   1.512 -1.1222  0.9938 -0.6096
  882ANI     HN12348   0.435   1.809   1.527 -0.2972 -0.7055  0.5595
  883ANI     CN12349   1.432   1.907   3.344 -0.8985 -0.8069 -0.1343
  883ANI     CH12350   1.421   1.961   3.216 -0.0342 -0.1422  0.0694
  883ANI     CH12351   1.360   2.087   3.206  0.5735  0.1201 -0.3877
  883ANI     CH12352   1.309   2.154   3.318  0.1932 -0.5748 -0.1374
  883ANI     CH12353   1.328   2.097   3.444  0.1082  0.2342  0.2482
  883ANI     CH12354   1.394   1.975   3.461  0.7054  0.4712 -0.3367
  883ANI     NH12355   1.472   1.780   3.350 -0.1809 -0.5806 -0.0920
  883ANI     HC12356   1.434   1.911   3.121  2.0924  0.8529 -0.2046
  883ANI     HC12357   1.343   2.131   3.109 -3.6545 -1.8717 -0.6611
  883ANI     HC12358   1.278   2.257   3.305  0.1535 -0.8234 -2.2429
  883ANI     HC12359   1.283   2.152   3.525 -2.1638  0.1585 -0.9145
  883ANI     HC12360   1.411   1.920   3.553  0.9777 -2.0612 -1.8336
  883ANI     HN12361   1.533   1.741   3.280 -0.2144 -2.4687  0.8843
  883ANI     HN12362   1.491   1.737   3.440 -2.6080 -1.1653  0.1911
  884ANI     CN12363   0.439   2.620   0.726 -0.0833  0.4191 -0.3537
  884ANI     CH12364   0.577   2.622   0.706  0.0457  0.6722  0.5392
  884ANI     CH12365   0.669   2.656   0.807  0.0082  1.2519  0.3776
  884ANI     CH12366   0.617   2.664   0.937  0.1703  0.4626  0.4912
  884ANI     CH12367   0.480   2.649   0.962  0.1252 -0.3973 -0.2479
  884ANI     CH12368   0.389   2.630   0.857  0.0582  0.0699 -0.2731
  884ANI     NH12369   0.347   2.601   0.630 -0.4863 -0.5238  0.2155
  884ANI     HC12370   0.617   2.589   0.612 -0.9370 -1.3432  0.7910
  884ANI     HC12371   0.776   2.664   0.797 -0.0236 -0.2111 -1.3759
  884ANI     HC12372   0.677   2.680   1.025 -0.7871 -1.4804  1.5436
  884ANI     HC12373   0.455   2.673   1.064  2.6398  1.3885  0.0081
  884ANI     HC12374   0.284   2.621   0.878  0.0469 -0.3870 -0.5192
  884ANI     HN12375   0.387   2.566   0.544  0.9712  0.0182  0.6473
  884ANI     HN12376   0.270   2.539   0.651 -1.4605  0.8953  0.8243
  885ANI     CN12377   2.878   3.042   0.990  0.1707 -0.5932 -0.2126
  885ANI     CH12378   2.983   3.135   0.984 -0.5144  0.2077  0.0658
  885ANI     CH12379   2.957   3.270   0.958 -0.5837  0.1709 -0.0607
  885ANI     CH12380   2.825   3.308   0.934 -0.6367  0.3034  0.4242
  885ANI     CH12381   2.714   3.222   0.940 -0.1632 -0.3418  0.0155
  885ANI     CH12382   2.748   3.089   0.964  0.1678 -0.1571  0.5819
  885ANI     NH12383   2.903   2.914   1.018  0.3250 -0.6349 -0.5386
  885ANI     HC12384   3.087   3.106   0.989 -0.6689 -0.2903  0.4419
  885ANI     HC12385   3.044   3.333   0.942  0.3652 -0.7937  1.1662
  885ANI     HC12386   2.800   3.407   0.898 -0.6571  0.9881  2.3080
  885ANI     HC12387   2.612   3.252   0.921 -0.0962 -0.1393 -0.0334
  885ANI     HC12388   2.660   3.028   0.951  0.6810 -0.5407 -1.2956
  885ANI     HN12389   2.991   2.931   1.065 -0.2991  1.5024 -0.1130
  885ANI     HN12390   2.837   2.876   1.084 -0.2574  2.6167  0.8488
  886ANI     CN12391   1.716   6.270   5.907  0.4860  0.2832  0.0203
  886ANI     CH12392   1.828   6.341   5.951  0.4413 -0.0721  0.7219
  886ANI     CH12393   1.940   6.326   5.868  0.0240 -0.4080  0.2255
  886ANI     CH12394   1.944   6.236   5.760 -0.0329  0.2645 -0.3372
  886ANI     CH12395   1.828   6.169   5.721  0.0726 -0.1152  0.0016
  886ANI     CH12396   1.712   6.180   5.800  0.2607  0.0023  0.2606
  886ANI     NH12397   1.600   6.290   5.971  0.3345  0.1493 -0.2142
  886ANI     HC12398   1.823   6.407   6.036  0.3470  0.8211  0.0303
  886ANI     HC12399   2.028   6.376   5.904 -0.0791 -3.0473  4.5091
  886ANI     HC12400   2.036   6.226   5.704  1.5217 -1.5590  2.4520
  886ANI     HC12401   1.835   6.086   5.653 -0.8533 -0.2404  0.0477
  886ANI     HC12402   1.621   6.125   5.784  0.5470 -0.9101  1.7418
  886ANI     HN12403   1.519   6.265   5.916  1.4060 -1.8534 -0.9225
  886ANI     HN12404   1.596   6.387   6.001  2.3141  0.5295 -1.0948
  887ANI     CN12405   4.175   0.358   0.499  0.0028 -0.2326  0.2830
  887ANI     CH12406   4.180   0.257   0.402  0.0648 -0.2315  0.2849
  887ANI     CH12407   4.304   0.210   0.356  0.0732 -0.1857  0.2603
  887ANI     CH12408   4.422   0.254   0.416  0.0812  0.0018  0.1084
  887ANI     CH12409   4.416   0.349   0.519  0.1274 -0.1034  0.2083
  887ANI     CH12410   4.294   0.408   0.553  0.0462 -0.2872  0.2372
  887ANI     NH12411   4.056   0.402   0.540  0.2944  0.8459  0.0055
  887ANI     HC12412   4.087   0.217   0.365 -0.0096 -0.9408  1.2152
  887ANI     HC12413   4.307   0.141   0.273 -0.5627 -0.4051  0.4126
  887ANI     HC12414   4.518   0.211   0.390  0.2219 -0.7162  1.7466
  887ANI     HC12415   4.505   0.388   0.567 -0.7566  3.3354 -0.8422
  887ANI     HC12416   4.281   0.478   0.634 -1.0325  2.1824 -1.9770
  887ANI     HN12417   4.059   0.500   0.563  1.3971  0.6858  0.5439
  887ANI     HN12418   3.976   0.368   0.488  0.8018  0.5669 -0.6006
  888ANI     CN12419   4.490   0.596   2.227  0.7800  0.6861 -0.0375
  888ANI     CH12420   4.543   0.583   2.098 -0.1960 -0.0784 -0.3648
  888ANI     CH12421   4.488   0.656   1.992 -0.1552 -0.0420 -0.3606
  888ANI     CH12422   4.385   0.747   2.018 -0.0194 -0.0592  0.2279
  888ANI     CH12423   4.328   0.757   2.146 -0.0370 -0.3665  0.2431
  888ANI     CH12424   4.376   0.673   2.248 -0.1180 -0.6519  0.0472
  888ANI     NH12425   4.547   0.540   2.335 -0.1006  0.3553  0.2626
  888ANI     HC12426   4.621   0.511   2.082 -2.7132 -2.7390 -1.2232
  888ANI     HC12427   4.515   0.640   1.888 -0.6154 -0.7990 -0.3641
  888ANI     HC12428   4.351   0.819   1.945  1.4609  2.2376  1.7288
  888ANI     HC12429   4.243   0.823   2.153  0.9219  0.9459 -0.4258
  888ANI     HC12430   4.328   0.679   2.345  1.1514  0.6295  0.6169
  888ANI     HN12431   4.496   0.557   2.420 -1.1595  0.0715 -0.3080
  888ANI     HN12432   4.551   0.440   2.323  2.1581  0.4022  0.3514
  889ANI     CN12433   4.753   3.243   4.855  0.3880 -0.2071  0.8682
  889ANI     CH12434   4.644   3.202   4.933 -0.1427  0.1377  0.3118
  889ANI     CH12435   4.553   3.302   4.972 -0.4373 -0.2322  0.5706
  889ANI     CH12436   4.566   3.437   4.937 -0.2322 -0.4284 -0.1167
  889ANI     CH12437   4.673   3.473   4.855 -0.1022  0.0439  0.2579
  889ANI     CH12438   4.770   3.377   4.821 -0.2632 -0.2110  0.5097
  889ANI     NH12439   4.840   3.148   4.818  0.1575 -0.0010 -0.2040
  889ANI     HC12440   4.626   3.098   4.956  0.5629  0.0730  0.6011
  889ANI     HC12441   4.468   3.271   5.031 -0.8828  0.4605  0.2929
  889ANI     HC12442   4.498   3.506   4.986 -1.2852  0.3388 -2.6046
  889ANI     HC12443   4.692   3.577   4.833  2.7313 -0.4813  0.0122
  889ANI     HC12444   4.850   3.412   4.757 -1.4734 -0.8401 -1.4036
  889ANI     HN12445   4.851   3.136   4.718 -0.7993  0.3334 -0.3536
  889ANI     HN12446   4.934   3.179   4.837  0.1249 -1.1234  1.9118
  890ANI     CN12447   5.499   4.630   3.547  0.5048  0.0005 -0.6605
  890ANI     CH12448   5.445   4.744   3.486  0.0911  0.4706  0.5875
  890ANI     CH12449   5.308   4.747   3.454  0.1471  0.2203  0.3272
  890ANI     CH12450   5.225   4.639   3.486 -0.1063  0.2719 -0.1671
  890ANI     CH12451   5.280   4.524   3.543  0.1799  0.1109 -0.7618
  890ANI     CH12452   5.419   4.516   3.564  0.0945  0.3721 -0.0763
  890ANI     NH12453   5.630   4.633   3.571  0.4991  0.1833 -0.6595
  890ANI     HC12454   5.508   4.829   3.466  2.2391 -1.1925  0.1079
  890ANI     HC12455   5.267   4.836   3.411  0.9672  0.5169  0.1443
  890ANI     HC12456   5.121   4.653   3.462 -0.4498  0.9807  1.6403
  890ANI     HC12457   5.220   4.436   3.562 -1.2328  1.3641  0.6345
  890ANI     HC12458   5.468   4.426   3.598  2.9457  1.8296 -0.2595
  890ANI     HN12459   5.690   4.691   3.513 -0.0389  1.2224 -0.2040
  890ANI     HN12460   5.671   4.547   3.604  1.4342  0.3341 -1.3880
  891ANI     CN12461   6.100   2.221   4.951 -0.5696 -0.0228 -0.3424
  891ANI     CH12462   6.098   2.163   4.823 -0.1957  0.1211 -0.4108
  891ANI     CH12463   6.199   2.075   4.781  0.2189  0.4187 -0.0448
  891ANI     CH12464   6.302   2.046   4.871 -0.5745 -0.2617  0.6552
  891ANI     CH12465   6.306   2.103   4.999 -0.3205  0.2629  0.4133
  891ANI     CH12466   6.204   2.190   5.039 -0.4072  0.5135 -0.3455
  891ANI     NH12467   5.995   2.294   4.990 -0.4962 -0.0448 -0.1036
  891ANI     HC12468   6.017   2.182   4.754  0.2905  1.0316 -0.7512
  891ANI     HC12469   6.201   2.032   4.682  1.2266  1.7379 -0.6105
  891ANI     HC12470   6.388   1.986   4.845  1.0015  1.4636  1.7211
  891ANI     HC12471   6.382   2.090   5.075  0.1437  3.1394  0.5177
  891ANI     HC12472   6.216   2.232   5.138  0.3008  0.5459 -0.4444
  891ANI     HN12473   5.901   2.258   4.979 -1.2514  1.6926  0.4076
  891ANI     HN12474   6.002   2.308   5.090  0.6774  0.6521 -0.2805
  892ANI     CN12475   4.535   1.506   1.627 -0.2052  0.4013  0.4522
  892ANI     CH12476   4.539   1.631   1.690 -1.0307  0.4909  0.3381
  892ANI     CH12477   4.642   1.722   1.662 -0.1386 -0.5825  0.0843
  892ANI     CH12478   4.744   1.686   1.573  0.0124  0.2184 -0.0776
  892ANI     CH12479   4.743   1.564   1.505 -0.5831  0.3013 -0.2231
  892ANI     CH12480   4.637   1.478   1.536 -0.3085  0.1886  0.4043
  892ANI     NH12481   4.435   1.418   1.634  0.2898 -0.1968 -0.0327
  892ANI     HC12482   4.457   1.667   1.751 -0.4332  1.1047  0.7895
  892ANI     HC12483   4.640   1.826   1.692 -0.4870  0.0418 -1.9962
  892ANI     HC12484   4.809   1.757   1.525 -0.4961  1.9498  1.7216
  892ANI     HC12485   4.817   1.540   1.429 -2.4026 -1.9974 -1.3314
  892ANI     HC12486   4.621   1.387   1.480 -2.9394 -0.6837  2.4661
  892ANI     HN12487   4.471   1.324   1.624 -3.1190 -1.8216  1.9471
  892ANI     HN12488   4.390   1.438   1.722 -0.5548  2.3663 -1.0182
  893ANI     CN12489   0.285   0.249   5.000 -0.1817  0.2939  0.1181
  893ANI     CH12490   0.403   0.197   5.053 -0.4358 -0.3333  0.0759
  893ANI     CH12491   0.430   0.062   5.023  0.1448 -0.2142  0.0517
  893ANI     CH12492   0.352  -0.016   4.938 -0.0848  0.2392 -0.1555
  893ANI     CH12493   0.234   0.042   4.888 -0.7377 -0.4071  0.6213
  893ANI     CH12494   0.201   0.175   4.915 -0.1387 -0.2384  0.5321
  893ANI     NH12495   0.242   0.371   5.032  0.3327  0.6763 -0.6343
  893ANI     HC12496   0.481   0.251   5.105  2.1318 -2.6106 -1.2584
  893ANI     HC12497   0.526   0.033   5.063 -0.0364 -1.4556 -0.4054
  893ANI     HC12498   0.376  -0.118   4.911 -1.1057 -0.0075 -0.1726
  893ANI     HC12499   0.181  -0.013   4.812 -1.9910 -1.8959  2.5306
  893ANI     HC12500   0.116   0.220   4.864 -0.4814 -2.2871 -0.7483
  893ANI     HN12501   0.144   0.367   5.054 -0.0665  0.3583 -2.4762
  893ANI     HN12502   0.282   0.380   5.125 -1.5758  0.7925  0.2063
  894ANI     CN12503   0.041   1.090   6.079 -0.4969 -0.2573 -0.2253
  894ANI     CH12504   0.134   1.176   6.020 -0.6759  0.1920  0.1397
  894ANI     CH12505   0.089   1.259   5.916  0.4354  0.1485 -0.3809
  894ANI     CH12506  -0.042   1.253   5.867  0.2168 -0.7009  0.2855
  894ANI     CH12507  -0.130   1.165   5.930 -0.8430 -0.0071 -0.2148
  894ANI     CH12508  -0.094   1.086   6.040 -0.6091  0.4971  0.0737
  894ANI     NH12509   0.073   1.009   6.181 -0.1237  0.3769  0.1643
  894ANI     HC12510   0.234   1.175   6.059 -2.0589 -1.5546  3.9138
  894ANI     HC12511   0.161   1.326   5.871 -0.9331  0.8958 -1.5099
  894ANI     HC12512  -0.068   1.308   5.777  0.7608 -1.5915 -0.4217
  894ANI     HC12513  -0.233   1.175   5.897 -0.5753 -1.3210 -1.4602
  894ANI     HC12514  -0.167   1.024   6.088  1.0437 -1.0140  0.6779
  894ANI     HN12515   0.016   0.927   6.189  0.0640  0.0808 -1.3679
  894ANI     HN12516   0.173   0.993   6.189 -0.2707  0.2890  1.9119
  895ANI     CN12517   2.135   0.499   5.660 -0.6333  0.3098  0.2226
  895ANI     CH12518   2.160   0.546   5.531 -0.2765 -0.3426  0.0489
  895ANI     CH12519   2.232   0.663   5.505  0.1119 -0.5285  0.3001
  895ANI     CH12520   2.284   0.728   5.618  1.7637 -1.2620 -0.0099
  895ANI     CH12521   2.256   0.686   5.749  0.3512  0.0125  0.1161
  895ANI     CH12522   2.182   0.569   5.771 -0.4627  0.5064  0.0267
  895ANI     NH12523   2.063   0.388   5.679  0.5507 -0.5553 -0.2463
  895ANI     HC12524   2.136   0.486   5.444 -2.2496  1.2260 -0.5405
  895ANI     HC12525   2.263   0.697   5.407  2.7059 -1.9636  0.5572
  895ANI     HC12526   2.325   0.827   5.605 -0.0040 -0.0443  2.8946
  895ANI     HC12527   2.300   0.742   5.830  3.2838  0.0170 -1.3902
  895ANI     HC12528   2.157   0.547   5.874 -0.2193 -0.6601 -0.1600
  895ANI     HN12529   2.044   0.350   5.771 -0.6576 -1.7113 -0.9439
  895ANI     HN12530   2.088   0.308   5.622  0.6644 -0.4633 -0.3247
  896ANI     CN12531   0.436   5.251   1.240 -0.8323 -1.0106 -0.0455
  896ANI     CH12532   0.365   5.242   1.120 -0.7391  0.4110 -0.2219
  896ANI     CH12533   0.268   5.336   1.084 -0.5759  0.2919 -0.9856
  896ANI     CH12534   0.231   5.428   1.183  0.7251 -0.2395  0.0084
  896ANI     CH12535   0.284   5.429   1.313  0.1309 -0.0954  0.2523
  896ANI     CH12536   0.395   5.346   1.334 -0.3592 -0.8329 -0.0175
  896ANI     NH12537   0.534   5.164   1.271  0.3362  0.0991 -0.5642
  896ANI     HC12538   0.383   5.165   1.046  1.0571  1.0470 -0.4516
  896ANI     HC12539   0.220   5.326   0.988 -0.8703 -1.7209 -0.6436
  896ANI     HC12540   0.148   5.492   1.157  0.0069 -1.3342 -0.4093
  896ANI     HC12541   0.244   5.490   1.392  0.6352 -0.3563  0.7122
  896ANI     HC12542   0.443   5.358   1.430 -1.3664  2.1347  0.1712
  896ANI     HN12543   0.591   5.118   1.202  0.3405 -1.4827  0.4793
  896ANI     HN12544   0.599   5.203   1.338  1.0173 -1.2151 -0.4597
  897ANI     CN12545   0.440   2.314   3.778  0.4189  0.3048 -0.3707
  897ANI     CH12546   0.481   2.196   3.842  0.0789  0.3376 -0.0908
  897ANI     CH12547   0.421   2.161   3.963  0.5823  0.1797  0.1097
  897ANI     CH12548   0.322   2.240   4.020  0.6040  0.1978  0.1227
  897ANI     CH12549   0.272   2.350   3.949  0.0080 -0.1630 -0.0169
  897ANI     CH12550   0.323   2.378   3.822  0.3949 -0.0940  0.1532
  897ANI     NH12551   0.498   2.351   3.663  0.2570 -0.2813 -0.6443
  897ANI     HC12552   0.567   2.141   3.807  0.6936  0.3215  1.4243
  897ANI     HC12553   0.433   2.065   4.012 -1.6889 -0.4680 -0.5623
  897ANI     HC12554   0.268   2.222   4.113 -0.0091  0.1573 -0.2361
  897ANI     HC12555   0.186   2.404   3.987  0.6151  1.3321 -0.7604
  897ANI     HC12556   0.289   2.462   3.763  0.2279  0.3442  0.8747
  897ANI     HN12557   0.598   2.354   3.649  0.2960 -1.6701 -0.6717
  897ANI     HN12558   0.462   2.428   3.608 -0.9576  0.6770  1.4209
  898ANI     CN12559   3.670   5.372   1.319  0.2656  0.2125 -0.1038
  898ANI     CH12560   3.668   5.240   1.273 -0.2139  0.1115  0.2043
  898ANI     CH12561   3.715   5.137   1.356  0.4841 -0.3407 -0.7458
  898ANI     CH12562   3.747   5.167   1.489 -0.0680 -0.1401 -0.6595
  898ANI     CH12563   3.736   5.297   1.540 -0.8240 -0.3373 -0.3093
  898ANI     CH12564   3.691   5.398   1.455  0.0139  0.2444 -0.0704
  898ANI     NH12565   3.634   5.466   1.230  0.3329  0.6557  0.3406
  898ANI     HC12566   3.642   5.217   1.170 -0.0305 -0.8525  0.3624
  898ANI     HC12567   3.733   5.040   1.313  0.8170 -1.1015  1.0535
  898ANI     HC12568   3.793   5.090   1.550  1.9121  1.2620 -0.3538
  898ANI     HC12569   3.761   5.306   1.645 -0.3147  0.0405 -0.4621
  898ANI     HC12570   3.667   5.497   1.490  0.2514  0.7407 -1.2701
  898ANI     HN12571   3.593   5.441   1.142 -0.2981 -1.5833  1.2388
  898ANI     HN12572   3.576   5.537   1.274 -0.3837  0.0724  0.3438
  899ANI     CN12573   1.361   1.823   2.385  0.5423  0.4242 -0.3030
  899ANI     CH12574   1.258   1.909   2.343  0.3655  0.5093  0.2983
  899ANI     CH12575   1.171   1.962   2.438  0.4402  0.5481  0.3456
  899ANI     CH12576   1.192   1.937   2.574 -0.2857 -0.1741  0.3337
  899ANI     CH12577   1.299   1.856   2.612 -0.2775 -0.3296 -0.0213
  899ANI     CH12578   1.388   1.799   2.520  0.7003  1.3944 -0.1605
  899ANI     NH12579   1.453   1.781   2.296  0.0812 -0.0842 -0.5453
  899ANI     HC12580   1.240   1.936   2.240  1.9282  0.0796 -0.1024
  899ANI     HC12581   1.088   2.021   2.399  0.1535 -0.9098 -1.3287
  899ANI     HC12582   1.124   1.974   2.650 -0.2047  0.5812  0.0505
  899ANI     HC12583   1.304   1.829   2.717  2.3457 -0.0473 -0.0185
  899ANI     HC12584   1.470   1.733   2.544  0.7168  1.0872 -1.0440
  899ANI     HN12585   1.532   1.765   2.357  1.0836  1.5648 -1.3905
  899ANI     HN12586   1.469   1.855   2.229 -1.2244  0.3628 -0.3862
  900ANI     CN12587   0.408   6.268   1.448 -0.0879 -0.0400  0.3753
  900ANI     CH12588   0.508   6.347   1.506 -0.1406 -0.2636  0.7650
  900ANI     CH12589   0.641   6.317   1.477 -0.2804  0.4566 -0.6455
  900ANI     CH12590   0.677   6.204   1.402 -0.0145  0.1686 -0.0834
  900ANI     CH12591   0.577   6.131   1.338 -0.3348  0.8751 -0.3900
  900ANI     CH12592   0.443   6.163   1.363 -0.4535 -0.5730  0.8851
  900ANI     NH12593   0.278   6.299   1.463 -0.2090 -0.5115  0.2989
  900ANI     HC12594   0.490   6.438   1.561  0.5406  0.1064  0.3689
  900ANI     HC12595   0.713   6.389   1.512 -0.9492  0.8818 -0.1355
  900ANI     HC12596   0.777   6.164   1.397 -0.3933 -0.8871  0.5422
  900ANI     HC12597   0.608   6.055   1.268  2.9709  2.7459 -1.0634
  900ANI     HC12598   0.376   6.104   1.301  2.1470 -2.2129 -0.4441
  900ANI     HN12599   0.223   6.254   1.392  0.4615 -0.4349 -0.2734
  900ANI     HN12600   0.248   6.395   1.473 -3.4967 -1.3127 -1.1798
  901ANI     CN12601   1.411   4.937   1.862  0.9644  0.2583 -0.3718
  901ANI     CH12602   1.388   5.042   1.772 -0.1337  0.2968 -0.0451
  901ANI     CH12603   1.374   5.172   1.823  0.5214  0.4134 -0.1568
  901ANI     CH12604   1.379   5.198   1.960  1.0690  0.1090 -0.1182
  901ANI     CH12605   1.397   5.091   2.049  0.5536  0.0517 -0.0782
  901ANI     CH12606   1.416   4.961   1.999 -1.5125 -0.2342 -0.1645
  901ANI     NH12607   1.418   4.811   1.816 -0.3161  0.2387 -0.5386
  901ANI     HC12608   1.388   5.029   1.665  0.5572  0.7720 -0.1023
  901ANI     HC12609   1.361   5.259   1.761 -0.9627  1.0805  1.0393
  901ANI     HC12610   1.364   5.299   1.996 -0.3229 -0.0955 -0.1197
  901ANI     HC12611   1.411   5.113   2.154  0.8837  1.6693 -0.4517
  901ANI     HC12612   1.427   4.871   2.058  1.2277  1.5324  2.2130
  901ANI     HN12613   1.438   4.732   1.877 -2.4310 -1.1600 -1.6044
  901ANI     HN12614   1.458   4.799   1.724  1.0346 -1.7095  0.2517
  902ANI     CN12615   2.857   5.711   6.127 -0.7181  0.3869 -0.8413
  902ANI     CH12616   2.928   5.831   6.135 -0.0991 -0.0336  0.1043
  902ANI     CH12617   2.937   5.898   6.258  0.0621  0.0714  0.0356
  902ANI     CH12618   2.847   5.865   6.360  0.4822 -0.4895  0.2276
  902ANI     CH12619   2.758   5.758   6.348 -0.0809 -0.0182  0.1877
  902ANI     CH12620   2.770   5.679   6.232  0.0565  0.5065 -0.1561
  902ANI     NH12621   2.860   5.645   6.011  0.0306 -0.1232 -0.5361
  902ANI     HC12622   2.986   5.872   6.053 -0.8062 -2.5978 -1.7180
  902ANI     HC12623   3.004   5.980   6.275  3.0417 -2.1687 -0.4181
  902ANI     HC12624   2.837   5.916   6.455  0.8447  0.6080 -0.3182
  902ANI     HC12625   2.687   5.731   6.424 -0.3171  1.5037  0.5133
  902ANI     HC12626   2.713   5.589   6.218 -1.9309  2.0709 -2.5555
  902ANI     HN12627   2.854   5.544   6.017 -0.0250 -0.0779  0.2590
  902ANI     HN12628   2.930   5.675   5.946 -0.2879  1.7405 -0.0436
  903ANI     CN12629   5.908   5.812   1.478  0.1728 -0.1353 -0.8777
  903ANI     CH12630   6.028   5.740   1.478  0.5734  0.5200 -0.2293
  903ANI     CH12631   6.028   5.603   1.449 -0.1498  0.5628 -0.4675
  903ANI     CH12632   5.910   5.541   1.407  0.3345 -0.5160 -0.2732
  903ANI     CH12633   5.789   5.610   1.423  0.5161 -0.3245  0.2865
  903ANI     CH12634   5.787   5.747   1.451  0.0587 -0.2497 -0.1066
  903ANI     NH12635   5.903   5.944   1.502  0.2343 -0.3101  0.1542
  903ANI     HC12636   6.120   5.788   1.508  0.1738  0.8372  0.4853
  903ANI     HC12637   6.122   5.550   1.442  0.0416  0.4493  2.4030
  903ANI     HC12638   5.919   5.442   1.367  3.0593 -1.1679  1.8081
  903ANI     HC12639   5.703   5.557   1.385  1.3296 -0.8923 -0.7796
  903ANI     HC12640   5.691   5.796   1.461  0.8065  0.9601  1.2737
  903ANI     HN12641   5.971   5.996   1.448 -0.7708 -0.6869 -1.5395
  903ANI     HN12642   5.817   5.983   1.466  0.2045 -0.5179 -0.0008
  904ANI     CN12643   2.066   2.328   2.177 -0.8276 -0.2008  0.5975
  904ANI     CH12644   1.970   2.372   2.086  0.1906  0.4096 -0.1878
  904ANI     CH12645   1.938   2.509   2.078 -0.5347  0.2255 -0.5157
  904ANI     CH12646   2.009   2.611   2.142  0.2983 -0.4718 -0.3102
  904ANI     CH12647   2.108   2.568   2.231 -0.1780 -0.0418  0.4298
  904ANI     CH12648   2.129   2.431   2.248 -0.2664 -0.1125 -0.0294
  904ANI     NH12649   2.104   2.200   2.192  0.0526  0.0027  0.1063
  904ANI     HC12650   1.921   2.301   2.021  0.6732 -0.4524  0.3978
  904ANI     HC12651   1.869   2.546   2.004 -0.9987  1.1919  0.3943
  904ANI     HC12652   1.976   2.713   2.130  1.3551 -0.0912 -0.0923
  904ANI     HC12653   2.160   2.639   2.293 -1.2842  2.4326 -1.3906
  904ANI     HC12654   2.192   2.398   2.329 -1.7294 -0.2338  1.0757
  904ANI     HN12655   2.108   2.141   2.110 -0.2945 -0.3341  0.3315
  904ANI     HN12656   2.190   2.188   2.244 -0.9091 -1.2310  1.4592
  905ANI     CN12657   4.339   3.151   3.646  0.4136 -0.0566  0.0017
  905ANI     CH12658   4.397   3.138   3.520  0.6467 -0.1748  0.1208
  905ANI     CH12659   4.512   3.059   3.507  0.3725 -0.5169 -0.2120
  905ANI     CH12660   4.571   2.998   3.618  0.1121  0.4241  0.4439
  905ANI     CH12661   4.513   3.015   3.745  0.1447 -0.1097  0.5283
  905ANI     CH12662   4.398   3.092   3.759  0.0973 -0.1083  0.1420
  905ANI     NH12663   4.231   3.227   3.669 -0.0419 -0.6605 -0.1090
  905ANI     HC12664   4.359   3.190   3.433 -0.1172 -1.5232 -0.3501
  905ANI     HC12665   4.566   3.067   3.414  3.4084 -0.9407  1.4644
  905ANI     HC12666   4.669   2.954   3.610 -0.5063 -1.1679  1.3374
  905ANI     HC12667   4.564   2.968   3.828  2.8705  1.4309 -0.2111
  905ANI     HC12668   4.354   3.114   3.855 -0.7690  1.6963 -0.6223
  905ANI     HN12669   4.253   3.321   3.638  2.3527 -1.1995 -0.1748
  905ANI     HN12670   4.198   3.248   3.762 -2.0648  0.0861 -0.9602
  906ANI     CN12671   2.756   5.976   2.272  0.0582 -0.1905 -0.2526
  906ANI     CH12672   2.831   5.927   2.165  0.6521 -0.0696  0.1040
  906ANI     CH12673   2.782   5.954   2.036 -0.1642 -0.2055  0.3849
  906ANI     CH12674   2.665   6.024   2.007  0.3492  0.5319  0.0934
  906ANI     CH12675   2.597   6.072   2.119  0.2116  0.2341  0.1371
  906ANI     CH12676   2.639   6.050   2.251 -0.2254 -0.5215  0.1510
  906ANI     NH12677   2.792   5.951   2.399 -0.0720  0.0383 -0.1700
  906ANI     HC12678   2.923   5.872   2.180  1.2288  1.2758  1.7510
  906ANI     HC12679   2.848   5.919   1.958  0.0676 -0.6131  0.7578
  906ANI     HC12680   2.629   6.034   1.906 -0.8607 -0.7454  0.3829
  906ANI     HC12681   2.499   6.116   2.106 -0.2502 -0.8602 -0.0807
  906ANI     HC12682   2.572   6.088   2.327 -2.6732 -2.3289 -1.0309
  906ANI     HN12683   2.711   5.975   2.454 -3.0023 -1.9004 -3.4640
  906ANI     HN12684   2.873   5.994   2.440  0.8470 -0.1564 -1.7461
  907ANI     CN12685   0.248   0.288   5.470  0.0068  0.0173 -0.0173
  907ANI     CH12686   0.327   0.302   5.585 -0.4204 -0.4382  0.3365
  907ANI     CH12687   0.351   0.426   5.644  0.1466 -0.2391 -0.3111
  907ANI     CH12688   0.284   0.538   5.593  0.4402 -0.0885 -0.3664
  907ANI     CH12689   0.199   0.523   5.483 -0.3540 -0.1898  0.2609
  907ANI     CH12690   0.190   0.402   5.414 -0.4999 -0.1360  0.1850
  907ANI     NH12691   0.254   0.173   5.402  0.2752  0.0576 -0.0620
  907ANI     HC12692   0.373   0.218   5.634 -0.4577 -0.0810  0.9903
  907ANI     HC12693   0.415   0.447   5.729 -1.9189 -0.6625  1.3979
  907ANI     HC12694   0.296   0.634   5.643  1.4386  0.4641 -1.6219
  907ANI     HC12695   0.135   0.601   5.443  1.5339  1.4460  0.3168
  907ANI     HC12696   0.139   0.404   5.319 -0.9126  0.3010  0.4118
  907ANI     HN12697   0.208   0.106   5.462  1.4169  1.7162  2.7152
  907ANI     HN12698   0.211   0.172   5.310  0.3759 -1.9756 -0.1184
  908ANI     CN12699   3.140   2.085   3.323 -0.4298  0.7176  0.5352
  908ANI     CH12700   3.207   2.125   3.207  0.0589 -0.6787  0.3258
  908ANI     CH12701   3.346   2.112   3.202  0.0033 -1.0187 -0.4542
  908ANI     CH12702   3.418   2.065   3.313 -0.0000  0.0001 -0.0131
  908ANI     CH12703   3.348   2.036   3.432 -0.5227 -0.1427 -0.3535
  908ANI     CH12704   3.209   2.051   3.440 -0.3939  0.6301  0.4885
  908ANI     NH12705   3.006   2.093   3.312 -0.4347 -0.0439 -0.0040
  908ANI     HC12706   3.158   2.135   3.112  1.8753 -0.9088 -0.6590
  908ANI     HC12707   3.395   2.124   3.107  0.6382 -0.0652 -0.0225
  908ANI     HC12708   3.522   2.038   3.309  0.2044  0.8130 -0.3015
  908ANI     HC12709   3.401   1.998   3.518 -1.3889  0.1989  0.3247
  908ANI     HC12710   3.157   2.042   3.534  0.1258  2.1222  0.9385
  908ANI     HN12711   2.983   2.184   3.274  0.9684 -0.1434 -1.1386
  908ANI     HN12712   2.973   2.092   3.407 -1.1978  0.8580 -0.2457
  909ANI     CN12713   2.548   2.064   2.866 -0.1953  0.1992  0.1944
  909ANI     CH12714   2.545   1.974   2.973  0.4720 -0.6755 -0.5188
  909ANI     CH12715   2.659   1.963   3.054  0.1725 -0.1536 -0.0232
  909ANI     CH12716   2.776   2.037   3.030 -0.4857  0.9383  0.1108
  909ANI     CH12717   2.778   2.122   2.919  0.0243  0.3728 -0.3227
  909ANI     CH12718   2.664   2.137   2.838 -0.0070 -0.3248 -0.4107
  909ANI     NH12719   2.443   2.071   2.784 -0.2594  0.1040  0.2698
  909ANI     HC12720   2.458   1.915   2.999  0.0109 -0.6254 -1.8771
  909ANI     HC12721   2.657   1.891   3.134  0.3930  0.7520  0.7959
  909ANI     HC12722   2.863   2.007   3.085 -0.6156  0.7319  0.2063
  909ANI     HC12723   2.869   2.170   2.889 -0.1802  0.5366 -0.6862
  909ANI     HC12724   2.673   2.198   2.749  0.9629  1.0183  0.5759
  909ANI     HN12725   2.463   2.095   2.688  1.2225 -0.1896  0.5020
  909ANI     HN12726   2.385   1.988   2.788  1.1359 -0.8069  2.4781
  910ANI     CN12727   0.418   4.351   2.824 -0.0740 -0.2602  0.2288
  910ANI     CH12728   0.311   4.336   2.913 -0.0815 -0.1697  0.2354
  910ANI     CH12729   0.183   4.297   2.868  0.0570 -0.1952 -0.1420
  910ANI     CH12730   0.161   4.285   2.731 -0.2677 -0.0385 -0.1043
  910ANI     CH12731   0.265   4.309   2.639 -0.2397  0.2165 -0.0046
  910ANI     CH12732   0.390   4.348   2.687 -0.5791  0.9679  0.2908
  910ANI     NH12733   0.534   4.400   2.871  0.1525  0.1422 -0.7465
  910ANI     HC12734   0.313   4.347   3.020  0.5401 -0.7394  0.2834
  910ANI     HC12735   0.103   4.275   2.937 -0.7331  0.9232 -0.7071
  910ANI     HC12736   0.065   4.250   2.698 -0.9231  2.9509 -1.4786
  910ANI     HC12737   0.255   4.314   2.532  1.8141  0.1751 -0.2125
  910ANI     HC12738   0.472   4.352   2.616  0.6363  0.0008  1.6015
  910ANI     HN12739   0.537   4.426   2.968  0.0129  0.7073 -0.8876
  910ANI     HN12740   0.566   4.478   2.815 -1.0495  0.8285 -0.5062
  911ANI     CN12741   1.414   2.002   5.371 -0.2783 -0.3407  0.0998
  911ANI     CH12742   1.540   2.055   5.400  0.0189 -0.7220 -0.4886
  911ANI     CH12743   1.595   2.149   5.311 -0.8330  0.7069  0.4738
  911ANI     CH12744   1.526   2.174   5.192 -0.5569 -0.1851  0.1223
  911ANI     CH12745   1.403   2.117   5.159 -0.5973  0.0353 -0.1149
  911ANI     CH12746   1.347   2.027   5.251 -0.0492 -0.1841  0.0044
  911ANI     NH12747   1.367   1.903   5.450  0.2973 -0.9289 -0.2910
  911ANI     HC12748   1.590   2.028   5.491  1.2510 -0.3047 -1.0301
  911ANI     HC12749   1.684   2.208   5.321  1.2100 -2.3510  0.9573
  911ANI     HC12750   1.584   2.239   5.127 -0.5973 -0.3239 -0.0546
  911ANI     HC12751   1.365   2.138   5.060  0.4509 -0.7563 -0.6913
  911ANI     HC12752   1.256   1.973   5.228  1.1025 -1.6910 -1.1622
  911ANI     HN12753   1.407   1.875   5.538 -0.2822 -1.8301 -0.3062
  911ANI     HN12754   1.288   1.848   5.420 -1.6304  0.5738  1.8908
  912ANI     CN12755   2.763   2.833   1.714 -0.0026  0.1400  0.1314
  912ANI     CH12756   2.657   2.872   1.795 -0.0882  0.3948 -0.1039
  912ANI     CH12757   2.644   3.005   1.837  0.4883  0.1393  0.8986
  912ANI     CH12758   2.735   3.099   1.787  0.0177  0.1534  0.0602
  912ANI     CH12759   2.851   3.057   1.720 -0.0432 -0.0559  0.0838
  912ANI     CH12760   2.865   2.923   1.682  0.3468 -0.1275  0.4845
  912ANI     NH12761   2.771   2.704   1.677  0.4167 -0.1785  1.3274
  912ANI     HC12762   2.579   2.801   1.821 -0.2954  0.6490 -0.0204
  912ANI     HC12763   2.563   3.045   1.896  0.3591 -0.4778  1.1324
  912ANI     HC12764   2.727   3.200   1.824  0.0352 -0.1327  0.8511
  912ANI     HC12765   2.932   3.123   1.693 -1.0623  0.7385 -1.1006
  912ANI     HC12766   2.957   2.895   1.631 -1.2062 -3.7827 -0.4126
  912ANI     HN12767   2.677   2.669   1.667  0.2982  0.8607 -1.6348
  912ANI     HN12768   2.815   2.696   1.587 -3.9974 -1.3635 -0.8443
  913ANI     CN12769   2.453   3.590   5.112 -0.0557  0.2098  0.1300
  913ANI     CH12770   2.463   3.585   5.251  0.1022  0.5376  0.1306
  913ANI     CH12771   2.502   3.466   5.314 -0.6132 -0.2054 -0.8167
  913ANI     CH12772   2.541   3.356   5.237  0.2560 -0.7517  0.3995
  913ANI     CH12773   2.541   3.361   5.097  0.5265 -0.0403  0.4223
  913ANI     CH12774   2.500   3.481   5.038  0.0714 -0.0849  0.6424
  913ANI     NH12775   2.414   3.702   5.050 -0.2945  0.2687  0.3863
  913ANI     HC12776   2.426   3.665   5.313  0.5069  1.4713 -0.8231
  913ANI     HC12777   2.502   3.457   5.422 -2.2321  0.1381 -0.7675
  913ANI     HC12778   2.589   3.270   5.282  0.1120 -1.2170 -0.3218
  913ANI     HC12779   2.578   3.285   5.031 -0.6253  0.8948 -1.3456
  913ANI     HC12780   2.508   3.486   4.930 -1.0562 -1.8339  0.4508
  913ANI     HN12781   2.362   3.665   4.971 -1.7118 -0.8709  1.8307
  913ANI     HN12782   2.354   3.761   5.107 -1.4808  1.3458 -1.8730
  914ANI     CN12783   1.807   0.125   3.921  0.1729 -0.1181 -0.1085
  914ANI     CH12784   1.769   0.006   3.858  0.3787 -0.3886  0.2776
  914ANI     CH12785   1.859  -0.096   3.827  0.3208 -0.3646  0.0253
  914ANI     CH12786   1.996  -0.075   3.848  0.2730 -0.0869  0.0588
  914ANI     CH12787   2.036   0.043   3.912  0.1369 -0.2922  0.5217
  914ANI     CH12788   1.942   0.136   3.957  0.0308 -0.3974  0.5159
  914ANI     NH12789   1.709   0.216   3.932 -0.0239 -0.3004 -0.3456
  914ANI     HC12790   1.666  -0.006   3.828 -0.0236 -0.5231  1.6633
  914ANI     HC12791   1.828  -0.182   3.770  2.7026 -1.0812 -0.2688
  914ANI     HC12792   2.078  -0.138   3.818  0.9457  0.6758  0.2611
  914ANI     HC12793   2.139   0.057   3.942 -0.1566  1.7278  0.7028
  914ANI     HC12794   1.984   0.227   3.998  0.3115 -0.1280 -0.3520
  914ANI     HN12795   1.738   0.311   3.911 -0.3155 -0.1363 -0.0225
  914ANI     HN12796   1.622   0.197   3.884  0.7337  0.6238 -2.1574
  915ANI     CN12797   4.105   1.619   5.915 -0.2962  0.1442  0.1441
  915ANI     CH12798   3.998   1.678   5.983 -0.1080  0.2407  0.3557
  915ANI     CH12799   3.886   1.601   6.018 -0.5436  0.1051 -1.2943
  915ANI     CH12800   3.876   1.467   5.980  0.0133 -0.3803  0.2343
  915ANI     CH12801   3.983   1.410   5.910  0.4482 -0.1424  0.7039
  915ANI     CH12802   4.096   1.485   5.875  0.3411 -0.0309  0.5941
  915ANI     NH12803   4.220   1.683   5.886 -0.2206 -0.1737 -0.2648
  915ANI     HC12804   4.002   1.778   6.023 -1.0099  0.6860 -0.6328
  915ANI     HC12805   3.808   1.649   6.076  0.2572  0.3238 -0.3802
  915ANI     HC12806   3.788   1.410   6.007  1.1516 -2.3707 -0.1612
  915ANI     HC12807   3.995   1.306   5.885  0.7859 -0.1938  1.0778
  915ANI     HC12808   4.172   1.444   5.811  1.6719  1.2216  1.3309
  915ANI     HN12809   4.295   1.616   5.891 -0.4029 -0.4946 -1.7458
  915ANI     HN12810   4.236   1.755   5.955 -0.9267 -2.0820  1.9692
  916ANI     CN12811   4.739   2.826   0.612 -0.3018  0.0616  0.2951
  916ANI     CH12812   4.834   2.737   0.557 -0.1887  0.4730 -0.1783
  916ANI     CH12813   4.818   2.602   0.589  0.4134  0.3257 -0.4973
  916ANI     CH12814   4.719   2.555   0.677  0.5569  0.5657 -0.2057
  916ANI     CH12815   4.627   2.649   0.725  0.1400  0.3386 -0.5547
  916ANI     CH12816   4.636   2.786   0.698 -0.7831  0.4989 -0.0762
  916ANI     NH12817   4.760   2.957   0.593 -0.4359  0.0044 -0.2749
  916ANI     HC12818   4.919   2.777   0.504  0.3692  0.1737  0.4854
  916ANI     HC12819   4.894   2.541   0.544 -1.4426 -1.2331 -1.6039
  916ANI     HC12820   4.700   2.452   0.704  1.1586  0.0105 -1.8436
  916ANI     HC12821   4.550   2.606   0.787  0.6201 -0.8795 -0.7878
  916ANI     HC12822   4.570   2.858   0.743 -1.6283 -0.6591  0.5373
  916ANI     HN12823   4.724   3.022   0.661 -3.4857 -0.1038 -1.7050
  916ANI     HN12824   4.856   2.985   0.576 -0.6895  0.4002 -1.0554
  917ANI     CN12825   1.301   1.332   5.798 -0.3867  0.3421 -0.2791
  917ANI     CH12826   1.252   1.255   5.692 -0.5255 -0.3216  0.2592
  917ANI     CH12827   1.312   1.251   5.565 -0.6147  0.1630  0.2012
  917ANI     CH12828   1.430   1.325   5.547 -0.2469 -0.4618  0.0275
  917ANI     CH12829   1.480   1.403   5.651  0.1952 -0.4747 -0.1765
  917ANI     CH12830   1.414   1.410   5.775  0.0140 -0.2372 -0.2874
  917ANI     NH12831   1.247   1.323   5.921  0.0561 -0.5168 -0.1441
  917ANI     HC12832   1.162   1.199   5.710 -1.5963  1.1094 -0.5003
  917ANI     HC12833   1.262   1.192   5.490  0.3157 -0.2904 -0.0719
  917ANI     HC12834   1.474   1.327   5.448 -1.6845 -2.4875 -0.7090
  917ANI     HC12835   1.562   1.470   5.630  0.6326 -1.4146 -1.5451
  917ANI     HC12836   1.445   1.477   5.854  0.6774 -1.3654  0.4216
  917ANI     HN12837   1.192   1.403   5.949 -0.0889 -1.4857  2.4857
  917ANI     HN12838   1.328   1.317   5.981  1.2000  2.0145 -1.3418
  918ANI     CN12839   1.676   3.407   5.734  0.1238 -0.0589  0.0851
  918ANI     CH12840   1.801   3.407   5.672  0.0875  0.0856  0.0120
  918ANI     CH12841   1.868   3.525   5.637 -0.0100  0.0993 -0.1289
  918ANI     CH12842   1.813   3.645   5.683 -0.2000 -0.5010  1.2438
  918ANI     CH12843   1.682   3.653   5.732 -0.2474  0.1637  1.0180
  918ANI     CH12844   1.616   3.532   5.754 -0.1931 -0.1329 -0.4062
  918ANI     NH12845   1.621   3.288   5.764 -0.3147  0.1104 -0.0396
  918ANI     HC12846   1.842   3.314   5.636  0.2593  0.6121 -1.1882
  918ANI     HC12847   1.963   3.514   5.587 -0.0696 -1.3724  0.0566
  918ANI     HC12848   1.869   3.736   5.665 -0.5522 -0.3880  0.6856
  918ANI     HC12849   1.639   3.751   5.746  0.8408  0.5600  1.6066
  918ANI     HC12850   1.514   3.529   5.789 -0.5283  0.4943 -1.2962
  918ANI     HN12851   1.684   3.215   5.734  0.2460  1.4528 -2.2443
  918ANI     HN12852   1.620   3.287   5.865 -1.9032 -0.5657 -0.0477
  919ANI     CN12853   0.572   2.506   1.980  0.1700  0.5833  0.1851
  919ANI     CH12854   0.636   2.610   1.912  0.0608  0.3325 -0.3139
  919ANI     CH12855   0.750   2.667   1.971 -0.2054  0.1046  0.4363
  919ANI     CH12856   0.803   2.614   2.089 -0.0777  0.1746  0.4108
  919ANI     CH12857   0.731   2.516   2.159 -0.3443 -0.0825 -0.2165
  919ANI     CH12858   0.620   2.454   2.100 -0.1975 -0.4531 -0.1034
  919ANI     NH12859   0.462   2.444   1.933 -0.1304  0.8213  0.5803
  919ANI     HC12860   0.600   2.646   1.817 -0.1318  0.8042 -0.0628
  919ANI     HC12861   0.798   2.747   1.916 -2.0769 -0.6443 -2.4003
  919ANI     HC12862   0.892   2.656   2.133  0.7258  0.2053 -1.1916
  919ANI     HC12863   0.769   2.487   2.256  0.8131  1.0775 -0.3064
  919ANI     HC12864   0.575   2.378   2.162  0.0906 -2.1227 -1.9265
  919ANI     HN12865   0.485   2.347   1.919 -1.9469  0.5235 -0.4309
  919ANI     HN12866   0.451   2.471   1.836 -0.1104 -2.6928 -0.4460
  920ANI     CN12867   1.079   2.534   0.544  0.2691  0.7187  0.4201
  920ANI     CH12868   0.977   2.484   0.626  0.5370 -0.0759  0.2654
  920ANI     CH12869   1.009   2.449   0.758  0.1345 -0.3555  0.2896
  920ANI     CH12870   1.137   2.466   0.811  0.2809 -0.8536  0.0996
  920ANI     CH12871   1.236   2.520   0.728 -0.4452  0.3017 -0.0162
  920ANI     CH12872   1.208   2.554   0.595  0.5536  0.4498 -0.1940
  920ANI     NH12873   1.051   2.570   0.418  0.2221 -0.4149  0.1016
  920ANI     HC12874   0.872   2.482   0.603  0.2186 -0.6169  1.6824
  920ANI     HC12875   0.928   2.417   0.822 -1.6170 -0.9069 -2.1389
  920ANI     HC12876   1.158   2.438   0.913  2.2274  0.1205 -0.0038
  920ANI     HC12877   1.328   2.548   0.776 -0.3620  0.9853 -0.5572
  920ANI     HC12878   1.287   2.592   0.533  1.3484 -2.4064 -0.9903
  920ANI     HN12879   1.075   2.668   0.407 -0.0289 -0.3428  0.2031
  920ANI     HN12880   0.954   2.572   0.392 -0.2211  1.9051  1.7607
  921ANI     CN12881   2.580   2.817   1.234 -0.3995  0.0067 -0.3679
  921ANI     CH12882   2.512   2.925   1.176  0.1066  0.5742  0.0763
  921ANI     CH12883   2.465   3.035   1.247  0.4618  0.5721  0.3145
  921ANI     CH12884   2.503   3.058   1.380  0.3078 -0.3241  0.5128
  921ANI     CH12885   2.566   2.948   1.440  0.8978 -0.1855  0.1508
  921ANI     CH12886   2.609   2.835   1.370 -0.6870 -0.5657 -0.2315
  921ANI     NH12887   2.619   2.705   1.172 -0.3830 -0.3461  0.2720
  921ANI     HC12888   2.485   2.924   1.071 -2.5869 -0.3677  0.7382
  921ANI     HC12889   2.407   3.111   1.196  0.2758  0.0209 -0.2995
  921ANI     HC12890   2.486   3.157   1.419 -2.7155 -0.7012  0.2934
  921ANI     HC12891   2.591   2.957   1.545  1.5457 -0.9390  0.0611
  921ANI     HC12892   2.666   2.766   1.430 -0.4788  0.4503  0.7579
  921ANI     HN12893   2.632   2.624   1.230 -1.6510 -0.7639 -0.0054
  921ANI     HN12894   2.569   2.686   1.086  0.5186 -0.9693 -0.1208
  922ANI     CN12895   2.261   5.884   0.575  0.0565  0.2252  0.2942
  922ANI     CH12896   2.173   5.826   0.483 -0.2361  0.6113  0.3289
  922ANI     CH12897   2.141   5.889   0.362 -0.1378  0.0111 -0.0127
  922ANI     CH12898   2.189   6.019   0.345  0.1805 -0.0614  0.3238
  922ANI     CH12899   2.274   6.078   0.440  0.4100  0.4855 -0.2104
  922ANI     CH12900   2.308   6.016   0.561 -0.4612  0.3765 -0.0150
  922ANI     NH12901   2.287   5.824   0.691  0.4054 -0.2142 -0.0093
  922ANI     HC12902   2.119   5.735   0.504 -1.6137  1.8414  2.2380
  922ANI     HC12903   2.063   5.850   0.298 -0.1854  0.8206 -0.4512
  922ANI     HC12904   2.172   6.076   0.255  2.6474 -1.4507 -1.0904
  922ANI     HC12905   2.320   6.173   0.420 -0.5667  0.9257 -0.4053
  922ANI     HC12906   2.381   6.067   0.621 -0.4313  0.0629  0.2182
  922ANI     HN12907   2.324   5.730   0.680  1.8948  0.2239  1.0446
  922ANI     HN12908   2.333   5.872   0.767 -0.8623  1.2616 -0.1594
  923ANI     CN12909   0.078   5.393   4.975  0.3696  0.1161  0.0489
  923ANI     CH12910  -0.012   5.445   5.068  0.8797  0.3770  0.3985
  923ANI     CH12911  -0.148   5.460   5.036  1.0167  0.2586 -0.2385
  923ANI     CH12912  -0.190   5.419   4.909  0.4425 -0.4678  0.1854
  923ANI     CH12913  -0.101   5.374   4.811  0.3629 -0.0660 -0.0726
  923ANI     CH12914   0.033   5.361   4.847  0.1981 -0.7099  0.3098
  923ANI     NH12915   0.209   5.396   5.003  0.4947 -0.6127 -0.4418
  923ANI     HC12916   0.012   5.461   5.172 -0.4490 -2.1268  1.1330
  923ANI     HC12917  -0.217   5.485   5.115  0.6675 -0.7987 -0.2077
  923ANI     HC12918  -0.295   5.421   4.881  0.7429 -0.2137 -0.9103
  923ANI     HC12919  -0.137   5.330   4.719 -2.3114  0.6436  0.5840
  923ANI     HC12920   0.102   5.334   4.767  1.9600  0.9799  1.2164
  923ANI     HN12921   0.234   5.474   5.062  0.5501 -0.2146 -0.9934
  923ANI     HN12922   0.252   5.407   4.913 -0.7346  0.4041 -0.9110
  924ANI     CN12923   1.043   4.350   0.127  0.2937 -0.1602  0.6100
  924ANI     CH12924   1.005   4.459   0.207 -0.0543  0.2105 -0.0573
  924ANI     CH12925   1.096   4.564   0.224  0.2518 -0.1315  0.4070
  924ANI     CH12926   1.225   4.564   0.170 -0.0370  0.2316 -0.2822
  924ANI     CH12927   1.262   4.450   0.097 -0.4774  0.0828 -0.2741
  924ANI     CH12928   1.172   4.345   0.075 -0.0233 -0.3290 -0.1649
  924ANI     NH12929   0.955   4.252   0.100  0.8028 -0.3645 -0.3206
  924ANI     HC12930   0.907   4.462   0.252 -0.4516  4.3948 -0.9986
  924ANI     HC12931   1.058   4.640   0.290 -0.4114  2.1137 -2.4614
  924ANI     HC12932   1.306   4.634   0.187  0.9920 -0.6572 -1.4395
  924ANI     HC12933   1.365   4.425   0.077 -1.1245 -0.5483 -2.9598
  924ANI     HC12934   1.200   4.254   0.023  1.5169 -0.4601  0.8462
  924ANI     HN12935   0.873   4.257   0.158  1.3598 -1.9079  0.6244
  924ANI     HN12936   1.002   4.162   0.102  0.8671 -0.3972 -2.2608
  925ANI     CN12937   6.049   3.570   5.939 -0.2672  0.1754 -0.2058
  925ANI     CH12938   6.118   3.682   5.893 -0.0530  0.0135 -0.2849
  925ANI     CH12939   6.050   3.783   5.822  0.0466  0.0763 -0.2920
  925ANI     CH12940   5.914   3.764   5.796  0.1761 -0.4053 -0.6101
  925ANI     CH12941   5.848   3.647   5.834 -0.1511 -0.2074 -0.5674
  925ANI     CH12942   5.915   3.547   5.906 -0.1485 -0.1417 -0.4790
  925ANI     NH12943   6.127   3.473   5.990 -0.7731 -0.3895 -0.5029
  925ANI     HC12944   6.223   3.699   5.910 -0.5659  1.0580  1.9933
  925ANI     HC12945   6.098   3.858   5.761 -1.7772  0.3323 -1.4404
  925ANI     HC12946   5.864   3.846   5.747 -0.9872  0.0272  1.2929
  925ANI     HC12947   5.744   3.635   5.807 -1.0699  1.8829  1.8047
  925ANI     HC12948   5.857   3.464   5.943 -2.7405  1.1124 -1.6122
  925ANI     HN12949   6.180   3.516   6.064 -0.5139 -1.5850  0.0298
  925ANI     HN12950   6.073   3.400   6.035  0.7872  0.2312  2.4914
  926ANI     CN12951   2.512   3.652   3.778 -0.3836 -0.5751  0.2235
  926ANI     CH12952   2.607   3.612   3.682 -0.3655 -0.1891  0.0797
  926ANI     CH12953   2.618   3.476   3.653 -0.3583 -0.0382 -0.6144
  926ANI     CH12954   2.543   3.382   3.725 -0.3297  0.2724 -0.1777
  926ANI     CH12955   2.451   3.422   3.823  0.0960 -0.1621  0.4027
  926ANI     CH12956   2.437   3.558   3.849 -0.9376 -0.2132  0.1122
  926ANI     NH12957   2.493   3.783   3.795  0.3683 -0.3432 -0.6769
  926ANI     HC12958   2.656   3.691   3.627 -0.0277 -0.8593 -0.5787
  926ANI     HC12959   2.669   3.437   3.566 -1.3095 -0.6845 -0.8941
  926ANI     HC12960   2.549   3.283   3.681  0.1304  0.5596 -0.7743
  926ANI     HC12961   2.386   3.359   3.881 -0.3539 -0.3748 -0.3288
  926ANI     HC12962   2.358   3.594   3.915 -0.5461 -1.1316  1.1065
  926ANI     HN12963   2.515   3.823   3.704  1.3160 -1.2995 -0.8671
  926ANI     HN12964   2.397   3.796   3.824  0.5964 -0.6421  0.2296
  927ANI     CN12965   2.174   2.665   4.280  0.5240 -0.0625  0.0738
  927ANI     CH12966   2.248   2.740   4.188 -0.0816 -0.3024 -0.6126
  927ANI     CH12967   2.204   2.866   4.146 -0.1895 -0.1524 -0.0656
  927ANI     CH12968   2.083   2.911   4.199  0.3219  0.5981  0.4781
  927ANI     CH12969   2.010   2.832   4.289  0.3662  0.2291  0.1961
  927ANI     CH12970   2.050   2.705   4.332  0.3349  0.0063 -0.4293
  927ANI     NH12971   2.218   2.544   4.319 -0.6274 -0.3879  0.4055
  927ANI     HC12972   2.343   2.702   4.153  0.1572 -0.0480 -0.2523
  927ANI     HC12973   2.266   2.933   4.089 -0.1971  1.2056  1.4971
  927ANI     HC12974   2.049   3.011   4.176  0.2247  0.3573 -0.4528
  927ANI     HC12975   1.914   2.868   4.324 -0.0370  2.4510 -2.9822
  927ANI     HC12976   2.004   2.641   4.405  1.6339 -0.8460 -0.3414
  927ANI     HN12977   2.151   2.469   4.316 -0.2332 -0.7305  0.1343
  927ANI     HN12978   2.296   2.507   4.267 -0.4279  0.8565 -0.2154
  928ANI     CN12979   1.334   5.207   5.705 -0.4137 -0.0003  0.3046
  928ANI     CH12980   1.408   5.314   5.758 -0.5374  0.3604 -0.2469
  928ANI     CH12981   1.455   5.311   5.890 -0.5064  0.5731 -0.2526
  928ANI     CH12982   1.423   5.203   5.973 -0.0171  0.3520 -0.3511
  928ANI     CH12983   1.341   5.103   5.921  0.2797  0.0741 -0.2854
  928ANI     CH12984   1.295   5.103   5.789 -0.3235 -0.3372 -0.0727
  928ANI     NH12985   1.281   5.213   5.582 -0.2170 -0.6735  0.1852
  928ANI     HC12986   1.438   5.400   5.700 -1.6054  1.0238  0.1505
  928ANI     HC12987   1.527   5.385   5.923  0.8012 -1.0814  0.6595
  928ANI     HC12988   1.455   5.187   6.076 -4.8172 -1.4532  0.9681
  928ANI     HC12989   1.312   5.019   5.982  1.8126  0.5357  1.1019
  928ANI     HC12990   1.247   5.017   5.744  3.5982 -1.7939 -1.6392
  928ANI     HN12991   1.355   5.254   5.528 -0.7443 -0.3542 -0.3021
  928ANI     HN12992   1.214   5.288   5.574  1.8309  1.2118  0.2959
  929ANI     CN12993   2.830   3.039   3.307 -0.2436 -0.0678 -0.7443
  929ANI     CH12994   2.724   2.958   3.351  0.4088 -0.2641  0.4852
  929ANI     CH12995   2.609   3.019   3.400  0.8342  0.0462  1.0998
  929ANI     CH12996   2.601   3.158   3.414 -0.5342  0.1186 -0.3413
  929ANI     CH12997   2.707   3.236   3.367  0.1919 -0.5401  0.2051
  929ANI     CH12998   2.825   3.178   3.318  0.3931 -0.1170  0.1892
  929ANI     NH12999   2.946   2.990   3.263  0.4871  0.8860  0.1087
  929ANI     HC13000   2.734   2.851   3.358  0.4867 -0.2802  0.1414
  929ANI     HC13001   2.524   2.953   3.414  0.2555  0.9235  1.8328
  929ANI     HC13002   2.517   3.214   3.453 -0.9139 -0.2939 -0.5478
  929ANI     HC13003   2.701   3.344   3.371  1.3196 -0.4370 -0.5813
  929ANI     HC13004   2.904   3.233   3.268  0.8169 -1.4736 -0.6550
  929ANI     HN13005   3.000   2.929   3.323 -1.7446  0.6930  1.9528
  929ANI     HN13006   2.935   2.955   3.169 -1.8836  0.1278  0.6627
  930ANI     CN13007   0.474   5.903   5.914 -0.2247 -0.5699 -0.1486
  930ANI     CH13008   0.549   5.892   6.031 -0.6162 -0.4068  0.1227
  930ANI     CH13009   0.485   5.912   6.154  0.2575  0.3885  0.4596
  930ANI     CH13010   0.347   5.934   6.164  0.1327 -0.1449 -0.0213
  930ANI     CH13011   0.279   5.962   6.045 -0.0940  0.1690  0.1802
  930ANI     CH13012   0.338   5.938   5.920 -0.0408  0.1023  0.2192
  930ANI     NH13013   0.528   5.869   5.797  0.2502 -0.4256  0.0288
  930ANI     HC13014   0.653   5.862   6.027 -0.9454 -1.7799  1.2170
  930ANI     HC13015   0.543   5.898   6.244 -1.4473  0.5561  1.6068
  930ANI     HC13016   0.298   5.928   6.260 -0.0118 -2.8538 -0.2257
  930ANI     HC13017   0.173   5.985   6.045 -0.2494 -0.5441  0.0730
  930ANI     HC13018   0.289   5.943   5.825 -1.1808  0.1220  0.7993
  930ANI     HN13019   0.461   5.829   5.733 -0.4946 -0.7899  1.0258
  930ANI     HN13020   0.608   5.807   5.803 -1.2510 -2.6951 -2.2181
  931ANI     CN13021   3.544   3.760   0.525  0.6420 -0.2012 -0.2227
  931ANI     CH13022   3.541   3.875   0.446 -0.0843 -0.4130 -0.5019
  931ANI     CH13023   3.510   3.865   0.309 -0.3839  0.0497 -0.4714
  931ANI     CH13024   3.482   3.740   0.251  0.2412 -0.0310 -0.5940
  931ANI     CH13025   3.483   3.623   0.327  0.1899 -0.0143 -0.5673
  931ANI     CH13026   3.525   3.637   0.460 -0.2079  0.0483 -0.4468
  931ANI     NH13027   3.573   3.765   0.656 -0.0616 -0.2911 -0.0609
  931ANI     HC13028   3.558   3.970   0.496  2.1129 -1.5966  1.0627
  931ANI     HC13029   3.514   3.950   0.244  2.1098 -0.1564 -0.6210
  931ANI     HC13030   3.470   3.736   0.144 -2.6674  0.3557 -0.3183
  931ANI     HC13031   3.445   3.528   0.291 -0.1715 -0.1019  0.0223
  931ANI     HC13032   3.531   3.549   0.522  0.4234  0.1413 -0.3750
  931ANI     HN13033   3.624   3.850   0.677 -0.4851  0.3511 -1.5522
  931ANI     HN13034   3.605   3.678   0.696  2.0720 -0.2519 -1.5828
  932ANI     CN13035   4.546   1.752   2.901 -0.1233 -0.4715 -0.1159
  932ANI     CH13036   4.671   1.706   2.946  0.0991  0.6620  0.4343
  932ANI     CH13037   4.786   1.776   2.909  0.3253  0.1069  0.0733
  932ANI     CH13038   4.779   1.889   2.826 -0.7691  0.1913  0.2735
  932ANI     CH13039   4.653   1.931   2.782 -0.4463 -0.0200 -0.8685
  932ANI     CH13040   4.536   1.864   2.819 -0.0634  0.2087  0.8044
  932ANI     NH13041   4.434   1.699   2.952  0.0413 -0.1470  0.5854
  932ANI     HC13042   4.672   1.625   3.017  0.7240 -1.2756 -1.7239
  932ANI     HC13043   4.885   1.753   2.945  0.5321 -1.0946 -1.2268
  932ANI     HC13044   4.864   1.947   2.794 -2.3851  0.8901 -2.9287
  932ANI     HC13045   4.644   2.022   2.724 -0.9536  1.1950  1.0666
  932ANI     HC13046   4.445   1.915   2.790 -0.6934  0.3188  2.9216
  932ANI     HN13047   4.360   1.766   2.970  0.7335  0.5977  0.7164
  932ANI     HN13048   4.449   1.650   3.039  0.7704 -2.8248 -0.9910
  933ANI     CN13049   2.901   5.585   3.047  0.8875  0.0193  0.4450
  933ANI     CH13050   2.873   5.707   3.110  0.1097 -0.0003  0.1453
  933ANI     CH13051   2.776   5.708   3.211 -1.0038 -0.2376 -0.9168
  933ANI     CH13052   2.718   5.589   3.259  0.0773 -0.3095  0.2362
  933ANI     CH13053   2.742   5.471   3.188  0.3875 -0.2510  0.2422
  933ANI     CH13054   2.832   5.469   3.081  0.0423  0.3627 -0.0646
  933ANI     NH13055   2.992   5.582   2.948 -0.0638  0.2327 -0.4433
  933ANI     HC13056   2.919   5.802   3.086 -1.6443  1.9055  3.8635
  933ANI     HC13057   2.745   5.804   3.249 -0.6456  0.2610 -1.8835
  933ANI     HC13058   2.653   5.585   3.345 -0.1386 -0.9827  0.0400
  933ANI     HC13059   2.691   5.377   3.203  1.1506 -0.4895  1.3834
  933ANI     HC13060   2.853   5.386   3.015  0.7096  1.1798 -0.8935
  933ANI     HN13061   3.035   5.664   2.907 -0.5361  1.7385  1.9255
  933ANI     HN13062   2.973   5.507   2.884 -0.7588  0.5927 -0.6757
  934ANI     CN13063   3.587   2.182   3.845  0.4241  0.0864 -0.5309
  934ANI     CH13064   3.524   2.297   3.797 -0.4696  0.0663  0.5780
  934ANI     CH13065   3.392   2.291   3.752 -0.0601  0.1090 -0.6632
  934ANI     CH13066   3.327   2.168   3.734 -0.1509  0.0938 -0.2403
  934ANI     CH13067   3.388   2.053   3.786  0.5295  0.6119  0.1165
  934ANI     CH13068   3.516   2.061   3.844  0.5878 -0.0170  0.0823
  934ANI     NH13069   3.711   2.176   3.896  0.3079  0.0626 -0.2545
  934ANI     HC13070   3.573   2.393   3.807 -0.2761 -0.0325  0.5885
  934ANI     HC13071   3.339   2.383   3.730 -2.4409 -0.3045  2.8315
  934ANI     HC13072   3.223   2.169   3.706 -0.4466  3.7182  0.6676
  934ANI     HC13073   3.346   1.955   3.770  1.5935  0.3377 -1.1003
  934ANI     HC13074   3.571   1.973   3.870  1.3207 -0.0113 -1.4312
  934ANI     HN13075   3.772   2.256   3.894  1.4641 -0.8061 -0.4227
  934ANI     HN13076   3.763   2.104   3.848 -1.3098 -1.0109 -0.4483
  935ANI     CN13077   5.127   5.584   0.772 -0.0070 -0.0182 -0.0428
  935ANI     CH13078   5.190   5.460   0.781 -0.0279 -0.0033  0.2998
  935ANI     CH13079   5.297   5.430   0.695 -0.2729 -0.5974  0.1950
  935ANI     CH13080   5.333   5.520   0.594  0.2061 -0.2806  0.6418
  935ANI     CH13081   5.256   5.635   0.572 -0.0942 -0.4135  0.9874
  935ANI     CH13082   5.155   5.668   0.663 -0.0737  0.8203  0.5785
  935ANI     NH13083   5.036   5.618   0.864  0.0847  0.1059  0.0020
  935ANI     HC13084   5.169   5.386   0.858 -0.0529  0.6849  0.9573
  935ANI     HC13085   5.345   5.334   0.700 -0.2175 -0.5423  0.8153
  935ANI     HC13086   5.417   5.505   0.528 -0.1964  1.2627 -0.2382
  935ANI     HC13087   5.282   5.708   0.496 -1.4872 -0.2342  0.6725
  935ANI     HC13088   5.107   5.763   0.646  0.3332  1.0404  0.6587
  935ANI     HN13089   5.003   5.536   0.912 -0.1580  0.6421  0.7645
  935ANI     HN13090   4.962   5.681   0.839  0.6288  0.8853  0.3235
  936ANI     CN13091   2.450   3.756   2.320  0.3447 -0.6357 -0.4883
  936ANI     CH13092   2.404   3.881   2.277  0.4461 -0.3917  0.1069
  936ANI     CH13093   2.324   3.891   2.162  0.2382 -0.0327  0.2819
  936ANI     CH13094   2.272   3.778   2.098  0.1792 -0.0079  0.2852
  936ANI     CH13095   2.317   3.652   2.142 -0.4729 -0.3030  0.1159
  936ANI     CH13096   2.409   3.644   2.247 -0.5330 -0.7194  0.1361
  936ANI     NH13097   2.538   3.753   2.421 -0.4530  0.5440  0.2583
  936ANI     HC13098   2.437   3.973   2.323  0.7604  0.0707 -1.0097
  936ANI     HC13099   2.311   3.993   2.128  1.2941 -0.9422 -2.9754
  936ANI     HC13100   2.203   3.784   2.015 -1.3012 -1.1450  1.4106
  936ANI     HC13101   2.293   3.559   2.094 -1.2796 -0.9923  1.8583
  936ANI     HC13102   2.468   3.555   2.263  1.2337  0.5391  0.6975
  936ANI     HN13103   2.548   3.662   2.464  0.6453  0.3510 -0.3855
  936ANI     HN13104   2.531   3.827   2.489 -2.1511  0.0231  0.6791
  937ANI     CN13105   3.044   3.654   5.226 -0.2876  0.4266  0.1935
  937ANI     CH13106   2.912   3.620   5.193 -0.5124  0.7601  0.7493
  937ANI     CH13107   2.862   3.650   5.066  0.2275 -0.7184  0.0956
  937ANI     CH13108   2.941   3.717   4.972 -0.1102 -0.9834 -0.3817
  937ANI     CH13109   3.073   3.749   5.006 -0.4001  0.1269 -0.2945
  937ANI     CH13110   3.126   3.716   5.131 -0.3025 -0.6659 -0.5464
  937ANI     NH13111   3.105   3.621   5.341 -0.0135 -0.5261 -0.2126
  937ANI     HC13112   2.852   3.567   5.266  2.1309 -0.3597  2.1873
  937ANI     HC13113   2.761   3.623   5.038 -0.8232  2.2531  0.8780
  937ANI     HC13114   2.901   3.736   4.874  2.7383  1.9912 -1.0600
  937ANI     HC13115   3.131   3.798   4.929 -0.5736  2.2325  0.8481
  937ANI     HC13116   3.229   3.739   5.156 -1.0532  1.4114  0.7942
  937ANI     HN13117   3.202   3.599   5.330  0.3741  1.4820 -1.0365
  937ANI     HN13118   3.063   3.549   5.398 -0.5212 -0.3469 -0.3507
  938ANI     CN13119   4.047   3.282   3.968 -0.2803  0.5132  0.1846
  938ANI     CH13120   4.143   3.333   4.055 -0.1382 -0.0459  0.3551
  938ANI     CH13121   4.182   3.255   4.165 -1.0168 -0.2324  0.5355
  938ANI     CH13122   4.138   3.123   4.183  0.2600 -0.6716  0.4521
  938ANI     CH13123   4.046   3.070   4.093 -0.2488  0.0529  0.5395
  938ANI     CH13124   4.000   3.151   3.989  1.0965 -0.0497 -0.1482
  938ANI     NH13125   4.005   3.362   3.869 -0.1043  0.0987 -0.2288
  938ANI     HC13126   4.182   3.432   4.037 -4.2247  1.1385 -2.5101
  938ANI     HC13127   4.237   3.310   4.240  2.6581 -0.4366 -1.8980
  938ANI     HC13128   4.170   3.072   4.273  0.9233  0.1575  0.6994
  938ANI     HC13129   4.007   2.971   4.111 -1.9548  0.7179  0.6562
  938ANI     HC13130   3.931   3.107   3.919  0.8932  1.3902 -0.8877
  938ANI     HN13131   3.956   3.311   3.796 -2.2298 -0.9339  1.8568
  938ANI     HN13132   3.938   3.433   3.894 -0.6260 -0.5455  0.2061
  939ANI     CN13133   2.291   3.290   4.238  0.0521 -0.1182 -0.3703
  939ANI     CH13134   2.408   3.352   4.192  0.0606 -0.2361 -0.5082
  939ANI     CH13135   2.537   3.304   4.214  0.0245 -0.0182  0.1926
  939ANI     CH13136   2.546   3.182   4.282 -0.0798 -0.1698 -0.0628
  939ANI     CH13137   2.432   3.114   4.327 -0.2385 -0.0840 -0.3337
  939ANI     CH13138   2.305   3.164   4.298 -0.2655 -0.0675 -0.1904
  939ANI     NH13139   2.174   3.346   4.207 -0.1543  0.1487  0.8688
  939ANI     HC13140   2.390   3.445   4.139 -3.5239  0.2087  1.3345
  939ANI     HC13141   2.630   3.334   4.169 -0.2493  0.0175 -0.3510
  939ANI     HC13142   2.642   3.140   4.310  0.6250  0.3685 -1.6197
  939ANI     HC13143   2.435   3.021   4.381 -3.4811  0.7438  1.3537
  939ANI     HC13144   2.213   3.117   4.329 -0.1393 -0.4548 -0.3951
  939ANI     HN13145   2.084   3.304   4.228 -0.5050 -0.1875 -1.1594
  939ANI     HN13146   2.165   3.442   4.238 -1.7777  0.2838  0.0952
  940ANI     CN13147   3.851   5.902   6.154 -0.7807 -0.0871  0.2477
  940ANI     CH13148   3.983   5.879   6.194 -0.6935 -0.9530 -0.4984
  940ANI     CH13149   4.020   5.755   6.246 -0.0722 -0.4159  0.3547
  940ANI     CH13150   3.928   5.651   6.260 -0.0190 -0.4689  0.3135
  940ANI     CH13151   3.797   5.672   6.216  0.1319 -0.1407  0.0262
  940ANI     CH13152   3.760   5.795   6.159 -0.3643 -0.4777 -0.3905
  940ANI     NH13153   3.811   6.017   6.099  0.3334  0.2862  0.2047
  940ANI     HC13154   4.061   5.954   6.185  0.3741 -2.1392 -1.2131
  940ANI     HC13155   4.125   5.729   6.253 -0.2369 -0.8593  1.2511
  940ANI     HC13156   3.949   5.555   6.305  1.9591  0.3860  1.2733
  940ANI     HC13157   3.727   5.590   6.213 -0.0874  0.0724 -1.1202
  940ANI     HC13158   3.660   5.803   6.120 -0.4106 -3.3883 -1.0020
  940ANI     HN13159   3.892   6.074   6.077  0.6512 -0.0781  0.4381
  940ANI     HN13160   3.771   5.991   6.010  0.1742  1.5233 -0.1063
  941ANI     CN13161   4.759   2.650   4.586  0.3308  0.2314 -0.0256
  941ANI     CH13162   4.656   2.584   4.655  0.3411 -0.1592 -0.3863
  941ANI     CH13163   4.581   2.661   4.744  0.5000 -0.0189 -0.3739
  941ANI     CH13164   4.597   2.799   4.760  0.4720 -0.0275 -0.2676
  941ANI     CH13165   4.697   2.864   4.686  0.2770  0.2940 -0.2532
  941ANI     CH13166   4.775   2.789   4.597  0.2790  0.2515 -0.2151
  941ANI     NH13167   4.834   2.576   4.503 -0.1816 -0.0285 -0.2598
  941ANI     HC13168   4.634   2.479   4.657 -2.3746  0.3916  0.6592
  941ANI     HC13169   4.507   2.608   4.803  0.5197  0.2099 -0.1378
  941ANI     HC13170   4.532   2.854   4.826  1.5210  0.1767  0.6173
  941ANI     HC13171   4.711   2.971   4.688 -2.2612  0.6836 -1.1557
  941ANI     HC13172   4.850   2.833   4.533 -1.5460  0.6529 -2.1354
  941ANI     HN13173   4.837   2.612   4.409 -0.0991 -0.2265 -0.3311
  941ANI     HN13174   4.810   2.479   4.515 -1.2433  0.2982  0.4067
  942ANI     CN13175   1.007   0.018   2.529  0.0283 -0.3918 -0.0783
  942ANI     CH13176   1.054   0.003   2.661 -0.5960  0.1855  0.2112
  942ANI     CH13177   1.021  -0.115   2.729  0.2116 -0.3654 -0.3465
  942ANI     CH13178   0.944  -0.215   2.668  0.6370 -0.7297 -0.2860
  942ANI     CH13179   0.906  -0.202   2.534  0.4944  0.1447 -0.1630
  942ANI     CH13180   0.936  -0.084   2.465 -0.3654  0.1596 -0.5187
  942ANI     NH13181   1.038   0.130   2.463 -0.8697 -0.1810 -0.1372
  942ANI     HC13182   1.117   0.077   2.708 -1.7934  2.9015 -2.2428
  942ANI     HC13183   1.045  -0.123   2.834 -1.7355  0.2107  0.1689
  942ANI     HC13184   0.919  -0.300   2.729  1.2086  0.8340  2.2064
  942ANI     HC13185   0.836  -0.267   2.485  0.4679 -0.0877  0.1832
  942ANI     HC13186   0.886  -0.076   2.370 -1.1814 -0.5854 -0.1486
  942ANI     HN13187   1.048   0.122   2.363  1.1253 -1.4229  0.1428
  942ANI     HN13188   1.106   0.193   2.503 -0.8196 -0.9670  1.0093
  943ANI     CN13189   3.698   1.713   2.895  0.1740  0.4610  0.7323
  943ANI     CH13190   3.766   1.819   2.833 -0.4610  0.4054 -0.0731
  943ANI     CH13191   3.756   1.851   2.697  0.1821  0.0915 -0.2010
  943ANI     CH13192   3.670   1.776   2.617  0.3833 -0.4849  0.1244
  943ANI     CH13193   3.597   1.672   2.677 -0.0604 -0.2719 -0.0423
  943ANI     CH13194   3.611   1.640   2.813  0.2790  0.9250  0.2068
  943ANI     NH13195   3.695   1.687   3.026 -0.2544 -0.6336  0.5122
  943ANI     HC13196   3.808   1.890   2.903  2.0433 -0.7955 -0.3084
  943ANI     HC13197   3.802   1.941   2.659  1.8699 -1.1036 -1.0147
  943ANI     HC13198   3.665   1.802   2.512  3.4915 -1.2658 -0.2478
  943ANI     HC13199   3.534   1.603   2.622 -2.3107  0.3790  1.6658
  943ANI     HC13200   3.552   1.558   2.849  0.1401  1.6595  1.7001
  943ANI     HN13201   3.734   1.763   3.080 -0.6049  0.4662 -0.7616
  943ANI     HN13202   3.646   1.617   3.079  1.9447 -0.1129  3.3500
  944ANI     CN13203   5.463   3.407   4.208 -0.1365  0.7017 -0.1469
  944ANI     CH13204   5.592   3.358   4.235 -0.3843  0.0495 -0.1228
  944ANI     CH13205   5.621   3.331   4.369 -0.2218  0.1238 -0.1431
  944ANI     CH13206   5.525   3.338   4.470  0.1244 -0.0897  0.2058
  944ANI     CH13207   5.397   3.387   4.439  0.1188 -0.0396  0.3080
  944ANI     CH13208   5.370   3.432   4.310  0.3782  0.4066  0.4045
  944ANI     NH13209   5.438   3.434   4.080 -0.3156  0.5086 -0.1541
  944ANI     HC13210   5.668   3.362   4.160  0.4449 -0.2723  0.6917
  944ANI     HC13211   5.721   3.309   4.406 -0.5654 -1.4940 -0.1196
  944ANI     HC13212   5.549   3.314   4.573 -0.6338 -1.1833  0.1350
  944ANI     HC13213   5.318   3.399   4.511 -2.0737  0.7784 -2.1710
  944ANI     HC13214   5.269   3.464   4.288 -0.2290 -1.1526  0.8194
  944ANI     HN13215   5.482   3.368   4.018  0.8403 -0.0147  1.2123
  944ANI     HN13216   5.343   3.416   4.050 -0.0442  0.0781 -0.7764
  945ANI     CN13217   2.390   4.892   3.594 -0.0753 -0.3950  0.4084
  945ANI     CH13218   2.384   4.927   3.459 -0.3173 -0.0920  0.4971
  945ANI     CH13219   2.406   4.840   3.352 -0.8157  0.0303  0.2926
  945ANI     CH13220   2.422   4.706   3.389  0.9143  0.1336 -0.0165
  945ANI     CH13221   2.405   4.660   3.520  0.7086  0.4189  0.0578
  945ANI     CH13222   2.393   4.755   3.623 -0.4717 -0.3547  0.6489
  945ANI     NH13223   2.397   4.980   3.695  0.3543 -0.2764  0.2780
  945ANI     HC13224   2.381   5.031   3.429 -2.4028 -0.2011  0.2138
  945ANI     HC13225   2.416   4.886   3.254  2.5422  0.6371  0.8472
  945ANI     HC13226   2.434   4.633   3.311 -2.0682  0.4733 -0.8663
  945ANI     HC13227   2.404   4.557   3.550 -0.2574  0.7037  1.0249
  945ANI     HC13228   2.399   4.725   3.726  0.1197  0.2114  0.7873
  945ANI     HN13229   2.481   5.035   3.685 -0.2131  0.5559 -0.0471
  945ANI     HN13230   2.411   4.920   3.775 -1.4055  0.6671  1.3465
  946ANI     CN13231   1.108   0.358   4.451 -0.8754  0.1426 -0.1183
  946ANI     CH13232   1.245   0.379   4.471 -0.8163  0.1580 -0.5344
  946ANI     CH13233   1.317   0.472   4.396  0.2550 -0.3744 -0.1809
  946ANI     CH13234   1.246   0.548   4.301 -0.2046  0.0008  0.4596
  946ANI     CH13235   1.107   0.536   4.289 -0.1734 -0.1413  0.2477
  946ANI     CH13236   1.037   0.443   4.366 -0.8752 -0.2314 -0.4935
  946ANI     NH13237   1.046   0.266   4.526 -0.3938 -0.1262 -0.0485
  946ANI     HC13238   1.294   0.315   4.543 -1.5574 -0.6331 -0.7242
  946ANI     HC13239   1.422   0.489   4.413 -0.1298  1.3494  0.6957
  946ANI     HC13240   1.301   0.619   4.241 -0.3368 -1.2862 -1.1879
  946ANI     HC13241   1.053   0.605   4.226  2.6786  0.4661 -1.6656
  946ANI     HC13242   0.931   0.429   4.350 -1.0170  0.7539 -0.4441
  946ANI     HN13243   1.096   0.221   4.601  1.1971 -1.8316 -2.0519
  946ANI     HN13244   0.961   0.306   4.563 -1.4772 -0.3203 -2.2087
  947ANI     CN13245   4.451   4.081   3.154  0.4849 -0.2161  0.0896
  947ANI     CH13246   4.404   4.047   3.281  0.2686 -0.4197 -0.0423
  947ANI     CH13247   4.302   4.123   3.340  0.0807 -0.1902 -0.6577
  947ANI     CH13248   4.241   4.219   3.260  0.0060  0.3106  0.0001
  947ANI     CH13249   4.287   4.259   3.134 -0.3681 -0.2068 -0.3037
  947ANI     CH13250   4.393   4.185   3.080  0.1401 -0.0950  0.5296
  947ANI     NH13251   4.546   4.002   3.102  0.5910 -0.1707  0.2152
  947ANI     HC13252   4.452   3.978   3.349  0.6123  1.2573  1.4678
  947ANI     HC13253   4.268   4.097   3.439  0.8617  1.3803  0.0302
  947ANI     HC13254   4.159   4.274   3.304 -1.7102 -1.2203 -1.2248
  947ANI     HC13255   4.233   4.328   3.070  2.8585  2.8968  0.1353
  947ANI     HC13256   4.428   4.193   2.978  1.4712 -0.1760  0.9757
  947ANI     HN13257   4.543   3.902   3.120  1.2952 -0.4752 -1.2794
  947ANI     HN13258   4.557   4.005   3.002 -1.6652 -0.7516 -0.0856
  948ANI     CN13259   4.419   0.037   1.814 -0.2245 -0.4512 -0.0550
  948ANI     CH13260   4.314   0.121   1.776  0.1595 -0.0246 -0.1862
  948ANI     CH13261   4.320   0.261   1.784 -0.1891 -0.0278  0.1683
  948ANI     CH13262   4.440   0.317   1.827  0.0673 -0.0145 -0.5488
  948ANI     CH13263   4.549   0.236   1.861 -0.3413 -0.3394 -0.0035
  948ANI     CH13264   4.538   0.096   1.860 -0.2624 -0.3449 -0.0953
  948ANI     NH13265   4.406  -0.094   1.790 -0.0200 -0.4076 -0.4032
  948ANI     HC13266   4.220   0.077   1.743 -0.3680 -0.1629  1.4604
  948ANI     HC13267   4.232   0.321   1.766  0.0843  0.3587  0.1182
  948ANI     HC13268   4.452   0.423   1.840 -0.0324  0.3137 -2.9916
  948ANI     HC13269   4.635   0.287   1.903 -1.2686  1.6205 -0.4512
  948ANI     HC13270   4.629   0.046   1.889 -0.2891  0.7589  1.9605
  948ANI     HN13271   4.349  -0.110   1.709  1.6266 -2.7133 -1.1586
  948ANI     HN13272   4.495  -0.131   1.759 -1.2264 -1.7558 -2.3428
  949ANI     CN13273   6.268   0.112   6.186 -0.1072  0.0425  0.0253
  949ANI     CH13274   6.263   0.161   6.317 -0.3350  0.1223 -0.0139
  949ANI     CH13275   6.144   0.182   6.387 -0.2885  0.4240 -0.0265
  949ANI     CH13276   6.024   0.148   6.323  0.2129 -1.1250 -0.1497
  949ANI     CH13277   6.028   0.103   6.190 -0.2849 -0.0419 -0.5335
  949ANI     CH13278   6.147   0.085   6.119 -0.0146 -0.2316 -0.0337
  949ANI     NH13279   6.382   0.088   6.121 -0.1372  1.0623 -0.4123
  949ANI     HC13280   6.353   0.181   6.373  0.0276  0.4049 -0.6884
  949ANI     HC13281   6.145   0.210   6.492 -0.8174 -1.7070  0.5748
  949ANI     HC13282   5.927   0.157   6.368 -0.7769 -3.6671 -1.6430
  949ANI     HC13283   5.930   0.077   6.154 -1.9802  3.4107  1.2874
  949ANI     HC13284   6.146   0.049   6.018 -2.2375  0.9505 -0.4490
  949ANI     HN13285   6.377   0.067   6.022 -1.2736  0.4937 -0.2353
  949ANI     HN13286   6.470   0.129   6.150 -0.3526  2.6982 -1.9704
  950ANI     CN13287   0.671   3.240   0.856  0.1218  0.1692  0.0050
  950ANI     CH13288   0.536   3.237   0.818  0.2258  0.6316 -0.4049
  950ANI     CH13289   0.465   3.117   0.821  0.5244  0.4506 -0.5516
  950ANI     CH13290   0.535   2.999   0.849 -0.1457  0.1807  0.0171
  950ANI     CH13291   0.673   3.005   0.874 -0.1757  0.3742  0.1383
  950ANI     CH13292   0.747   3.123   0.871  0.0999  0.2105  0.4414
  950ANI     NH13293   0.733   3.359   0.862 -0.3411  0.4111  0.0240
  950ANI     HC13294   0.476   3.325   0.799 -0.5085  0.7942  2.3512
  950ANI     HC13295   0.359   3.109   0.801  0.6426  0.3150 -1.1212
  950ANI     HC13296   0.486   2.903   0.849 -2.7036  1.3972 -2.5919
  950ANI     HC13297   0.719   2.913   0.906 -3.0809 -0.8845  0.9301
  950ANI     HC13298   0.853   3.123   0.893  0.0287 -0.6150  0.7852
  950ANI     HN13299   0.824   3.349   0.904 -0.1686  1.9502  0.0202
  950ANI     HN13300   0.685   3.437   0.904 -0.8606 -0.5450  1.2593
  951ANI     CN13301   3.833   3.359   2.685  0.2003 -0.4190  0.0497
  951ANI     CH13302   3.701   3.402   2.702  0.5863  0.7043  0.2380
  951ANI     CH13303   3.637   3.473   2.600  0.3313 -0.4336 -0.3982
  951ANI     CH13304   3.702   3.505   2.480  0.2084 -0.0321 -0.3585
  951ANI     CH13305   3.835   3.466   2.465  0.0849 -0.5368 -0.1708
  951ANI     CH13306   3.896   3.388   2.563 -0.0203 -0.5163 -0.0892
  951ANI     NH13307   3.907   3.301   2.781 -0.0142  0.0071  0.4718
  951ANI     HC13308   3.652   3.379   2.795 -1.3296 -0.0531 -0.9250
  951ANI     HC13309   3.535   3.501   2.621  0.6859 -0.0428  0.8099
  951ANI     HC13310   3.646   3.556   2.403  0.3260 -0.6513 -0.8648
  951ANI     HC13311   3.902   3.483   2.382 -1.1203 -0.3464 -1.1162
  951ANI     HC13312   4.000   3.361   2.548  1.0999  2.0337  2.5742
  951ANI     HN13313   3.854   3.305   2.867 -0.3187  1.9715  0.2090
  951ANI     HN13314   3.937   3.212   2.743 -0.4160 -0.3549  0.9976
  952ANI     CN13315   5.912   3.152   6.237  0.2112  0.0596 -0.1881
  952ANI     CH13316   5.947   3.142   6.373 -0.8862  0.2975  0.1190
  952ANI     CH13317   5.875   3.060   6.460 -0.2208  0.0803  0.4670
  952ANI     CH13318   5.769   2.983   6.412  0.0396 -0.0969  0.1798
  952ANI     CH13319   5.731   2.989   6.277 -0.5733  0.3637  0.3710
  952ANI     CH13320   5.807   3.071   6.192  0.3339 -0.4371  0.4116
  952ANI     NH13321   5.976   3.232   6.152 -0.2430  0.0486 -0.5424
  952ANI     HC13322   6.027   3.199   6.418  0.0794 -0.6210 -0.4194
  952ANI     HC13323   5.910   3.057   6.562 -0.3645  1.2981  0.5708
  952ANI     HC13324   5.705   2.924   6.475  0.1199 -0.2673  0.1015
  952ANI     HC13325   5.651   2.925   6.244  0.0110  0.7153 -1.8332
  952ANI     HC13326   5.778   3.072   6.088 -0.8895 -2.0954  0.7165
  952ANI     HN13327   6.067   3.238   6.195 -0.8630  0.6612  0.6897
  952ANI     HN13328   5.989   3.196   6.058 -2.0351  0.2478 -0.8835
  953ANI     CN13329   5.645   5.313   1.184  0.1122  0.1476  0.1581
  953ANI     CH13330   5.746   5.367   1.103  0.1771  0.0785  0.1920
  953ANI     CH13331   5.726   5.388   0.966  0.4927 -0.3805  0.0729
  953ANI     CH13332   5.606   5.353   0.904  0.5118 -0.0676 -0.1395
  953ANI     CH13333   5.506   5.296   0.983  1.0733 -0.1335  0.5195
  953ANI     CH13334   5.528   5.271   1.119 -0.1638  0.0066  0.7486
  953ANI     NH13335   5.670   5.279   1.311 -0.2216 -0.3625  0.0892
  953ANI     HC13336   5.836   5.406   1.149  2.1938 -0.8799 -2.7790
  953ANI     HC13337   5.809   5.427   0.909  0.6077  0.1306  0.5754
  953ANI     HC13338   5.594   5.366   0.797 -2.1889  0.7533  0.2259
  953ANI     HC13339   5.412   5.260   0.944  1.5036  1.4655 -2.0627
  953ANI     HC13340   5.458   5.213   1.177  0.1409  1.9194  3.1298
  953ANI     HN13341   5.593   5.220   1.341 -0.9464 -0.6890 -2.3255
  953ANI     HN13342   5.740   5.206   1.308 -1.0317 -1.1429 -0.1565
  954ANI     CN13343   2.711   1.671   0.013  0.2078 -0.0475  0.1367
  954ANI     CH13344   2.686   1.809   0.009 -0.3136 -0.1476 -0.0408
  954ANI     CH13345   2.793   1.899   0.012 -0.3067 -0.1630  0.1652
  954ANI     CH13346   2.923   1.850   0.022 -0.3493 -0.3839 -0.3599
  954ANI     CH13347   2.945   1.711   0.025 -0.0464 -0.3250  0.3810
  954ANI     CH13348   2.841   1.618   0.019  0.0521 -0.4245  0.2034
  954ANI     NH13349   2.610   1.584   0.026  0.0084  0.1038 -0.4040
  954ANI     HC13350   2.580   1.828   0.003 -0.4376 -0.2008  1.6828
  954ANI     HC13351   2.783   2.007   0.016 -0.7656 -0.2229  0.6934
  954ANI     HC13352   3.002   1.923   0.028 -0.3275 -0.4069 -0.3626
  954ANI     HC13353   3.050   1.686   0.034  0.1668  0.3409 -0.1656
  954ANI     HC13354   2.863   1.514   0.035  0.3821  0.0450  3.0450
  954ANI     HN13355   2.623   1.486   0.005  0.7701 -0.3587  2.0529
  954ANI     HN13356   2.517   1.613  -0.001 -0.4153 -0.6634  0.2127
  955ANI     CN13357   0.140   1.000   1.886 -0.2053  0.0297 -0.5685
  955ANI     CH13358   0.019   0.978   1.953  0.0729  0.1261 -0.0310
  955ANI     CH13359  -0.049   0.858   1.929  0.2750  0.1064 -0.5026
  955ANI     CH13360   0.002   0.766   1.836  0.0352  0.0385 -0.5666
  955ANI     CH13361   0.114   0.799   1.759  0.4685  0.0601  0.0699
  955ANI     CH13362   0.186   0.917   1.783  0.5281  0.1032 -0.3086
  955ANI     NH13363   0.193   1.122   1.902 -0.0192 -0.1787  0.4550
  955ANI     HC13364  -0.009   1.055   2.023 -1.8264  0.9494 -1.6682
  955ANI     HC13365  -0.139   0.835   1.984  0.2973  1.2590  0.0242
  955ANI     HC13366  -0.043   0.674   1.803  0.6679 -0.3004 -0.4787
  955ANI     HC13367   0.148   0.728   1.685  1.9400  1.8213 -0.9876
  955ANI     HC13368   0.270   0.945   1.722  0.7752 -1.8964 -0.9470
  955ANI     HN13369   0.189   1.144   2.001  1.7245  0.8922  0.3045
  955ANI     HN13370   0.287   1.132   1.865  0.6108  0.0129  2.0665
  956ANI     CN13371   0.890   5.874   4.871  0.0724  0.2379  0.1933
  956ANI     CH13372   0.982   5.811   4.786  0.3303  0.3694  0.3715
  956ANI     CH13373   1.065   5.708   4.833  0.1009  0.0391  0.0554
  956ANI     CH13374   1.058   5.675   4.969 -0.5326  0.0120  0.0177
  956ANI     CH13375   0.980   5.745   5.062 -0.3281 -0.1136  0.2842
  956ANI     CH13376   0.894   5.842   5.008 -0.7362 -0.6177  0.0222
  956ANI     NH13377   0.799   5.959   4.823  0.1371 -0.0170 -0.3761
  956ANI     HC13378   0.991   5.834   4.681 -1.7745  0.1489  0.1072
  956ANI     HC13379   1.126   5.650   4.765 -0.9816 -1.3917  0.2762
  956ANI     HC13380   1.140   5.618   5.008  0.0368 -0.1097 -1.3196
  956ANI     HC13381   0.988   5.722   5.167 -2.4185 -1.4027  0.2002
  956ANI     HC13382   0.837   5.894   5.083 -0.2256 -1.3481  0.9242
  956ANI     HN13383   0.711   5.944   4.870 -0.6269 -2.9227 -2.5467
  956ANI     HN13384   0.780   5.941   4.725 -2.1595  0.4536 -0.0596
  957ANI     CN13385   1.877   2.665   5.417 -0.4327  0.0805 -0.4381
  957ANI     CH13386   1.887   2.567   5.517 -0.1070  0.9814  0.4169
  957ANI     CH13387   2.003   2.488   5.524 -0.3977  0.5016 -0.1360
  957ANI     CH13388   2.109   2.507   5.435  0.1318  0.4785  0.4902
  957ANI     CH13389   2.096   2.610   5.341 -0.3733 -0.0270  0.0020
  957ANI     CH13390   1.979   2.684   5.323 -0.1380  0.3292 -0.0675
  957ANI     NH13391   1.775   2.752   5.413  0.3429  1.0087 -0.1929
  957ANI     HC13392   1.818   2.570   5.599 -2.0407 -0.7416 -1.0953
  957ANI     HC13393   2.019   2.416   5.602  0.8674  2.4318  1.4497
  957ANI     HC13394   2.192   2.439   5.446 -1.9658 -2.0199  1.1924
  957ANI     HC13395   2.173   2.624   5.266 -1.6283  0.7714 -1.1600
  957ANI     HC13396   1.969   2.768   5.256  1.3392 -1.3260 -2.4329
  957ANI     HN13397   1.724   2.755   5.500 -1.1348  2.4102 -1.0820
  957ANI     HN13398   1.766   2.833   5.354  1.1405  2.1012  1.1620
  958ANI     CN13399   4.444   4.597   1.654  0.5457 -0.2031 -0.4583
  958ANI     CH13400   4.364   4.707   1.619 -0.1891 -0.5195  0.2159
  958ANI     CH13401   4.279   4.697   1.508  0.2546  0.9017 -0.2620
  958ANI     CH13402   4.283   4.585   1.425  0.0699  0.4258  0.3662
  958ANI     CH13403   4.353   4.472   1.469 -0.2843  0.1705  0.2749
  958ANI     CH13404   4.438   4.478   1.580 -0.0189 -0.5265  0.1137
  958ANI     NH13405   4.517   4.612   1.765  0.1348 -0.1389 -0.1988
  958ANI     HC13406   4.367   4.788   1.690  2.2211 -0.8709  0.5928
  958ANI     HC13407   4.219   4.782   1.480 -1.5700  0.7214  2.9040
  958ANI     HC13408   4.219   4.580   1.338  0.8588  2.5193 -0.3506
  958ANI     HC13409   4.334   4.377   1.420  2.0150 -0.5769  0.7919
  958ANI     HC13410   4.481   4.383   1.608 -0.2523 -0.7538 -0.2942
  958ANI     HN13411   4.502   4.690   1.827 -0.9071 -0.6411  0.2004
  958ANI     HN13412   4.604   4.564   1.783 -0.6195 -0.9744  1.3834
  959ANI     CN13413   6.257   1.683   5.130  0.1225 -0.0405  0.4198
  959ANI     CH13414   6.372   1.639   5.063  0.1946  0.1692  0.4042
  959ANI     CH13415   6.389   1.505   5.026  0.3602  0.2151  0.3134
  959ANI     CH13416   6.298   1.410   5.075  0.1050  0.3872  0.1729
  959ANI     CH13417   6.184   1.456   5.142 -0.2109 -0.2791  0.0934
  959ANI     CH13418   6.160   1.591   5.170  0.3680 -0.2614  0.5108
  959ANI     NH13419   6.238   1.811   5.164  0.0137 -0.0492  0.3906
  959ANI     HC13420   6.440   1.715   5.028  0.9032  0.4392  2.3167
  959ANI     HC13421   6.473   1.464   4.972 -1.7142 -4.7209  0.5678
  959ANI     HC13422   6.311   1.304   5.060 -1.6087  0.3421 -1.1692
  959ANI     HC13423   6.110   1.381   5.165  1.1375 -1.2645  1.3676
  959ANI     HC13424   6.071   1.619   5.225 -0.9179 -1.8307 -0.7040
  959ANI     HN13425   6.164   1.841   5.227  1.0800 -0.5407  1.9120
  959ANI     HN13426   6.237   1.874   5.086  0.9489 -2.3434 -1.5326
  960ANI     CN13427   3.464   1.947   2.237 -0.0520  0.7697 -0.2091
  960ANI     CH13428   3.544   1.859   2.162 -0.1471  0.1831  0.3659
  960ANI     CH13429   3.683   1.862   2.177 -0.0216  0.2903 -0.7764
  960ANI     CH13430   3.742   1.951   2.268 -0.2785 -0.4747  0.1551
  960ANI     CH13431   3.662   2.039   2.341  0.2558  0.0345  0.1354
  960ANI     CH13432   3.522   2.036   2.328  0.2545  0.2684  0.0888
  960ANI     NH13433   3.331   1.934   2.240  0.0212  0.1135  0.4712
  960ANI     HC13434   3.501   1.790   2.092  1.5391  2.0283 -2.5811
  960ANI     HC13435   3.739   1.782   2.132 -0.3608 -1.2729  1.4900
  960ANI     HC13436   3.848   1.969   2.277 -0.7775  3.3154 -0.6486
  960ANI     HC13437   3.717   2.115   2.394  0.1403 -0.0833  0.4223
  960ANI     HC13438   3.464   2.102   2.390 -0.2326 -0.1499  0.0758
  960ANI     HN13439   3.302   1.924   2.144  0.3922 -0.5597  0.4223
  960ANI     HN13440   3.277   2.008   2.284  0.4607  1.0948 -0.6203
  961ANI     CN13441   4.593   5.197   5.181  0.1913  0.0535 -0.5945
  961ANI     CH13442   4.696   5.143   5.259 -0.0849 -0.2623 -0.4490
  961ANI     CH13443   4.685   5.015   5.315 -0.2520 -0.0272  0.0534
  961ANI     CH13444   4.562   4.950   5.307  0.0294 -0.5268 -0.2578
  961ANI     CH13445   4.461   5.001   5.225 -0.0916  0.4287  0.4780
  961ANI     CH13446   4.472   5.128   5.167 -0.2246  0.5106  0.6297
  961ANI     NH13447   4.606   5.318   5.124  0.6742  0.3205  0.0847
  961ANI     HC13448   4.786   5.202   5.270  0.4000 -1.1765  0.5619
  961ANI     HC13449   4.772   4.978   5.369 -0.2843  0.2781  0.3189
  961ANI     HC13450   4.538   4.857   5.356  0.3805 -0.1119  0.7229
  961ANI     HC13451   4.366   4.950   5.215 -0.1445  0.4447  0.8699
  961ANI     HC13452   4.390   5.165   5.107  0.1700  0.8873  0.3180
  961ANI     HN13453   4.624   5.396   5.187 -0.7181 -0.5118  1.5588
  961ANI     HN13454   4.523   5.332   5.068  1.3955 -0.0106 -1.0823
  962ANI     CN13455   4.895   0.058   0.203  0.0942  0.4956  0.0767
  962ANI     CH13456   4.901   0.145   0.312  0.2191  0.0575  0.4209
  962ANI     CH13457   4.808   0.249   0.320 -0.7103 -0.7913  0.7876
  962ANI     CH13458   4.710   0.266   0.221 -0.6669 -0.2640  0.8344
  962ANI     CH13459   4.697   0.175   0.116  0.6012  0.3409  0.1467
  962ANI     CH13460   4.792   0.072   0.110  0.4012  0.1829 -0.3154
  962ANI     NH13461   4.973  -0.051   0.193 -0.4128  0.1566 -0.2378
  962ANI     HC13462   4.970   0.146   0.396 -1.2385  2.3529  1.6405
  962ANI     HC13463   4.820   0.329   0.392 -0.5336  2.7023 -2.9685
  962ANI     HC13464   4.641   0.345   0.245 -0.9962 -0.4459  0.4821
  962ANI     HC13465   4.619   0.167   0.041  0.4075 -0.0973  0.3944
  962ANI     HC13466   4.783  -0.006   0.035  0.6981 -2.4345  2.2824
  962ANI     HN13467   5.058  -0.062   0.247 -1.0609 -0.1229  0.7507
  962ANI     HN13468   4.954  -0.112   0.116 -0.2296 -0.8549  0.5077
  963ANI     CN13469   1.916   2.988   1.961  0.3877 -0.3962 -0.1613
  963ANI     CH13470   1.828   2.950   2.063  0.4507  0.0970  0.0788
  963ANI     CH13471   1.715   2.871   2.035  0.3409  0.2549  0.0749
  963ANI     CH13472   1.699   2.815   1.908  0.1339  0.2702  0.0933
  963ANI     CH13473   1.787   2.849   1.804 -0.0346  0.2865 -0.0441
  963ANI     CH13474   1.892   2.938   1.833  0.5666 -0.3607 -0.2091
  963ANI     NH13475   2.030   3.053   1.989  0.6058 -0.4967 -0.8246
  963ANI     HC13476   1.832   2.969   2.169 -0.6614 -0.8659  0.3060
  963ANI     HC13477   1.644   2.851   2.114 -1.5165 -1.6463 -2.0139
  963ANI     HC13478   1.613   2.753   1.888 -1.4019  1.4607  2.8177
  963ANI     HC13479   1.771   2.817   1.703 -1.0114 -0.0696  0.2182
  963ANI     HC13480   1.952   2.977   1.752 -1.2424 -1.3728 -2.0994
  963ANI     HN13481   2.069   3.109   1.914  1.2049 -1.4719 -1.2581
  963ANI     HN13482   2.005   3.124   2.055  0.8973 -0.6142 -0.5851
  964ANI     CN13483   4.192   4.816   4.543  0.2159 -0.2691  0.5188
  964ANI     CH13484   4.244   4.945   4.560 -0.4995  0.1063 -0.1191
  964ANI     CH13485   4.288   5.017   4.449 -0.3886 -0.1551 -0.2440
  964ANI     CH13486   4.288   4.956   4.323 -0.3792 -0.0517 -0.2948
  964ANI     CH13487   4.239   4.826   4.305 -0.6551  0.0735 -0.4406
  964ANI     CH13488   4.195   4.755   4.417  0.6419  0.3208  0.2374
  964ANI     NH13489   4.153   4.746   4.651  0.2049 -0.9841  0.0537
  964ANI     HC13490   4.245   4.988   4.660 -2.7562  0.2383 -0.1241
  964ANI     HC13491   4.321   5.119   4.461  1.8489 -0.5811 -2.2384
  964ANI     HC13492   4.338   4.994   4.235 -1.6709  1.9716 -0.1772
  964ANI     HC13493   4.235   4.778   4.209  2.4935 -0.7908 -0.1756
  964ANI     HC13494   4.148   4.659   4.401  1.5908 -0.0816 -0.1680
  964ANI     HN13495   4.155   4.645   4.650  1.3201 -0.9782  0.8815
  964ANI     HN13496   4.200   4.763   4.738  0.4023  2.2689 -0.6219
  965ANI     CN13497   3.467   1.125   5.279 -0.2337  0.2278 -0.1632
  965ANI     CH13498   3.438   1.162   5.147  0.0717 -0.4417 -0.4243
  965ANI     CH13499   3.393   1.294   5.129 -0.0043 -0.3072  0.7162
  965ANI     CH13500   3.362   1.378   5.236 -0.4594  0.2331  0.1618
  965ANI     CH13501   3.381   1.336   5.368  0.3247  0.1587  0.0293
  965ANI     CH13502   3.428   1.206   5.386 -0.3263 -0.0801  0.0364
  965ANI     NH13503   3.526   1.007   5.306 -0.1318  0.2979 -0.0832
  965ANI     HC13504   3.469   1.107   5.060 -2.1173 -0.5241 -1.1945
  965ANI     HC13505   3.376   1.328   5.028 -1.9656  0.4719  1.2824
  965ANI     HC13506   3.347   1.483   5.216 -0.5444  0.6461  2.2599
  965ANI     HC13507   3.361   1.402   5.452  0.9881 -0.4112  0.6381
  965ANI     HC13508   3.444   1.169   5.487 -2.7293 -0.4229  0.3049
  965ANI     HN13509   3.484   0.973   5.392 -1.1420  1.6914 -0.0043
  965ANI     HN13510   3.518   0.939   5.232 -1.5993  0.6186 -0.2419
  966ANI     CN13511   2.399   3.449   1.119  0.1489 -0.4431  0.1691
  966ANI     CH13512   2.452   3.417   1.244  0.4579 -0.3062  0.0720
  966ANI     CH13513   2.561   3.487   1.299  0.2533  0.1940 -0.1583
  966ANI     CH13514   2.623   3.586   1.221 -0.3680  0.4758 -0.3015
  966ANI     CH13515   2.575   3.611   1.092 -0.8896  0.6128 -0.0820
  966ANI     CH13516   2.464   3.544   1.039 -0.1817 -0.4940 -0.1670
  966ANI     NH13517   2.303   3.375   1.061 -0.2671 -0.0195  0.3209
  966ANI     HC13518   2.411   3.338   1.305 -0.3488  0.6482  0.7790
  966ANI     HC13519   2.605   3.463   1.394  1.3255 -2.5824 -1.3057
  966ANI     HC13520   2.709   3.640   1.257 -1.4085  1.0516  1.3470
  966ANI     HC13521   2.618   3.686   1.027 -0.4850  1.1457  0.7928
  966ANI     HC13522   2.433   3.564   0.938  1.9953 -1.0619 -0.9805
  966ANI     HN13523   2.281   3.294   1.118 -1.1089 -0.5549 -0.7304
  966ANI     HN13524   2.314   3.346   0.965 -2.4469 -1.6135  0.5061
  967ANI     CN13525   1.644   0.213   3.172 -0.4495  0.2477 -0.3283
  967ANI     CH13526   1.688   0.097   3.237 -0.5032  0.0583 -0.6313
  967ANI     CH13527   1.594   0.009   3.292  0.1367 -0.1532  0.1331
  967ANI     CH13528   1.458   0.038   3.281  0.0893 -0.2738  0.3904
  967ANI     CH13529   1.413   0.155   3.217  0.2763  0.1629  1.0631
  967ANI     CH13530   1.509   0.247   3.172 -0.4884  0.0905 -0.7174
  967ANI     NH13531   1.734   0.301   3.125  0.2117  0.0939  0.6389
  967ANI     HC13532   1.794   0.086   3.254 -0.7479  1.9610  2.5472
  967ANI     HC13533   1.627  -0.073   3.354 -1.3156  1.8854  3.7403
  967ANI     HC13534   1.396  -0.032   3.335  0.6991  0.0811  1.5611
  967ANI     HC13535   1.308   0.177   3.206  0.4560  0.9544  0.8677
  967ANI     HC13536   1.463   0.339   3.138 -1.0254 -0.5199 -1.6818
  967ANI     HN13537   1.721   0.399   3.147  1.8482  0.4005  0.3225
  967ANI     HN13538   1.833   0.280   3.128  0.7298  1.8754 -2.5713
  968ANI     CN13539   5.094   1.894   2.081  0.1903 -0.0709 -0.5313
  968ANI     CH13540   4.993   1.797   2.077  0.1738 -0.0926  0.2781
  968ANI     CH13541   4.966   1.719   1.964  0.1808  0.2521  0.0376
  968ANI     CH13542   5.049   1.737   1.852  0.4322 -0.2210  0.1464
  968ANI     CH13543   5.154   1.830   1.854  0.6528 -0.4625 -0.2509
  968ANI     CH13544   5.176   1.908   1.968  0.6673 -0.4902 -0.2348
  968ANI     NH13545   5.115   1.957   2.197 -1.1171 -0.1547 -0.2364
  968ANI     HC13546   4.922   1.773   2.155 -2.1091  0.0593 -1.6841
  968ANI     HC13547   4.892   1.641   1.953  1.3756 -0.9040 -0.0021
  968ANI     HC13548   5.030   1.672   1.768 -2.0397 -0.6851  1.0127
  968ANI     HC13549   5.213   1.844   1.765 -0.4261 -1.5239 -1.1546
  968ANI     HC13550   5.271   1.958   1.977  0.7414 -0.8394  1.0100
  968ANI     HN13551   5.211   1.962   2.228 -1.0427  3.4059 -0.7750
  968ANI     HN13552   5.054   1.924   2.270  1.2787  0.1544  1.9897
  969ANI     CN13553   0.270   1.273   4.568 -0.1495  0.0504 -0.0636
  969ANI     CH13554   0.308   1.149   4.514  0.3963  0.0781  0.2526
  969ANI     CH13555   0.396   1.064   4.582  0.6162 -0.1420 -0.3054
  969ANI     CH13556   0.446   1.106   4.706 -0.4775  0.1825  0.0342
  969ANI     CH13557   0.405   1.228   4.762 -0.0837  0.3466 -0.0363
  969ANI     CH13558   0.317   1.312   4.694 -0.3705  0.0814  0.0092
  969ANI     NH13559   0.180   1.343   4.497  0.0148  0.2499 -0.0753
  969ANI     HC13560   0.276   1.119   4.415  3.2576 -0.2652 -0.5979
  969ANI     HC13561   0.422   0.965   4.550 -0.7373 -0.3108 -0.9221
  969ANI     HC13562   0.524   1.044   4.749  2.4940  1.3478 -3.4470
  969ANI     HC13563   0.439   1.246   4.863 -1.2259  2.0624  0.0457
  969ANI     HC13564   0.276   1.399   4.744  1.0836 -0.4684  2.2040
  969ANI     HN13565   0.170   1.439   4.528  1.1885  0.2343  0.3668
  969ANI     HN13566   0.188   1.338   4.397 -0.6908  2.5521 -0.2694
  970ANI     CN13567   0.974   3.119   3.472 -0.1811  0.3081  0.2803
  970ANI     CH13568   0.914   3.065   3.357 -0.3109  0.4459  0.2838
  970ANI     CH13569   0.828   2.956   3.379  0.6842 -0.3421  0.3307
  970ANI     CH13570   0.812   2.895   3.504 -0.5445 -0.3001  0.2011
  970ANI     CH13571   0.873   2.953   3.616 -0.0868  0.1880 -0.2999
  970ANI     CH13572   0.955   3.065   3.600 -0.1869  0.3476  0.2960
  970ANI     NH13573   1.055   3.225   3.464  0.2678 -0.0117  0.5018
  970ANI     HC13574   0.916   3.115   3.262 -0.1715 -0.5021 -0.2154
  970ANI     HC13575   0.779   2.910   3.294 -0.6040  1.2421  0.1748
  970ANI     HC13576   0.748   2.810   3.518 -0.3579 -0.4455  0.1700
  970ANI     HC13577   0.859   2.911   3.714  0.7227  3.2454  1.1936
  970ANI     HC13578   1.002   3.113   3.684 -1.0298  0.7145  0.5618
  970ANI     HN13579   1.153   3.205   3.457  0.3974  0.9927 -0.7449
  970ANI     HN13580   1.054   3.272   3.553 -0.4505  1.4864 -0.2603
  971ANI     CN13581   1.691   4.670   5.762  0.6686 -0.0111  0.0169
  971ANI     CH13582   1.714   4.701   5.627  0.1809  0.5253  0.0561
  971ANI     CH13583   1.703   4.833   5.581 -0.6068  0.3340 -0.3063
  971ANI     CH13584   1.683   4.937   5.671  0.1378  0.1085  0.1287
  971ANI     CH13585   1.670   4.908   5.807  0.2585 -0.1891  0.0765
  971ANI     CH13586   1.671   4.775   5.852  0.2194 -0.1779  0.1121
  971ANI     NH13587   1.687   4.541   5.798 -0.1583  0.0052 -0.0028
  971ANI     HC13588   1.734   4.617   5.563  1.5107  0.3732  0.6611
  971ANI     HC13589   1.711   4.855   5.475  1.1077 -0.9084 -0.4571
  971ANI     HC13590   1.668   5.039   5.638 -2.1437 -0.1370  0.3192
  971ANI     HC13591   1.646   4.989   5.875  0.7120  0.0180 -0.0121
  971ANI     HC13592   1.652   4.763   5.958  1.8493  1.0619  0.5611
  971ANI     HN13593   1.644   4.488   5.724  1.1901  0.1004 -0.8706
  971ANI     HN13594   1.623   4.534   5.876  2.4396  0.2954  2.2647
  972ANI     CN13595   4.865   3.961   1.639  0.3754 -0.1807  0.2032
  972ANI     CH13596   4.822   3.873   1.539 -0.2573  0.4056 -0.0471
  972ANI     CH13597   4.780   3.744   1.574  0.2096  0.2588 -0.0267
  972ANI     CH13598   4.818   3.692   1.699 -0.1130  0.0828 -0.0013
  972ANI     CH13599   4.888   3.770   1.792  0.0286 -0.2436  0.1654
  972ANI     CH13600   4.901   3.906   1.763  0.4687 -0.2938  0.1254
  972ANI     NH13601   4.886   4.090   1.611 -0.0500 -0.1650 -0.0449
  972ANI     HC13602   4.805   3.912   1.440  1.3378  1.9272  0.2603
  972ANI     HC13603   4.728   3.669   1.518 -0.4047  1.1362 -0.6358
  972ANI     HC13604   4.801   3.587   1.717 -2.6237  0.5196  0.3330
  972ANI     HC13605   4.911   3.731   1.890  0.8887 -0.2344 -0.0313
  972ANI     HC13606   4.940   3.969   1.842 -1.2899  2.3728 -1.0412
  972ANI     HN13607   4.901   4.097   1.511 -2.3367 -1.2333 -0.5159
  972ANI     HN13608   4.966   4.136   1.651  1.1058 -1.5382 -0.7289
  973ANI     CN13609   0.465   0.645   1.980 -0.3541 -0.0701 -0.0031
  973ANI     CH13610   0.393   0.759   2.019 -1.2517 -0.5677 -0.1986
  973ANI     CH13611   0.323   0.757   2.141  0.1629 -0.0448  0.6345
  973ANI     CH13612   0.326   0.647   2.227  0.4903  0.1142  0.8276
  973ANI     CH13613   0.405   0.538   2.188  0.1141  0.1669 -0.0863
  973ANI     CH13614   0.473   0.535   2.066 -0.1211 -0.2154 -0.2113
  973ANI     NH13615   0.538   0.640   1.868  0.0799 -0.4989  0.2956
  973ANI     HC13616   0.367   0.846   1.961 -1.2848  0.1429  0.8681
  973ANI     HC13617   0.271   0.849   2.165  2.5850  1.7281 -0.6199
  973ANI     HC13618   0.270   0.648   2.320 -1.8035  1.9002 -0.5047
  973ANI     HC13619   0.414   0.446   2.244 -0.7193  0.9409  1.3365
  973ANI     HC13620   0.533   0.449   2.043 -0.1457 -0.5680  0.9871
  973ANI     HN13621   0.624   0.589   1.882  0.7621  1.0320  1.8392
  973ANI     HN13622   0.571   0.733   1.846 -0.9323  0.1201  1.3437
  974ANI     CN13623   5.365   5.486   3.041  0.1521 -0.2160 -0.4549
  974ANI     CH13624   5.431   5.577   3.125 -0.1019 -0.6550  0.2262
  974ANI     CH13625   5.352   5.645   3.218 -0.0430  0.0495 -0.2280
  974ANI     CH13626   5.213   5.628   3.221  0.0222 -0.3864  0.6266
  974ANI     CH13627   5.150   5.547   3.125  0.5621  0.2261 -0.2419
  974ANI     CH13628   5.226   5.472   3.035  0.1284 -0.0068 -0.4152
  974ANI     NH13629   5.443   5.422   2.952  0.5072 -0.4268  0.0073
  974ANI     HC13630   5.537   5.595   3.114 -0.5641  0.5659 -2.8371
  974ANI     HC13631   5.386   5.705   3.301 -2.1257  0.0346  0.6724
  974ANI     HC13632   5.152   5.684   3.290 -0.3981  1.8777 -1.5006
  974ANI     HC13633   5.042   5.543   3.127  0.5968 -0.2750  0.3720
  974ANI     HC13634   5.184   5.400   2.966 -1.7930  1.6779 -1.0325
  974ANI     HN13635   5.497   5.492   2.902 -0.0936 -1.3569 -1.9837
  974ANI     HN13636   5.396   5.384   2.872  0.2557  0.1529 -0.1246
  975ANI     CN13637   5.825   1.591   2.929 -0.3096  0.2782  0.0098
  975ANI     CH13638   5.812   1.642   2.799 -0.5393  0.0360 -0.0632
  975ANI     CH13639   5.744   1.762   2.777 -0.2088  0.1007 -0.7424
  975ANI     CH13640   5.683   1.830   2.884  0.5313 -0.2002 -0.1288
  975ANI     CH13641   5.691   1.772   3.011  0.1075  0.1970  0.0790
  975ANI     CH13642   5.764   1.655   3.037  0.4840  0.4858  0.3405
  975ANI     NH13643   5.906   1.484   2.938 -0.8826 -0.1208  0.4763
  975ANI     HC13644   5.854   1.607   2.706  1.4854  0.7904  0.5327
  975ANI     HC13645   5.736   1.813   2.682  1.6463  2.7146  0.4232
  975ANI     HC13646   5.632   1.923   2.866  2.1022  0.6499 -0.3111
  975ANI     HC13647   5.648   1.815   3.100 -0.8984 -0.8444  0.0996
  975ANI     HC13648   5.785   1.628   3.139  0.7572  0.0159  0.1580
  975ANI     HN13649   5.887   1.424   3.017  1.5497  0.2327  1.3952
  975ANI     HN13650   5.928   1.436   2.852  4.0393  0.5175  1.2214
  976ANI     CN13651   4.804   3.198   6.257 -0.0474  0.3978 -0.4335
  976ANI     CH13652   4.869   3.077   6.230 -0.2174  0.1920  0.0671
  976ANI     CH13653   4.891   3.045   6.096  0.4750  0.5899  0.0837
  976ANI     CH13654   4.853   3.135   5.995  0.5623  0.2425 -0.2609
  976ANI     CH13655   4.778   3.249   6.025 -0.0857 -0.1915 -0.2121
  976ANI     CH13656   4.754   3.284   6.158 -0.8607 -0.0210 -0.3906
  976ANI     NH13657   4.769   3.220   6.385  0.2041  0.1019 -0.3111
  976ANI     HC13658   4.898   3.006   6.307 -2.1638 -2.4354 -1.5549
  976ANI     HC13659   4.930   2.948   6.070  2.8369  0.7030  3.0132
  976ANI     HC13660   4.869   3.118   5.889  2.3081  0.1152  0.0128
  976ANI     HC13661   4.751   3.314   5.942  0.8096  1.6985  0.9389
  976ANI     HC13662   4.696   3.371   6.184  0.1801  0.0426  1.8862
  976ANI     HN13663   4.682   3.272   6.383  0.4013  0.4196 -0.8820
  976ANI     HN13664   4.752   3.139   6.443 -0.4511  1.5759  1.6047
  977ANI     CN13665   5.776   3.380   3.870  0.6194 -0.3228  0.2358
  977ANI     CH13666   5.826   3.457   3.975 -0.1707 -0.2279  0.5468
  977ANI     CH13667   5.811   3.596   3.966  0.2832 -0.2436 -0.4930
  977ANI     CH13668   5.751   3.658   3.856  0.1653  0.2185 -0.1741
  977ANI     CH13669   5.703   3.578   3.751 -0.0294 -0.0645  0.1289
  977ANI     CH13670   5.716   3.439   3.758  0.2375 -0.0163  0.5990
  977ANI     NH13671   5.786   3.247   3.875  0.1843 -0.3616  0.1192
  977ANI     HC13672   5.886   3.420   4.057  1.0202  1.2255  0.3623
  977ANI     HC13673   5.847   3.658   4.048  0.2343  0.2545 -0.8424
  977ANI     HC13674   5.740   3.765   3.848 -0.1625  0.0630 -1.9909
  977ANI     HC13675   5.653   3.624   3.666 -0.6612 -1.0395 -0.0297
  977ANI     HC13676   5.674   3.386   3.674 -2.4400  1.3935  0.9917
  977ANI     HN13677   5.720   3.182   3.834  0.4347 -0.9051  0.5766
  977ANI     HN13678   5.841   3.205   3.949  2.0895 -1.4794 -1.8731
  978ANI     CN13679   1.369   4.112   4.940 -0.5694  0.5533 -0.4692
  978ANI     CH13680   1.274   4.121   5.043 -0.2170  0.3869 -0.1285
  978ANI     CH13681   1.284   4.220   5.141 -0.7448  0.2710  0.0394
  978ANI     CH13682   1.379   4.322   5.133  0.1596 -0.5535  0.2720
  978ANI     CH13683   1.468   4.316   5.025  0.3502  0.1548  0.3853
  978ANI     CH13684   1.472   4.207   4.938 -0.0857  0.0650  0.4784
  978ANI     NH13685   1.360   4.001   4.865 -0.3667 -0.1907  0.5880
  978ANI     HC13686   1.208   4.036   5.044 -0.1684  0.3221 -1.3039
  978ANI     HC13687   1.221   4.220   5.229 -0.1154 -2.4646  0.5134
  978ANI     HC13688   1.392   4.400   5.207  1.1466 -1.5509  1.1608
  978ANI     HC13689   1.553   4.383   5.021 -1.2541  2.2472  0.3901
  978ANI     HC13690   1.551   4.205   4.864  0.3810 -1.2007  1.0083
  978ANI     HN13691   1.289   3.940   4.902 -1.6228 -0.3099 -1.9443
  978ANI     HN13692   1.440   3.940   4.865 -1.5584 -1.7767  1.5913
  979ANI     CN13693   2.783   0.482   0.353 -0.0637  0.5066 -0.0609
  979ANI     CH13694   2.853   0.433   0.464 -0.7411 -0.9509 -0.2715
  979ANI     CH13695   2.952   0.336   0.442  0.1620 -0.0764 -0.1018
  979ANI     CH13696   2.996   0.306   0.312  0.3464 -0.0256 -0.0519
  979ANI     CH13697   2.928   0.362   0.203  0.6005  0.4717  0.0442
  979ANI     CH13698   2.814   0.441   0.223  0.5835  0.4284  0.1175
  979ANI     NH13699   2.676   0.562   0.371 -0.3190  0.1218  0.1415
  979ANI     HC13700   2.824   0.458   0.564 -0.8448 -2.7146  0.1665
  979ANI     HC13701   3.012   0.308   0.528 -1.5809  1.0935  1.5255
  979ANI     HC13702   3.089   0.253   0.299  0.8401  1.2386 -1.8862
  979ANI     HC13703   2.962   0.327   0.107  0.3134  0.5404 -0.0817
  979ANI     HC13704   2.761   0.482   0.139 -1.4141 -2.2979 -0.0172
  979ANI     HN13705   2.629   0.584   0.285  1.0975  0.9771 -0.4271
  979ANI     HN13706   2.604   0.519   0.427 -0.9931  1.5190  0.3473
  980ANI     CN13707   0.278   5.374   0.656 -0.0950  0.5128  0.3157
  980ANI     CH13708   0.416   5.350   0.652 -0.2101 -0.1445  0.2062
  980ANI     CH13709   0.464   5.219   0.639 -0.0754 -0.0661 -0.0853
  980ANI     CH13710   0.378   5.108   0.649 -0.0068 -0.1215 -0.1143
  980ANI     CH13711   0.241   5.132   0.664  0.0693 -0.1707  0.6834
  980ANI     CH13712   0.192   5.263   0.663  0.5225 -0.0011 -0.1343
  980ANI     NH13713   0.244   5.503   0.651  0.2997  0.5883 -0.4841
  980ANI     HC13714   0.478   5.438   0.646 -0.2483 -0.1655 -0.5747
  980ANI     HC13715   0.568   5.192   0.630  0.1770  1.9779 -4.9751
  980ANI     HC13716   0.422   5.011   0.635 -2.8662 -1.6633  1.2404
  980ANI     HC13717   0.165   5.056   0.674  1.5988 -2.2789 -2.7713
  980ANI     HC13718   0.086   5.282   0.662  0.2802 -1.3294 -0.8701
  980ANI     HN13719   0.311   5.570   0.617 -0.3789  1.4558 -0.1490
  980ANI     HN13720   0.154   5.516   0.606  0.2408 -1.3356 -0.9708
  981ANI     CN13721   1.706   5.415   3.009  0.2308 -0.0913  0.0659
  981ANI     CH13722   1.625   5.468   3.110 -0.0396 -0.0122 -0.1921
  981ANI     CH13723   1.648   5.430   3.243  0.0219  0.1581 -0.1529
  981ANI     CH13724   1.738   5.328   3.276 -0.1936 -0.0262 -0.1332
  981ANI     CH13725   1.819   5.273   3.175 -0.0263 -0.9051  0.4743
  981ANI     CH13726   1.803   5.321   3.044 -0.2025 -0.2974  0.7141
  981ANI     NH13727   1.684   5.452   2.882  0.1558 -0.4656 -0.0282
  981ANI     HC13728   1.551   5.546   3.101 -1.6607 -1.7057 -1.9652
  981ANI     HC13729   1.592   5.466   3.328  2.5556  2.2007  0.6864
  981ANI     HC13730   1.763   5.304   3.378  0.8840 -1.3982 -0.7015
  981ANI     HC13731   1.900   5.209   3.206  0.2939 -0.9439 -0.4347
  981ANI     HC13732   1.875   5.289   2.971  0.8940  1.0955  1.1610
  981ANI     HN13733   1.751   5.418   2.815  0.0186 -0.6671 -0.0641
  981ANI     HN13734   1.635   5.538   2.863  2.5208  0.7655 -0.7288
  982ANI     CN13735   0.553   1.020   4.013  0.5921 -0.3375  0.2091
  982ANI     CH13736   0.518   0.989   4.145 -0.3156  0.4457  0.1546
  982ANI     CH13737   0.529   1.081   4.250  0.1510  0.5300  0.0326
  982ANI     CH13738   0.582   1.209   4.228  0.5828  0.4670  0.6909
  982ANI     CH13739   0.616   1.244   4.097 -0.1664  0.0550  0.3802
  982ANI     CH13740   0.593   1.153   3.993  0.2561 -0.1940  0.5036
  982ANI     NH13741   0.532   0.935   3.912  1.0945 -0.2430  0.0190
  982ANI     HC13742   0.482   0.888   4.161  2.0920 -0.5686 -0.6624
  982ANI     HC13743   0.502   1.062   4.353  0.4771  2.1433  0.4328
  982ANI     HC13744   0.598   1.284   4.304  2.4542  0.3547  0.4148
  982ANI     HC13745   0.665   1.339   4.082  1.4325 -0.8623 -0.2902
  982ANI     HC13746   0.619   1.175   3.891 -3.6781 -0.9498 -0.7465
  982ANI     HN13747   0.467   0.984   3.852 -1.9083 -1.2388  2.2976
  982ANI     HN13748   0.482   0.858   3.956 -0.3874  1.4010  1.2745
  983ANI     CN13749   5.453   0.504   4.143 -0.3767  0.7677 -0.3720
  983ANI     CH13750   5.381   0.433   4.045 -0.4384 -0.0835  0.2836
  983ANI     CH13751   5.399   0.465   3.910 -0.4544  0.0124  0.3039
  983ANI     CH13752   5.478   0.574   3.871 -0.0382 -0.2031  0.5338
  983ANI     CH13753   5.544   0.643   3.973  0.0072  1.0245 -0.3100
  983ANI     CH13754   5.532   0.614   4.109 -0.0324  0.5033 -0.4237
  983ANI     NH13755   5.430   0.480   4.273  0.0519  0.2266 -0.3948
  983ANI     HC13756   5.319   0.351   4.078 -1.8805  0.4669 -1.0214
  983ANI     HC13757   5.343   0.421   3.830 -0.5166  1.4935 -0.4868
  983ANI     HC13758   5.498   0.600   3.768  1.2764  0.9207  1.0559
  983ANI     HC13759   5.617   0.720   3.953 -0.3832  1.3404 -0.5126
  983ANI     HC13760   5.578   0.677   4.184  1.0276  0.6084 -1.1418
  983ANI     HN13761   5.498   0.535   4.323 -1.4303  0.7321  1.0941
  983ANI     HN13762   5.432   0.384   4.305 -0.6806  0.2825 -0.1844
  984ANI     CN13763   3.363   5.582   4.362  0.1493  0.0369  0.4602
  984ANI     CH13764   3.238   5.570   4.423  0.2283 -1.1941  0.3897
  984ANI     CH13765   3.210   5.659   4.528  0.4197 -0.5798 -0.0808
  984ANI     CH13766   3.302   5.757   4.566  0.1416 -0.4220  0.1879
  984ANI     CH13767   3.424   5.771   4.498 -0.3459 -0.0364 -0.6108
  984ANI     CH13768   3.459   5.675   4.402  0.4004  0.2595 -0.6346
  984ANI     NH13769   3.392   5.499   4.260  0.1283 -0.2454  0.6831
  984ANI     HC13770   3.159   5.497   4.405  1.9374 -4.0291  3.5945
  984ANI     HC13771   3.117   5.648   4.581  0.1658 -1.8526 -0.7793
  984ANI     HC13772   3.286   5.826   4.647 -0.3900  2.0014 -1.9026
  984ANI     HC13773   3.503   5.842   4.515 -0.4291 -0.3198  1.0232
  984ANI     HC13774   3.553   5.686   4.349  1.2096  0.2815  0.7765
  984ANI     HN13775   3.316   5.475   4.199 -0.3340  1.0163  0.7391
  984ANI     HN13776   3.468   5.531   4.202 -0.8848 -1.2326 -1.2497
  985ANI     CN13777   6.201   0.810   1.218  0.2567 -0.0106  0.2458
  985ANI     CH13778   6.303   0.863   1.137 -0.1687 -0.0976 -0.3525
  985ANI     CH13779   6.403   0.941   1.196 -0.4535 -0.1040  0.1379
  985ANI     CH13780   6.396   0.972   1.333 -0.1837  0.3403  0.0526
  985ANI     CH13781   6.281   0.934   1.403  0.1964  0.2302  0.6230
  985ANI     CH13782   6.181   0.852   1.349  0.6927 -0.2151  0.3806
  985ANI     NH13783   6.115   0.722   1.165 -0.0154 -0.0186  0.7048
  985ANI     HC13784   6.311   0.839   1.032  1.3888 -1.0460 -0.0408
  985ANI     HC13785   6.481   0.978   1.131  0.0006  1.8929  1.7590
  985ANI     HC13786   6.455   1.042   1.389 -1.5532  1.6351 -0.0911
  985ANI     HC13787   6.271   0.968   1.505 -0.5386 -0.3027  0.7335
  985ANI     HC13788   6.096   0.834   1.414  2.3480 -1.1194  2.3382
  985ANI     HN13789   6.175   0.658   1.115  2.5544  2.5885  0.2951
  985ANI     HN13790   6.059   0.674   1.234 -0.6474  0.1935  0.3451
  986ANI     CN13791   3.729   1.201   3.233  0.0650 -0.1425 -0.6601
  986ANI     CH13792   3.795   1.079   3.252 -0.4430 -0.3126  0.0337
  986ANI     CH13793   3.734   0.971   3.317  0.0506 -0.0529  0.9483
  986ANI     CH13794   3.608   0.991   3.375 -0.4009  0.4020 -0.1635
  986ANI     CH13795   3.539   1.111   3.357 -0.4496  0.4886  0.5785
  986ANI     CH13796   3.598   1.213   3.282  0.1025 -0.5802 -0.4452
  986ANI     NH13797   3.795   1.305   3.180  0.2705  0.1878  0.2401
  986ANI     HC13798   3.897   1.078   3.217 -0.7409  1.5342 -0.9365
  986ANI     HC13799   3.777   0.873   3.330  1.0181  0.4574  1.6824
  986ANI     HC13800   3.563   0.912   3.433  0.4164  1.1126  1.4777
  986ANI     HC13801   3.447   1.117   3.413  0.5146 -1.3536  2.4352
  986ANI     HC13802   3.544   1.305   3.268 -0.9579 -1.6205 -3.8839
  986ANI     HN13803   3.731   1.383   3.189  1.5500  1.4414 -1.3329
  986ANI     HN13804   3.885   1.318   3.224 -0.2867  1.6987  0.9775
  987ANI     CN13805   0.628   0.662   4.572  0.0519  0.2826 -0.1590
  987ANI     CH13806   0.746   0.737   4.577  0.2739 -0.0720 -0.1057
  987ANI     CH13807   0.774   0.827   4.681 -0.0483 -0.2047  0.0933
  987ANI     CH13808   0.672   0.843   4.776 -0.4899  0.0807 -0.4310
  987ANI     CH13809   0.547   0.779   4.767 -0.4993  0.0826 -0.3081
  987ANI     CH13810   0.526   0.687   4.665 -0.1886  0.0803 -0.3716
  987ANI     NH13811   0.627   0.549   4.502 -0.3293  0.2566 -0.1137
  987ANI     HC13812   0.820   0.708   4.504  1.3067 -0.1537  0.9383
  987ANI     HC13813   0.867   0.878   4.697 -1.1964  1.4635  1.7632
  987ANI     HC13814   0.689   0.905   4.863 -0.4741 -0.9101  0.2767
  987ANI     HC13815   0.468   0.800   4.838  0.1140  1.3221  0.0391
  987ANI     HC13816   0.429   0.639   4.664  0.1720 -0.7059  1.2014
  987ANI     HN13817   0.711   0.510   4.461 -0.8910 -0.5441 -0.5143
  987ANI     HN13818   0.579   0.476   4.553  0.9013  0.5149  1.4426
  988ANI     CN13819   1.821   3.179   6.125  0.0751 -0.1092  0.3318
  988ANI     CH13820   1.950   3.131   6.099  0.0953 -0.3716  0.9044
  988ANI     CH13821   2.013   3.030   6.171 -0.1457 -1.0771  0.1344
  988ANI     CH13822   1.937   2.967   6.271 -0.2053 -0.4261  0.4995
  988ANI     CH13823   1.804   3.000   6.298 -0.0530 -0.1125  0.8754
  988ANI     CH13824   1.753   3.109   6.225  0.4301 -0.0712  0.5969
  988ANI     NH13825   1.766   3.285   6.063  0.3721 -0.3536 -0.3614
  988ANI     HC13826   2.000   3.176   6.015  0.3808 -0.1864  1.1740
  988ANI     HC13827   2.115   3.008   6.143 -0.5433 -1.7061 -0.8506
  988ANI     HC13828   1.970   2.880   6.324  0.0100  1.0828  2.9026
  988ANI     HC13829   1.740   2.945   6.366 -0.6083  0.3031  0.6965
  988ANI     HC13830   1.651   3.138   6.247  0.3626  2.1444 -2.3225
  988ANI     HN13831   1.668   3.311   6.058  0.7051  1.1641  0.7097
  988ANI     HN13832   1.813   3.292   5.975 -0.0224  2.2161 -0.3840
  989ANI     CN13833   2.418   6.138   3.823 -0.0865 -0.1526  0.1080
  989ANI     CH13834   2.461   6.232   3.918  0.3284 -0.2317  0.0007
  989ANI     CH13835   2.426   6.366   3.897  0.2875 -0.2199  0.1411
  989ANI     CH13836   2.341   6.408   3.795  0.4142 -0.2004  0.0434
  989ANI     CH13837   2.295   6.310   3.705 -0.1040 -0.0717  0.1683
  989ANI     CH13838   2.341   6.178   3.714 -0.1037 -0.0729  0.1494
  989ANI     NH13839   2.453   6.009   3.835  0.1379 -0.1499 -0.5270
  989ANI     HC13840   2.517   6.197   4.003  2.8993  0.8476 -1.2151
  989ANI     HC13841   2.467   6.442   3.963 -1.2442 -0.9964  2.0582
  989ANI     HC13842   2.318   6.510   3.770 -1.4457 -0.4139  0.7732
  989ANI     HC13843   2.239   6.346   3.620  0.0876  1.9489  0.8730
  989ANI     HC13844   2.310   6.116   3.631  0.7868  0.1631 -0.3710
  989ANI     HN13845   2.456   5.977   3.930 -0.8231  0.2767 -0.3540
  989ANI     HN13846   2.390   5.949   3.784 -1.0095 -0.8207  1.6335
  990ANI     CN13847   1.187   5.120   4.889 -0.2707 -0.3666  0.1243
  990ANI     CH13848   1.093   5.219   4.920  0.2740  0.1813  0.0315
  990ANI     CH13849   1.092   5.342   4.852  0.4288  0.0446 -0.2166
  990ANI     CH13850   1.193   5.376   4.761  0.3512  0.0796 -0.2893
  990ANI     CH13851   1.293   5.280   4.739  0.0737 -0.3306  0.2104
  990ANI     CH13852   1.292   5.156   4.804 -0.1368 -0.2656  0.3331
  990ANI     NH13853   1.181   5.001   4.949 -0.0206 -0.1115  0.6586
  990ANI     HC13854   1.017   5.203   4.995 -0.4657  0.4939 -0.6526
  990ANI     HC13855   1.022   5.420   4.876  0.6524  0.2493 -0.2190
  990ANI     HC13856   1.204   5.472   4.713 -0.7475 -0.3302 -1.3979
  990ANI     HC13857   1.377   5.307   4.676 -0.2388  2.5463  0.9490
  990ANI     HC13858   1.361   5.080   4.770 -2.1031 -2.2165  0.6019
  990ANI     HN13859   1.142   5.022   5.040  1.2205  2.0297  0.7299
  990ANI     HN13860   1.273   4.962   4.962 -0.5459 -0.9671  1.9738
  991ANI     CN13861   1.704   1.316   1.526 -1.0038  0.3506  0.2474
  991ANI     CH13862   1.627   1.208   1.481 -0.2176 -0.3321  0.5276
  991ANI     CH13863   1.535   1.231   1.378 -0.1975  0.6410  0.7250
  991ANI     CH13864   1.529   1.354   1.312  0.3320  0.2710 -0.0180
  991ANI     CH13865   1.603   1.462   1.360 -0.0404  0.6673 -0.3287
  991ANI     CH13866   1.696   1.440   1.463  0.0259  0.0337 -0.5226
  991ANI     NH13867   1.789   1.296   1.628 -0.3995  0.4121 -0.2417
  991ANI     HC13868   1.623   1.105   1.515 -0.2522 -0.5453 -0.1198
  991ANI     HC13869   1.476   1.149   1.340  2.6160 -0.2496 -1.9466
  991ANI     HC13870   1.481   1.362   1.215 -0.7191 -1.2294  0.3691
  991ANI     HC13871   1.592   1.555   1.306 -4.6450 -0.1495 -1.0103
  991ANI     HC13872   1.756   1.522   1.500  0.6635  0.3397 -2.1880
  991ANI     HN13873   1.826   1.202   1.640 -0.4959  0.5167  0.9274
  991ANI     HN13874   1.871   1.354   1.625  0.5572 -0.9267 -0.6252
  992ANI     CN13875   4.137   2.344   3.236  0.5244  0.2360 -0.2226
  992ANI     CH13876   4.044   2.448   3.222  0.2571  0.0768  0.3357
  992ANI     CH13877   4.023   2.540   3.325 -0.7156 -0.2871  0.4671
  992ANI     CH13878   4.102   2.526   3.439 -0.1424  0.2077  0.1289
  992ANI     CH13879   4.188   2.418   3.461 -0.4334 -0.0302  0.0830
  992ANI     CH13880   4.210   2.329   3.355  0.1687  0.2204 -0.0039
  992ANI     NH13881   4.160   2.265   3.131  0.1126  0.1723 -0.2679
  992ANI     HC13882   3.996   2.465   3.126  1.1552 -0.9107 -0.3086
  992ANI     HC13883   3.954   2.623   3.321  0.4155  0.6332  0.1169
  992ANI     HC13884   4.075   2.591   3.522 -2.0726  0.4299 -0.6540
  992ANI     HC13885   4.237   2.414   3.557 -2.8630  0.4012  1.3865
  992ANI     HC13886   4.282   2.252   3.376 -0.1573  0.1981  1.0649
  992ANI     HN13887   4.214   2.194   3.179  0.5358  0.4597 -0.3153
  992ANI     HN13888   4.070   2.224   3.112 -0.0720 -0.3397  1.5261
  993ANI     CN13889   0.414   0.768   5.858  0.0578 -0.1298  0.4189
  993ANI     CH13890   0.522   0.761   5.769 -0.0426  0.3803  0.2538
  993ANI     CH13891   0.536   0.857   5.669 -0.2044  0.5126  0.3577
  993ANI     CH13892   0.448   0.967   5.671  0.3647  0.9697  0.4831
  993ANI     CH13893   0.337   0.974   5.756 -0.1159 -0.2794 -0.0313
  993ANI     CH13894   0.326   0.878   5.857  0.1099 -0.0888  0.1724
  993ANI     NH13895   0.405   0.666   5.944  0.2473 -0.2671  0.2742
  993ANI     HC13896   0.595   0.682   5.766 -0.1908  0.2562 -0.1332
  993ANI     HC13897   0.618   0.865   5.599 -1.1831  1.0447 -0.7532
  993ANI     HC13898   0.468   1.050   5.605  1.2765  1.2821  1.1474
  993ANI     HC13899   0.259   1.049   5.749  0.5393  0.3378 -0.8012
  993ANI     HC13900   0.249   0.884   5.933  1.8407 -0.0907  1.9847
  993ANI     HN13901   0.462   0.586   5.920 -1.0361 -2.1110  3.1969
  993ANI     HN13902   0.311   0.630   5.955  0.0865  0.1359  0.2139
  994ANI     CN13903   4.214   2.625   0.648 -0.6180 -0.0023 -0.8597
  994ANI     CH13904   4.138   2.651   0.763  0.6162 -0.3989  0.0685
  994ANI     CH13905   4.142   2.782   0.812  0.1948 -0.4264  0.1815
  994ANI     CH13906   4.229   2.878   0.759 -0.5363  0.1249 -0.0303
  994ANI     CH13907   4.304   2.847   0.644 -0.4987  0.2940 -0.0514
  994ANI     CH13908   4.288   2.723   0.581 -0.2898  0.2864 -0.0894
  994ANI     NH13909   4.207   2.502   0.596 -0.0969 -0.1638 -0.5499
  994ANI     HC13910   4.066   2.580   0.800  0.1053  0.1479  0.1349
  994ANI     HC13911   4.084   2.819   0.895 -0.6117 -1.0090 -0.1192
  994ANI     HC13912   4.243   2.976   0.801  2.5531 -0.7777  1.1716
  994ANI     HC13913   4.373   2.925   0.617 -0.0712 -0.7472 -2.0033
  994ANI     HC13914   4.353   2.687   0.503 -0.4716 -2.8894  1.1774
  994ANI     HN13915   4.234   2.500   0.499 -0.6769 -0.3829 -0.7039
  994ANI     HN13916   4.122   2.449   0.607  0.9501 -1.4605  1.8033
  995ANI     CN13917   1.832   1.715   2.355 -0.3403 -0.4739  0.1242
  995ANI     CH13918   1.926   1.613   2.338 -0.0178 -0.1173 -0.2462
  995ANI     CH13919   1.954   1.524   2.442  0.5195  0.6149  0.2377
  995ANI     CH13920   1.883   1.532   2.563 -0.2987 -0.0136 -0.1891
  995ANI     CH13921   1.790   1.635   2.581  0.0199  0.3327 -0.4826
  995ANI     CH13922   1.766   1.727   2.478 -0.5786  0.6119 -0.0996
  995ANI     NH13923   1.797   1.799   2.256  0.3586  0.1255  0.3819
  995ANI     HC13924   1.975   1.607   2.242 -0.4239 -1.6905 -0.3755
  995ANI     HC13925   2.019   1.440   2.423 -2.9167 -1.5949 -2.4096
  995ANI     HC13926   1.901   1.465   2.645 -0.2676 -3.3159 -2.8159
  995ANI     HC13927   1.742   1.639   2.678  2.5627 -1.0772  0.8692
  995ANI     HC13928   1.692   1.805   2.492 -1.4331  0.4654 -3.3620
  995ANI     HN13929   1.786   1.894   2.288 -0.5253 -0.0473  0.5947
  995ANI     HN13930   1.866   1.796   2.182 -1.9485  0.4623 -1.8372
  996ANI     CN13931   2.552   4.170   4.714  0.5454  0.2722 -0.2284
  996ANI     CH13932   2.676   4.182   4.776  0.7339 -0.1530 -0.5221
  996ANI     CH13933   2.714   4.087   4.872  0.6362  0.0636 -0.2693
  996ANI     CH13934   2.643   3.966   4.880 -0.5982  0.7780 -0.2406
  996ANI     CH13935   2.528   3.943   4.805 -0.5291  0.2472 -0.1851
  996ANI     CH13936   2.482   4.049   4.725  0.3308  0.3700 -0.5186
  996ANI     NH13937   2.501   4.267   4.637  0.3828  0.0893 -0.3500
  996ANI     HC13938   2.733   4.273   4.762 -0.4920  0.8298  0.6359
  996ANI     HC13939   2.800   4.101   4.936 -0.4812  0.5190  1.1866
  996ANI     HC13940   2.681   3.893   4.950 -2.2351  0.4562  0.3172
  996ANI     HC13941   2.467   3.854   4.806 -0.6485  0.3024 -1.1909
  996ANI     HC13942   2.400   4.024   4.660  2.5500 -0.9149 -2.9603
  996ANI     HN13943   2.572   4.332   4.608  0.7984 -1.3283 -2.6396
  996ANI     HN13944   2.457   4.237   4.550  0.5100 -1.4553  0.1103
  997ANI     CN13945   0.099   6.196   5.660 -0.2808 -0.6378  0.3426
  997ANI     CH13946   0.188   6.119   5.585 -0.0243  0.1617 -0.1835
  997ANI     CH13947   0.324   6.136   5.611  0.0991 -0.1704 -0.5901
  997ANI     CH13948   0.374   6.220   5.712 -0.3224 -0.0402 -0.4888
  997ANI     CH13949   0.282   6.299   5.783  0.0298  0.0205 -0.0963
  997ANI     CH13950   0.145   6.283   5.760  0.0676 -0.3204 -0.0925
  997ANI     NH13951  -0.031   6.190   5.629 -0.1882  0.3714 -0.2716
  997ANI     HC13952   0.144   6.044   5.520  0.6041 -0.7047  0.3758
  997ANI     HC13953   0.391   6.081   5.547  1.0463 -0.7184  0.8476
  997ANI     HC13954   0.479   6.223   5.737 -0.6540  0.5709  0.8741
  997ANI     HC13955   0.327   6.365   5.855  1.3461 -0.7562 -0.1824
  997ANI     HC13956   0.080   6.348   5.817  0.9559  0.3226  0.2011
  997ANI     HN13957  -0.079   6.262   5.682  1.1444  2.3165 -1.6451
  997ANI     HN13958  -0.055   6.207   5.532  0.7153 -0.5300 -0.6734
  998ANI     CN13959   6.166   5.331   0.975 -0.1003 -0.1002  0.0476
  998ANI     CH13960   6.237   5.216   1.010  0.1441  0.0537  0.0521
  998ANI     CH13961   6.232   5.098   0.935 -0.1155  0.0774  0.0327
  998ANI     CH13962   6.164   5.105   0.813 -0.0511  0.2094  0.0039
  998ANI     CH13963   6.096   5.220   0.771 -0.2333  0.1941  0.2573
  998ANI     CH13964   6.105   5.336   0.849  0.5115  0.4717 -0.2291
  998ANI     NH13965   6.154   5.426   1.069 -0.1676  0.1986 -0.2636
  998ANI     HC13966   6.294   5.220   1.101 -1.1584  0.8130  0.8454
  998ANI     HC13967   6.290   5.010   0.961  1.4572  1.5333  1.5583
  998ANI     HC13968   6.161   5.014   0.755  0.8127 -0.0991  0.4339
  998ANI     HC13969   6.042   5.215   0.678 -3.0991  1.5345  1.7827
  998ANI     HC13970   6.052   5.429   0.833  0.7370  0.8799  1.2832
  998ANI     HN13971   6.119   5.513   1.032  1.4975  1.0981  0.2086
  998ANI     HN13972   6.102   5.390   1.148  1.4999 -0.3300  0.6164
  999ANI     CN13973   0.261   1.233   0.173  0.2831  0.7324 -0.7562
  999ANI     CH13974   0.367   1.185   0.095  0.3597 -0.2449 -0.0599
  999ANI     CH13975   0.499   1.176   0.141  0.3655  0.0045 -0.0262
  999ANI     CH13976   0.529   1.231   0.266  0.3466 -0.2311  0.0815
  999ANI     CH13977   0.425   1.294   0.337  0.2307 -0.6901  0.3191
  999ANI     CH13978   0.293   1.298   0.293  0.3611 -0.5713 -0.0581
  999ANI     NH13979   0.141   1.245   0.114 -0.1029  0.4311 -0.0394
  999ANI     HC13980   0.344   1.136   0.002  1.8732 -0.7167 -0.2052
  999ANI     HC13981   0.581   1.126   0.091 -0.0847 -0.8488  0.0880
  999ANI     HC13982   0.629   1.233   0.305 -0.1396 -0.6030  1.3930
  999ANI     HC13983   0.448   1.335   0.434 -2.1823  0.0408  0.5955
  999ANI     HC13984   0.217   1.355   0.345  0.4347 -1.1495  0.6937
  999ANI     HN13985   0.132   1.167   0.050 -2.4700  1.9423 -1.6327
  999ANI     HN13986   0.064   1.227   0.177  0.0474  0.3668  0.1277
 1000ANI     CN13987   6.214   5.741   3.126  0.4197 -0.1226  0.2351
 1000ANI     CH13988   6.234   5.870   3.177 -0.3989 -0.1248  0.5592
 1000ANI     CH13989   6.185   5.899   3.305  0.1009  0.7480  0.5542
 1000ANI     CH13990   6.125   5.800   3.384 -0.5431  0.0194 -0.8236
 1000ANI     CH13991   6.117   5.670   3.334 -0.0809 -0.3939  0.1661
 1000ANI     CH13992   6.162   5.638   3.205  0.1268 -0.0422  0.1507
 1000ANI     NH13993   6.263   5.703   3.007  0.7898 -0.0415  0.3610
 1000ANI     HC13994   6.278   5.945   3.113 -0.9589 -0.6139 -0.4279
 1000ANI     HC13995   6.201   5.999   3.342  2.9538  0.5744 -0.1365
 1000ANI     HC13996   6.102   5.830   3.485  0.6904 -0.8373 -0.2857
 1000ANI     HC13997   6.078   5.590   3.396  1.2054  0.9915  2.8232
 1000ANI     HC13998   6.169   5.535   3.174 -0.3727  0.1811 -0.7061
 1000ANI     HN13999   6.247   5.604   2.995  0.6451  0.2331 -2.1449
 1000ANI     HN14000   6.220   5.750   2.928  1.9261 -0.5076 -0.5504
 1001ANI     CN14001   5.137   0.855   5.893  0.2347  0.1743 -0.2239
 1001ANI     CH14002   5.154   0.717   5.911  0.7609  0.2439 -0.1826
 1001ANI     CH14003   5.261   0.668   5.987 -0.0694 -0.4443  0.5541
 1001ANI     CH14004   5.351   0.757   6.047 -0.3574 -0.0635  0.4290
 1001ANI     CH14005   5.340   0.894   6.020  0.1054 -0.1825 -0.3708
 1001ANI     CH14006   5.235   0.943   5.941 -0.5323  0.4650  0.8515
 1001ANI     NH14007   5.032   0.894   5.819  0.1093 -0.1979 -0.2435
 1001ANI     HC14008   5.076   0.649   5.880 -1.1326  2.1615  0.2149
 1001ANI     HC14009   5.248   0.567   6.021  2.2606 -1.2290 -0.7506
 1001ANI     HC14010   5.426   0.724   6.118  2.4677 -2.6935 -3.6113
 1001ANI     HC14011   5.392   0.970   6.075 -1.1190 -0.0757  0.6714
 1001ANI     HC14012   5.220   1.048   5.924 -1.4322  0.3668  1.0663
 1001ANI     HN14013   5.062   0.877   5.724  0.7186  0.6550 -0.2122
 1001ANI     HN14014   5.026   0.994   5.831 -2.1758 -0.6409  2.9987
 1002ANI     CN14015   4.622   5.592   1.850  0.3187 -0.4760 -0.0103
 1002ANI     CH14016   4.572   5.530   1.735  0.0034  0.3910 -0.3433
 1002ANI     CH14017   4.433   5.516   1.718 -0.1128  0.3267  0.6655
 1002ANI     CH14018   4.348   5.563   1.820 -0.1382  0.4580  0.5851
 1002ANI     CH14019   4.401   5.619   1.937  0.2351  0.1294  0.5753
 1002ANI     CH14020   4.539   5.632   1.955  0.3328  0.3711 -0.3222
 1002ANI     NH14021   4.746   5.640   1.868  0.0701  0.2745 -0.2916
 1002ANI     HC14022   4.642   5.504   1.657  0.1980  1.1071 -0.4081
 1002ANI     HC14023   4.391   5.482   1.625 -0.0338 -1.3561  1.2309
 1002ANI     HC14024   4.242   5.571   1.803 -0.5041 -1.2728  1.9111
 1002ANI     HC14025   4.338   5.652   2.018 -2.0207  1.8039 -1.7550
 1002ANI     HC14026   4.577   5.675   2.047 -0.1985  1.3793 -0.5630
 1002ANI     HN14027   4.784   5.671   1.780  2.2403  0.8530  0.8376
 1002ANI     HN14028   4.758   5.712   1.937  0.1505 -0.7775  0.8127
 1003ANI     CN14029   6.072   5.748   5.296  0.1251 -0.8281 -0.1021
 1003ANI     CH14030   6.162   5.760   5.402  0.0936 -0.2792 -0.1345
 1003ANI     CH14031   6.117   5.764   5.535 -0.1070 -0.5716 -0.1940
 1003ANI     CH14032   5.979   5.759   5.558 -0.0461  0.1502  0.3256
 1003ANI     CH14033   5.886   5.758   5.453  0.1177 -0.9932  0.1873
 1003ANI     CH14034   5.934   5.745   5.322  0.1099  0.5637  0.0178
 1003ANI     NH14035   6.111   5.763   5.169 -0.3221 -0.0337 -0.1533
 1003ANI     HC14036   6.269   5.769   5.399 -0.0071  1.2773  0.5931
 1003ANI     HC14037   6.181   5.778   5.620  1.0048 -3.1746 -0.5660
 1003ANI     HC14038   5.928   5.774   5.652 -1.7274  2.4605 -0.8907
 1003ANI     HC14039   5.784   5.761   5.487  0.0657 -0.3327 -0.0140
 1003ANI     HC14040   5.875   5.731   5.233  0.8398 -2.7758 -0.0131
 1003ANI     HN14041   6.200   5.721   5.143  0.0936  0.3804  0.5988
 1003ANI     HN14042   6.040   5.739   5.102  1.0520 -0.4539 -1.4963
 1004ANI     CN14043   1.392   3.925   4.012 -0.4475  0.1979 -0.2999
 1004ANI     CH14044   1.261   3.939   4.061 -0.2819 -0.0541  0.2184
 1004ANI     CH14045   1.155   3.860   4.015 -0.1540 -0.3613  0.4467
 1004ANI     CH14046   1.174   3.771   3.908 -0.0842 -0.2879  0.3984
 1004ANI     CH14047   1.304   3.752   3.860 -0.1689  0.2780 -0.0570
 1004ANI     CH14048   1.409   3.828   3.913 -0.0856  0.5001 -0.5332
 1004ANI     NH14049   1.495   3.991   4.065  0.0426 -0.7035 -0.1353
 1004ANI     HC14050   1.244   4.002   4.146  1.6816  2.1783 -0.9732
 1004ANI     HC14051   1.060   3.878   4.064  1.3693  3.4767  2.2056
 1004ANI     HC14052   1.096   3.716   3.858  0.0161  0.3318 -0.4499
 1004ANI     HC14053   1.317   3.682   3.779  1.3058 -0.1926  0.5710
 1004ANI     HC14054   1.507   3.812   3.870  0.6152  0.7820  0.9107
 1004ANI     HN14055   1.481   4.022   4.160 -0.7911  2.3985 -1.2235
 1004ANI     HN14056   1.581   3.937   4.065  0.7710  0.4472 -0.6440
 1005ANI     CN14057   3.421   5.665   5.473 -0.3916  0.0244 -0.4362
 1005ANI     CH14058   3.385   5.580   5.368  0.0678 -0.1719 -0.4363
 1005ANI     CH14059   3.455   5.590   5.247  0.3097 -0.2449 -0.3017
 1005ANI     CH14060   3.564   5.677   5.236  0.0496  0.1874  0.4895
 1005ANI     CH14061   3.602   5.759   5.343  0.6120  0.1352  0.3317
 1005ANI     CH14062   3.530   5.752   5.462 -0.3770  0.0275 -0.2663
 1005ANI     NH14063   3.360   5.662   5.593 -0.1436 -0.0743 -0.3128
 1005ANI     HC14064   3.312   5.501   5.382 -0.0665  0.1506  0.7073
 1005ANI     HC14065   3.421   5.525   5.168 -2.5123 -0.5618  1.0899
 1005ANI     HC14066   3.621   5.689   5.145 -0.8353 -1.3424 -0.2843
 1005ANI     HC14067   3.688   5.823   5.327 -0.7340  1.5352 -1.5600
 1005ANI     HC14068   3.563   5.818   5.541 -0.1368 -0.8242  0.3465
 1005ANI     HN14069   3.367   5.759   5.618 -0.7543  0.0882 -0.7778
 1005ANI     HN14070   3.260   5.647   5.593 -0.3681  1.3807 -0.8256
 1006ANI     CN14071   4.461   2.934   1.218 -0.3204  0.8890 -0.3078
 1006ANI     CH14072   4.496   3.015   1.326  0.5317  0.5371 -0.3109
 1006ANI     CH14073   4.401   3.041   1.427  0.1031 -0.3429 -0.4839
 1006ANI     CH14074   4.278   2.976   1.414 -0.0615 -0.0686 -0.2903
 1006ANI     CH14075   4.242   2.897   1.304 -0.2216 -0.5389  0.1004
 1006ANI     CH14076   4.333   2.881   1.199 -0.2745  0.7242 -0.1464
 1006ANI     NH14077   4.549   2.903   1.121  0.2818 -0.7734  0.7506
 1006ANI     HC14078   4.590   3.066   1.335 -0.1005  1.6328  0.3118
 1006ANI     HC14079   4.418   3.102   1.514  0.6470 -1.5781  0.2889
 1006ANI     HC14080   4.218   2.985   1.504 -0.5191  0.3231 -0.6296
 1006ANI     HC14081   4.148   2.846   1.321 -1.9703  1.9606 -1.7453
 1006ANI     HC14082   4.313   2.823   1.110 -0.0308  0.9195 -0.3289
 1006ANI     HN14083   4.508   2.836   1.058 -2.3432 -0.3146  1.8677
 1006ANI     HN14084   4.647   2.895   1.143  0.9353 -1.2615 -2.1727
 1007ANI     CN14085   2.248   1.989   6.272  0.3837  0.1325 -0.1709
 1007ANI     CH14086   2.321   2.042   6.379  0.1528 -0.5111  0.3115
 1007ANI     CH14087   2.417   2.141   6.356  0.1648 -0.6165 -0.1055
 1007ANI     CH14088   2.440   2.192   6.227 -0.1450 -0.4980 -0.1140
 1007ANI     CH14089   2.365   2.140   6.121  0.1226 -0.0033 -0.5437
 1007ANI     CH14090   2.269   2.041   6.144  0.2010 -0.0146 -0.2604
 1007ANI     NH14091   2.161   1.889   6.293  0.6960 -0.1035  0.0005
 1007ANI     HC14092   2.313   2.004   6.479 -0.5699  2.6590  1.5074
 1007ANI     HC14093   2.480   2.182   6.434 -0.0873  1.0579 -0.7490
 1007ANI     HC14094   2.516   2.267   6.211  0.2659 -0.7965  0.4223
 1007ANI     HC14095   2.383   2.183   6.024  0.9935 -0.5598 -0.6319
 1007ANI     HC14096   2.224   2.006   6.052 -2.3527  1.8691  0.2163
 1007ANI     HN14097   2.167   1.814   6.225 -0.8531 -0.2901  0.0638
 1007ANI     HN14098   2.170   1.843   6.382 -0.3995 -0.4964 -0.0792
 1008ANI     CN14099   1.606   4.730   4.727 -0.0297 -0.3446  0.6760
 1008ANI     CH14100   1.509   4.759   4.825 -0.2007 -0.7476  0.6244
 1008ANI     CH14101   1.373   4.761   4.793 -0.1118 -0.7061  0.2354
 1008ANI     CH14102   1.335   4.740   4.660  0.0753  0.6909 -0.0409
 1008ANI     CH14103   1.429   4.714   4.560 -0.0053  0.0337  0.0524
 1008ANI     CH14104   1.565   4.714   4.595 -0.1691 -0.1389  0.6937
 1008ANI     NH14105   1.735   4.736   4.764  0.1977 -0.2264 -0.1360
 1008ANI     HC14106   1.541   4.765   4.928 -0.9876 -0.9333  0.8850
 1008ANI     HC14107   1.307   4.789   4.874 -1.3547 -1.1545 -0.6038
 1008ANI     HC14108   1.230   4.737   4.634  0.1348 -1.7679 -0.1658
 1008ANI     HC14109   1.398   4.705   4.457  1.3788  1.5453 -0.5234
 1008ANI     HC14110   1.647   4.693   4.528 -0.1966  0.2098  0.5484
 1008ANI     HN14111   1.786   4.769   4.684 -1.1683 -1.1986 -1.4532
 1008ANI     HN14112   1.745   4.804   4.838  0.9027 -0.3702 -0.0977
 1009ANI     CN14113   6.230   2.114   3.810  0.3540  0.3998 -0.6147
 1009ANI     CH14114   6.168   2.191   3.909 -0.3712 -0.5177 -0.3401
 1009ANI     CH14115   6.029   2.199   3.911 -0.3362  0.0548 -0.1137
 1009ANI     CH14116   5.954   2.132   3.813 -0.1882 -0.1939 -0.0560
 1009ANI     CH14117   6.014   2.051   3.717 -0.0796  0.3116 -0.4145
 1009ANI     CH14118   6.153   2.032   3.726 -0.1729 -0.0629  0.3053
 1009ANI     NH14119   6.362   2.104   3.793  0.4433 -0.1817  0.3792
 1009ANI     HC14120   6.228   2.242   3.984  0.5466 -0.4598 -1.1024
 1009ANI     HC14121   5.975   2.250   3.989 -2.1275 -2.1280  0.1212
 1009ANI     HC14122   5.848   2.156   3.815 -0.7001 -2.4146  1.3312
 1009ANI     HC14123   5.958   1.988   3.650 -1.9568 -0.0605  1.4479
 1009ANI     HC14124   6.195   1.975   3.645  1.4022  0.3332  0.8232
 1009ANI     HN14125   6.401   2.011   3.794  2.3066  0.4150 -4.8496
 1009ANI     HN14126   6.413   2.151   3.867 -0.6054  0.5613  0.6459
 1010ANI     CN14127   4.888   4.180   3.587 -0.5480 -0.6946 -0.2424
 1010ANI     CH14128   4.862   4.123   3.712  0.1836  0.1162  0.2908
 1010ANI     CH14129   4.733   4.092   3.758  0.1229  0.7445  0.5536
 1010ANI     CH14130   4.623   4.128   3.680  0.2230  0.3754  0.2395
 1010ANI     CH14131   4.652   4.181   3.554 -0.1937  0.3010  0.1090
 1010ANI     CH14132   4.780   4.212   3.504 -0.3206  0.5072 -0.0918
 1010ANI     NH14133   5.013   4.214   3.552 -0.6757 -0.0812 -0.1185
 1010ANI     HC14134   4.936   4.105   3.788  0.0046 -0.7172  0.2760
 1010ANI     HC14135   4.713   4.045   3.853  0.3326 -0.6450 -0.0664
 1010ANI     HC14136   4.525   4.102   3.719  0.7165  0.3570  1.4658
 1010ANI     HC14137   4.571   4.211   3.489 -0.6895  0.8459  0.9712
 1010ANI     HC14138   4.800   4.260   3.410 -1.6015  1.2681  0.0123
 1010ANI     HN14139   5.017   4.284   3.480 -1.8113  0.1401  0.0198
 1010ANI     HN14140   5.068   4.232   3.634  0.5490  0.5112 -1.0511
 1011ANI     CN14141   2.893   4.392   6.254 -0.1376 -0.1872 -0.0070
 1011ANI     CH14142   2.828   4.358   6.134 -0.0682  0.5585 -0.2632
 1011ANI     CH14143   2.689   4.341   6.134  0.0696 -0.5944 -0.2022
 1011ANI     CH14144   2.615   4.351   6.252  0.4847 -0.3656  0.0398
 1011ANI     CH14145   2.678   4.382   6.373 -0.3151 -0.6204  0.5281
 1011ANI     CH14146   2.816   4.406   6.370 -0.4817  0.2528 -0.2837
 1011ANI     NH14147   3.025   4.411   6.251 -0.1843  0.1844  0.1548
 1011ANI     HC14148   2.883   4.339   6.044  0.8988 -4.3174  1.1978
 1011ANI     HC14149   2.638   4.316   6.042 -1.3732 -0.8552  0.6492
 1011ANI     HC14150   2.508   4.336   6.250  0.6899 -2.1110  1.0750
 1011ANI     HC14151   2.614   4.385   6.460 -0.4412 -1.0660  0.4554
 1011ANI     HC14152   2.866   4.440   6.460  0.4412  1.5651 -1.2599
 1011ANI     HN14153   3.067   4.371   6.168  0.0804  1.2861 -0.2458
 1011ANI     HN14154   3.083   4.380   6.327  2.6199  1.2054 -1.4852
 1012ANI     CN14155   2.297   0.402   4.165 -0.1143 -0.0170 -0.0739
 1012ANI     CH14156   2.429   0.363   4.192 -0.2346 -0.0238  0.5194
 1012ANI     CH14157   2.525   0.458   4.230 -0.0732 -0.1442  0.4142
 1012ANI     CH14158   2.484   0.590   4.252  0.1905  0.0679 -0.3434
 1012ANI     CH14159   2.350   0.630   4.237  0.1132  0.0896  0.3928
 1012ANI     CH14160   2.260   0.535   4.188  0.2080 -0.0109  0.4153
 1012ANI     NH14161   2.204   0.309   4.139 -0.2086  0.1220 -0.2262
 1012ANI     HC14162   2.454   0.258   4.184 -2.4367 -0.4883 -0.7029
 1012ANI     HC14163   2.619   0.417   4.262 -0.0696 -1.1016 -0.7488
 1012ANI     HC14164   2.561   0.656   4.288  2.8399 -2.4134 -1.2942
 1012ANI     HC14165   2.314   0.730   4.255  1.7376  0.4674  1.6665
 1012ANI     HC14166   2.159   0.567   4.169 -0.7807 -1.8624  2.3426
 1012ANI     HN14167   2.232   0.217   4.169  0.2468  0.1746 -0.4910
 1012ANI     HN14168   2.111   0.327   4.175 -0.0301  0.0769  0.2555
 1013ANI     CN14169   6.094   3.696   3.460  0.0697 -0.1950  0.2254
 1013ANI     CH14170   6.029   3.641   3.571  0.4727 -0.2429  0.4399
 1013ANI     CH14171   6.030   3.502   3.584  0.4837 -0.2642  0.2115
 1013ANI     CH14172   6.090   3.426   3.483 -0.0448 -0.0902 -0.2336
 1013ANI     CH14173   6.152   3.480   3.370 -0.2695  0.1331 -0.2497
 1013ANI     CH14174   6.157   3.620   3.361 -0.1661  0.1344 -0.1756
 1013ANI     NH14175   6.127   3.826   3.464  0.5770 -0.3288  0.4606
 1013ANI     HC14176   5.989   3.705   3.648  0.9462  0.4092  0.1448
 1013ANI     HC14177   5.987   3.454   3.671  2.3140 -1.9942  0.2201
 1013ANI     HC14178   6.087   3.318   3.492  1.2597 -0.0857  0.3650
 1013ANI     HC14179   6.193   3.412   3.297  0.4812  1.1949 -0.8268
 1013ANI     HC14180   6.198   3.675   3.277 -1.0201  0.3859 -0.4317
 1013ANI     HN14181   6.090   3.877   3.542 -0.0101 -2.4258  1.5860
 1013ANI     HN14182   6.227   3.845   3.463  0.4184  0.4839 -0.1722
 1014ANI     CN14183   5.199   4.350   1.164  0.2776 -0.3199 -0.4014
 1014ANI     CH14184   5.145   4.478   1.187  0.5557 -0.2090 -0.3710
 1014ANI     CH14185   5.050   4.528   1.097  0.4465  0.8250  0.3088
 1014ANI     CH14186   5.017   4.459   0.979 -1.0371 -0.3443  1.3931
 1014ANI     CH14187   5.075   4.335   0.951  0.5737  0.7473 -0.2116
 1014ANI     CH14188   5.155   4.280   1.052 -0.6163 -0.5093  0.0587
 1014ANI     NH14189   5.288   4.294   1.246  0.3746  0.5043  0.0721
 1014ANI     HC14190   5.158   4.531   1.280 -0.0610 -0.4025 -0.1646
 1014ANI     HC14191   4.999   4.622   1.108 -0.2321  0.5865 -0.7267
 1014ANI     HC14192   4.950   4.511   0.912  0.0386  0.2545  0.7581
 1014ANI     HC14193   5.039   4.276   0.867  1.3717 -0.0883  0.0323
 1014ANI     HC14194   5.209   4.189   1.029  0.4334 -0.1241  0.9857
 1014ANI     HN14195   5.330   4.205   1.219 -0.0108  0.0680  0.9062
 1014ANI     HN14196   5.350   4.338   1.313 -0.1012  0.7204  0.3708
 1015ANI     CN14197   0.427   4.685   4.411 -0.5317  0.3021 -0.2300
 1015ANI     CH14198   0.505   4.697   4.526 -0.1683 -0.4439 -0.3978
 1015ANI     CH14199   0.644   4.696   4.514 -0.1006 -1.2955  0.3388
 1015ANI     CH14200   0.707   4.687   4.389 -0.1834 -0.1560  0.2048
 1015ANI     CH14201   0.627   4.679   4.274  0.3705 -0.0427 -0.1917
 1015ANI     CH14202   0.487   4.669   4.286  0.3455  0.6654  0.1449
 1015ANI     NH14203   0.294   4.698   4.422 -0.5406 -0.4784  0.6906
 1015ANI     HC14204   0.459   4.701   4.624 -0.6085 -1.5045 -0.5476
 1015ANI     HC14205   0.706   4.719   4.599 -1.2434  0.8951  0.6096
 1015ANI     HC14206   0.812   4.708   4.374 -0.1560 -1.7803 -2.3437
 1015ANI     HC14207   0.666   4.669   4.174 -1.4971  1.5387 -1.1246
 1015ANI     HC14208   0.433   4.647   4.195  2.2475 -0.4085 -0.7626
 1015ANI     HN14209   0.252   4.659   4.505 -2.2953 -3.0454 -1.3391
 1015ANI     HN14210   0.244   4.680   4.336  2.1670 -1.6721 -0.7000
 1016ANI     CN14211   4.563   2.403   4.232 -0.0804  0.0543  0.0079
 1016ANI     CH14212   4.616   2.349   4.350 -0.3441  0.1162  0.1559
 1016ANI     CH14213   4.531   2.291   4.445 -0.5640 -0.3290 -0.3077
 1016ANI     CH14214   4.392   2.288   4.429 -0.7055 -0.4695  0.9027
 1016ANI     CH14215   4.339   2.344   4.312  0.8059  0.2074  0.5334
 1016ANI     CH14216   4.423   2.403   4.218 -0.0476  0.0896 -0.3115
 1016ANI     NH14217   4.649   2.445   4.139 -0.1283  0.1775  0.0207
 1016ANI     HC14218   4.723   2.341   4.360 -0.2639 -0.2835 -0.8861
 1016ANI     HC14219   4.577   2.242   4.529 -0.6440  0.7690  0.3877
 1016ANI     HC14220   4.321   2.239   4.494  0.1394 -0.9466  1.4751
 1016ANI     HC14221   4.233   2.335   4.296  0.7065  1.8313  0.2346
 1016ANI     HC14222   4.389   2.438   4.121  0.3360  1.0143 -0.1178
 1016ANI     HN14223   4.594   2.455   4.055 -1.7756  1.6989  1.2238
 1016ANI     HN14224   4.719   2.377   4.112  0.3164  1.0353 -1.0531
 1017ANI     CN14225   1.710   4.266   1.372 -0.0669  0.5445  0.2751
 1017ANI     CH14226   1.803   4.166   1.341 -0.1199  0.3648  0.6975
 1017ANI     CH14227   1.763   4.033   1.324 -0.1301  0.4569 -0.0152
 1017ANI     CH14228   1.627   3.999   1.331 -0.1419  0.3874 -0.5776
 1017ANI     CH14229   1.535   4.100   1.363  0.0520  0.1819  0.6483
 1017ANI     CH14230   1.574   4.234   1.379  0.0080  0.2364  0.3139
 1017ANI     NH14231   1.757   4.388   1.400  0.3612  0.5353 -0.3817
 1017ANI     HC14232   1.909   4.185   1.337  0.1704 -1.4034 -1.0265
 1017ANI     HC14233   1.842   3.960   1.314  0.4742  1.0139  0.7170
 1017ANI     HC14234   1.607   3.894   1.323  0.9230  0.1284  0.1374
 1017ANI     HC14235   1.434   4.064   1.368 -0.8636  2.3732 -1.2503
 1017ANI     HC14236   1.501   4.309   1.404  0.7659  1.0133  0.2146
 1017ANI     HN14237   1.711   4.431   1.479 -2.1042 -1.2140 -0.8072
 1017ANI     HN14238   1.854   4.385   1.428  0.2361 -1.5842 -0.1569
 1018ANI     CN14239   3.953   1.186   5.146 -0.5418 -0.1220  0.1187
 1018ANI     CH14240   4.093   1.183   5.141 -0.5397  0.4822 -0.1680
 1018ANI     CH14241   4.169   1.299   5.118 -0.2476  0.2789 -0.2299
 1018ANI     CH14242   4.107   1.423   5.136  0.0998  0.3670  0.3643
 1018ANI     CH14243   3.969   1.429   5.162 -0.0618 -0.4868 -0.2819
 1018ANI     CH14244   3.894   1.311   5.169 -0.6563 -0.1095 -0.2544
 1018ANI     NH14245   3.879   1.075   5.140  0.1557 -0.5963  0.1791
 1018ANI     HC14246   4.142   1.088   5.125  2.4035  1.9557 -0.1935
 1018ANI     HC14247   4.275   1.282   5.112 -0.2362 -0.3710  1.6276
 1018ANI     HC14248   4.163   1.515   5.128  0.2945  0.2001 -0.2419
 1018ANI     HC14249   3.915   1.521   5.177  2.8865  1.0504  1.3718
 1018ANI     HC14250   3.787   1.319   5.180 -0.6504  1.6714 -1.2937
 1018ANI     HN14251   3.785   1.068   5.177 -0.5096 -1.8980 -1.6887
 1018ANI     HN14252   3.927   0.986   5.139 -0.2158 -0.7906 -0.8472
 1019ANI     CN14253   2.387   5.444   2.249  0.0353  0.1935  0.0479
 1019ANI     CH14254   2.495   5.516   2.300  0.5411 -0.2987 -0.3171
 1019ANI     CH14255   2.551   5.621   2.226 -0.7745  0.4234 -0.2922
 1019ANI     CH14256   2.492   5.656   2.105 -0.0415  0.6550 -0.5831
 1019ANI     CH14257   2.389   5.579   2.049  0.3042 -0.0443 -0.2527
 1019ANI     CH14258   2.335   5.472   2.122  0.6977 -0.3043 -0.3396
 1019ANI     NH14259   2.345   5.338   2.319 -0.1174  0.2703  0.0728
 1019ANI     HC14260   2.542   5.492   2.395 -1.8897 -1.9188  0.5196
 1019ANI     HC14261   2.630   5.686   2.261  0.4681 -1.4914  0.5081
 1019ANI     HC14262   2.536   5.737   2.048  3.8519 -0.8788  0.1287
 1019ANI     HC14263   2.336   5.602   1.958 -1.0680  0.2942  0.6139
 1019ANI     HC14264   2.243   5.429   2.086  0.5813 -0.3492  0.0064
 1019ANI     HN14265   2.308   5.372   2.407 -2.9263  1.4558 -1.5138
 1019ANI     HN14266   2.429   5.285   2.341 -0.0758 -0.4212 -1.7323
 1020ANI     CN14267   0.488   0.273   0.880 -0.1942 -0.1151  0.2755
 1020ANI     CH14268   0.521   0.404   0.917 -0.3098 -0.0150  0.0271
 1020ANI     CH14269   0.555   0.434   1.050 -0.5454  0.1952  0.0389
 1020ANI     CH14270   0.549   0.329   1.142  0.5373  0.0320 -0.0745
 1020ANI     CH14271   0.504   0.199   1.112  0.2877  0.1958 -0.4129
 1020ANI     CH14272   0.486   0.171   0.976  0.2708 -0.6169 -0.2429
 1020ANI     NH14273   0.453   0.234   0.757  0.2339 -0.3630  0.2298
 1020ANI     HC14274   0.510   0.478   0.840 -0.8621  0.9056  0.9893
 1020ANI     HC14275   0.585   0.529   1.091 -1.4907 -0.6110  2.6766
 1020ANI     HC14276   0.554   0.361   1.245 -0.3852 -0.8356  0.2504
 1020ANI     HC14277   0.504   0.131   1.196  1.2678  2.8577  1.8386
 1020ANI     HC14278   0.464   0.070   0.945  0.2182 -0.8138  0.4243
 1020ANI     HN14279   0.440   0.311   0.692  0.2976  0.8223  1.5857
 1020ANI     HN14280   0.358   0.201   0.762 -1.6340  4.2503 -1.5289
 1021ANI     CN14281   0.992   4.883   3.269  0.2116  0.0105 -0.3883
 1021ANI     CH14282   0.860   4.892   3.314  0.2646 -0.1094 -0.2061
 1021ANI     CH14283   0.834   4.952   3.437  0.2094 -0.6724  0.0609
 1021ANI     CH14284   0.936   5.012   3.512 -0.0617 -0.1972  0.0546
 1021ANI     CH14285   1.068   4.998   3.467  0.0073 -0.4766  0.3445
 1021ANI     CH14286   1.097   4.937   3.345 -0.1028 -0.1055  0.1294
 1021ANI     NH14287   1.001   4.824   3.149  0.8427 -0.5102 -0.0856
 1021ANI     HC14288   0.780   4.837   3.266 -0.4792  0.2170  0.6571
 1021ANI     HC14289   0.731   4.949   3.469  0.2235 -0.8635  0.0846
 1021ANI     HC14290   0.912   5.052   3.610  0.8041  1.6896 -0.4748
 1021ANI     HC14291   1.144   5.032   3.536 -0.2718 -0.4391  0.6369
 1021ANI     HC14292   1.197   4.917   3.308  0.3861  0.2869  1.2043
 1021ANI     HN14293   0.910   4.797   3.117  1.1522 -1.3730 -0.2507
 1021ANI     HN14294   1.061   4.743   3.140  2.3851  0.3656  1.7920
 1022ANI     CN14295   1.962   5.909   6.100 -0.4139 -0.2196 -0.2263
 1022ANI     CH14296   1.924   6.011   6.188  0.3169 -0.2558  0.1385
 1022ANI     CH14297   1.871   5.978   6.313 -0.1951 -0.4926 -0.1402
 1022ANI     CH14298   1.855   5.845   6.353  0.0647 -0.4388  0.1357
 1022ANI     CH14299   1.897   5.743   6.267 -0.0573 -0.2835 -0.1092
 1022ANI     CH14300   1.941   5.776   6.138 -0.5103 -0.2109 -0.2469
 1022ANI     NH14301   2.001   5.933   5.974 -0.0713 -0.3973 -0.1571
 1022ANI     HC14302   1.942   6.114   6.160 -2.6296 -0.0762 -1.3255
 1022ANI     HC14303   1.850   6.058   6.383  1.6710 -0.0562 -0.0413
 1022ANI     HC14304   1.820   5.810   6.449  1.1041 -0.1657  0.6284
 1022ANI     HC14305   1.887   5.642   6.304  0.7767  0.0520  1.0827
 1022ANI     HC14306   1.962   5.693   6.072 -1.5417 -0.6803  0.0051
 1022ANI     HN14307   2.042   6.026   5.974  0.8616 -0.8088  0.0257
 1022ANI     HN14308   2.069   5.876   5.926  0.6706 -0.9481  1.5144
 1023ANI     CN14309   0.099   1.503   2.134  0.0440 -0.0094  0.5228
 1023ANI     CH14310  -0.031   1.488   2.185  0.1598 -0.6331  0.6423
 1023ANI     CH14311  -0.130   1.418   2.115  0.4053 -0.3097 -0.0387
 1023ANI     CH14312  -0.101   1.369   1.987  0.3033  0.1933 -0.2547
 1023ANI     CH14313   0.024   1.390   1.928  0.1760  0.0849 -0.5686
 1023ANI     CH14314   0.120   1.460   2.003 -0.9218  0.9522  0.0498
 1023ANI     NH14315   0.195   1.569   2.202  0.5551  0.0281 -0.2307
 1023ANI     HC14316  -0.046   1.524   2.285  2.3958  0.3869  0.6565
 1023ANI     HC14317  -0.228   1.410   2.158  0.2160  1.0947 -0.2023
 1023ANI     HC14318  -0.175   1.317   1.928  0.6931 -2.8029  1.7482
 1023ANI     HC14319   0.043   1.363   1.826  2.1776  1.9730 -0.7302
 1023ANI     HC14320   0.215   1.477   1.953 -0.8449 -0.4113 -0.2869
 1023ANI     HN14321   0.157   1.632   2.271  0.6273 -0.8232  0.5994
 1023ANI     HN14322   0.264   1.619   2.149 -1.1376  1.6683 -0.9645
 1024ANI     CN14323   3.087   6.157   1.870  0.1730  0.5485  0.2990
 1024ANI     CH14324   3.154   6.107   1.982 -0.2080 -0.2692  0.1678
 1024ANI     CH14325   3.293   6.090   1.981 -0.2447 -0.5364 -0.3282
 1024ANI     CH14326   3.365   6.117   1.864 -0.1742 -0.3714 -0.2467
 1024ANI     CH14327   3.299   6.173   1.754 -0.2526  0.0444  0.0080
 1024ANI     CH14328   3.160   6.189   1.754 -0.2160  0.3520 -0.0018
 1024ANI     NH14329   2.954   6.162   1.856  0.2164  0.4005 -0.1883
 1024ANI     HC14330   3.097   6.094   2.073  1.2621 -0.1661  1.1162
 1024ANI     HC14331   3.329   6.036   2.067  0.3663  1.0682  0.4342
 1024ANI     HC14332   3.472   6.103   1.858  0.0042 -0.1428  1.9230
 1024ANI     HC14333   3.354   6.202   1.666  0.2179 -1.9263 -0.3890
 1024ANI     HC14334   3.115   6.232   1.666 -1.0158 -1.4810 -0.5021
 1024ANI     HN14335   2.918   6.093   1.920  0.4766  0.6463  0.2214
 1024ANI     HN14336   2.933   6.115   1.769  0.0751  0.0239  0.0485
 1025ANI     CN14337   3.086   1.138   4.279  0.6698  0.0996 -0.0076
 1025ANI     CH14338   3.094   1.057   4.165  1.0065  0.1159  0.0047
 1025ANI     CH14339   3.137   0.925   4.182 -0.6850 -0.4455  0.0702
 1025ANI     CH14340   3.147   0.861   4.306 -0.3262 -0.1892  0.1767
 1025ANI     CH14341   3.127   0.941   4.419 -0.7397 -0.5280  0.3461
 1025ANI     CH14342   3.094   1.076   4.404  0.3564 -0.3083 -0.1901
 1025ANI     NH14343   3.056   1.268   4.263 -0.5894 -0.1293  0.4171
 1025ANI     HC14344   3.084   1.090   4.063 -2.5341 -1.2520 -0.1687
 1025ANI     HC14345   3.162   0.866   4.095 -0.3393  0.1443 -0.2340
 1025ANI     HC14346   3.187   0.761   4.312  1.5412  0.3099 -2.6391
 1025ANI     HC14347   3.136   0.900   4.519 -1.0848 -2.5129 -0.4064
 1025ANI     HC14348   3.087   1.145   4.486 -1.6383  0.7290 -1.2013
 1025ANI     HN14349   3.005   1.289   4.348 -1.2897 -1.2015  0.2653
 1025ANI     HN14350   2.982   1.276   4.194  0.5903  0.3511 -0.8173
 1026ANI     CN14351   1.473   1.465   5.203  0.2027 -0.0676  0.3467
 1026ANI     CH14352   1.574   1.441   5.108 -0.5248  0.2270 -0.5160
 1026ANI     CH14353   1.679   1.531   5.089  0.2553 -0.4970  0.3019
 1026ANI     CH14354   1.691   1.639   5.178 -0.4709 -0.1131 -0.0615
 1026ANI     CH14355   1.597   1.664   5.278 -0.2581 -0.1529  0.1480
 1026ANI     CH14356   1.488   1.576   5.286 -0.2072 -0.1784  0.5665
 1026ANI     NH14357   1.372   1.378   5.215  0.2821 -0.1764  0.2358
 1026ANI     HC14358   1.570   1.352   5.048 -2.1586  0.4306 -0.7299
 1026ANI     HC14359   1.740   1.530   5.000 -0.1312 -1.7648  0.0527
 1026ANI     HC14360   1.778   1.702   5.165 -0.2018 -0.1308  1.6012
 1026ANI     HC14361   1.615   1.747   5.345  0.0842  0.2144 -0.3989
 1026ANI     HC14362   1.427   1.589   5.375 -1.3597  1.1296 -0.3952
 1026ANI     HN14363   1.288   1.430   5.237  2.2076  2.8576  0.7507
 1026ANI     HN14364   1.361   1.331   5.127  2.0184 -0.0986 -0.0375
 1027ANI     CN14365   3.274   5.637   0.476  0.0063  0.1271  0.1086
 1027ANI     CH14366   3.248   5.753   0.402  0.4267  0.2499  0.1498
 1027ANI     CH14367   3.126   5.764   0.335  0.2914  0.4670  0.4282
 1027ANI     CH14368   3.042   5.653   0.319  0.9015  0.0368  0.1770
 1027ANI     CH14369   3.073   5.534   0.385  0.1792 -0.1523  0.1829
 1027ANI     CH14370   3.184   5.531   0.470  0.4625 -0.2481 -0.1862
 1027ANI     NH14371   3.385   5.632   0.552 -0.0353 -0.2201  0.1463
 1027ANI     HC14372   3.321   5.833   0.412 -1.6142  2.1555  0.1683
 1027ANI     HC14373   3.108   5.863   0.295  0.2301  0.5010  0.5391
 1027ANI     HC14374   2.951   5.667   0.262  0.4368  0.5358  1.0227
 1027ANI     HC14375   3.011   5.446   0.370 -0.4150  0.0816  1.2527
 1027ANI     HC14376   3.213   5.440   0.522  0.2492 -0.5639 -0.6175
 1027ANI     HN14377   3.437   5.716   0.572 -1.6095  0.7844  0.1775
 1027ANI     HN14378   3.381   5.557   0.619  0.8537 -0.2006  0.2182
 1028ANI     CN14379   5.888   5.942   4.963 -0.2841  0.0137  0.3695
 1028ANI     CH14380   5.863   5.910   4.830  0.1099 -0.3392  0.3788
 1028ANI     CH14381   5.738   5.858   4.792  0.1281  0.0566 -0.2387
 1028ANI     CH14382   5.637   5.839   4.887  0.5114  0.1701  0.1982
 1028ANI     CH14383   5.666   5.859   5.022  0.0286  0.2216  0.2959
 1028ANI     CH14384   5.791   5.909   5.059  0.0034  0.0138  0.6617
 1028ANI     NH14385   6.008   5.987   5.003 -0.1388 -0.1009  0.0631
 1028ANI     HC14386   5.942   5.910   4.757 -0.4338 -0.1554 -0.2186
 1028ANI     HC14387   5.731   5.817   4.693  0.3058 -0.5611 -0.0004
 1028ANI     HC14388   5.546   5.795   4.848  0.5075  1.2402 -1.0816
 1028ANI     HC14389   5.601   5.825   5.102 -1.3279 -1.0910 -1.3259
 1028ANI     HC14390   5.795   5.918   5.167  0.3875  1.6117  0.5132
 1028ANI     HN14391   6.054   5.920   5.062  0.9175 -0.3214 -1.0106
 1028ANI     HN14392   6.068   6.011   4.925  0.5148 -1.1482  0.2496
 1029ANI     CN14393   0.151   0.336   3.877  0.5908 -0.3397  0.0044
 1029ANI     CH14394   0.081   0.303   3.760 -0.3028 -0.0893  0.4593
 1029ANI     CH14395  -0.004   0.192   3.756 -0.7548  0.2661  0.1664
 1029ANI     CH14396  -0.021   0.119   3.874 -0.2674 -0.3157 -0.1245
 1029ANI     CH14397   0.046   0.149   3.993 -0.1758  0.1545 -0.2956
 1029ANI     CH14398   0.135   0.257   3.991 -0.1193  0.1171  0.2296
 1029ANI     NH14399   0.237   0.438   3.871  0.5416 -0.2895  0.1437
 1029ANI     HC14400   0.085   0.358   3.667  0.2877  0.1464  0.6176
 1029ANI     HC14401  -0.039   0.161   3.659  1.8627 -1.0913 -0.3795
 1029ANI     HC14402  -0.091   0.036   3.875 -1.8904  1.0424  0.9310
 1029ANI     HC14403   0.048   0.087   4.081  0.9912  3.1867  1.9068
 1029ANI     HC14404   0.198   0.268   4.079 -1.2387  0.5362  0.9902
 1029ANI     HN14405   0.288   0.452   3.957 -0.0509  0.3318  0.3941
 1029ANI     HN14406   0.302   0.432   3.793 -1.2428 -0.4567 -1.3639
 1030ANI     CN14407   1.291   3.351   5.599 -0.2579 -0.3247 -0.2531
 1030ANI     CH14408   1.160   3.372   5.553 -0.1991 -0.3264 -0.4247
 1030ANI     CH14409   1.134   3.379   5.416 -0.2576  0.3022 -0.3840
 1030ANI     CH14410   1.240   3.368   5.325  0.3410  0.4425  0.2931
 1030ANI     CH14411   1.373   3.368   5.369  0.3606  0.5743  0.2304
 1030ANI     CH14412   1.395   3.348   5.505  0.0691 -0.5144  0.1181
 1030ANI     NH14413   1.319   3.344   5.730 -0.2532 -0.1317 -0.2441
 1030ANI     HC14414   1.074   3.376   5.618 -1.1250  1.8595 -1.7453
 1030ANI     HC14415   1.032   3.390   5.381  0.0360  1.0703 -0.9903
 1030ANI     HC14416   1.221   3.383   5.220  0.3430 -0.1834  0.1998
 1030ANI     HC14417   1.457   3.369   5.301  0.9328 -2.3022  0.8430
 1030ANI     HC14418   1.499   3.336   5.534 -0.0099  0.6626  0.9114
 1030ANI     HN14419   1.259   3.276   5.774 -2.1528  0.2622 -2.1055
 1030ANI     HN14420   1.415   3.314   5.736 -0.4772 -0.9396 -0.6255
 1031ANI     CN14421   0.413   2.127   4.688 -0.4268  0.2706  0.5354
 1031ANI     CH14422   0.469   2.000   4.673 -0.1446  0.4770 -0.1747
 1031ANI     CH14423   0.605   1.994   4.708 -0.3405 -0.2194  0.4870
 1031ANI     CH14424   0.683   2.105   4.740 -0.0208 -0.2523 -0.1634
 1031ANI     CH14425   0.622   2.231   4.747  0.0370 -0.2422  0.1719
 1031ANI     CH14426   0.484   2.242   4.725  0.1431  0.1813 -0.2796
 1031ANI     NH14427   0.279   2.137   4.677 -0.3436  0.4624 -0.3459
 1031ANI     HC14428   0.411   1.910   4.657 -0.2143  0.5232 -0.1803
 1031ANI     HC14429   0.650   1.896   4.707  0.2160  0.0172  2.4204
 1031ANI     HC14430   0.787   2.092   4.767  0.0521 -1.4208 -0.9902
 1031ANI     HC14431   0.689   2.312   4.769  0.9152 -0.3712 -1.9211
 1031ANI     HC14432   0.448   2.343   4.740  0.0508  0.3689 -1.7024
 1031ANI     HN14433   0.227   2.182   4.751  0.0536  1.0190 -0.4012
 1031ANI     HN14434   0.235   2.053   4.642 -0.0477 -0.0358  0.4405
 1032ANI     CN14435   3.970   5.508   5.881 -0.3809  0.2681  0.3907
 1032ANI     CH14436   4.100   5.506   5.934 -0.1933 -0.0537 -0.0869
 1032ANI     CH14437   4.183   5.400   5.896 -0.5494 -0.4690  0.2853
 1032ANI     CH14438   4.146   5.294   5.812 -0.2610 -0.4603  0.1443
 1032ANI     CH14439   4.013   5.297   5.769 -0.4235 -0.1381  0.6560
 1032ANI     CH14440   3.925   5.399   5.807  0.0098  0.6586 -0.4315
 1032ANI     NH14441   3.881   5.606   5.901  0.1479  0.7738  0.2869
 1032ANI     HC14442   4.118   5.590   5.999 -0.6886  1.7330 -2.2144
 1032ANI     HC14443   4.284   5.409   5.935  0.1323 -0.3617 -1.4671
 1032ANI     HC14444   4.212   5.218   5.774  1.2156  1.4215 -1.1691
 1032ANI     HC14445   3.975   5.219   5.704  2.1669 -0.7588 -0.1551
 1032ANI     HC14446   3.818   5.392   5.792 -0.7462  1.5936  3.8029
 1032ANI     HN14447   3.785   5.574   5.902  0.4609 -0.2552 -1.3113
 1032ANI     HN14448   3.895   5.679   5.969 -1.0877  1.2504  0.0498
 1033ANI     CN14449   3.174   5.466   3.599  0.5333  0.1740 -0.0327
 1033ANI     CH14450   3.060   5.390   3.571  0.2434  0.6082 -0.0378
 1033ANI     CH14451   3.022   5.375   3.437 -0.0684 -0.6107  0.1808
 1033ANI     CH14452   3.088   5.450   3.339  0.4462 -0.9297  0.2815
 1033ANI     CH14453   3.203   5.523   3.369  0.0359 -0.0989 -0.1470
 1033ANI     CH14454   3.249   5.533   3.501  0.1980  0.2654 -0.2285
 1033ANI     NH14455   3.209   5.462   3.728  0.7638  0.9320 -0.0654
 1033ANI     HC14456   3.018   5.331   3.651 -1.4232  0.6379 -0.8598
 1033ANI     HC14457   2.930   5.323   3.413 -0.7255  0.1569  0.9537
 1033ANI     HC14458   3.065   5.446   3.234  0.1753  1.1710  0.2472
 1033ANI     HC14459   3.253   5.568   3.284  0.6431 -0.6801 -0.1036
 1033ANI     HC14460   3.345   5.573   3.529  0.7808 -1.7068  0.7212
 1033ANI     HN14461   3.176   5.379   3.775 -0.7370  0.9068 -1.1205
 1033ANI     HN14462   3.308   5.475   3.739  0.9976 -2.1975  2.2387
 1034ANI     CN14463   3.490   2.871   3.669 -0.3310 -0.1941 -0.0034
 1034ANI     CH14464   3.455   2.739   3.697 -0.0812 -0.1567  0.5047
 1034ANI     CH14465   3.470   2.694   3.829 -0.1098 -0.4514  0.4080
 1034ANI     CH14466   3.517   2.779   3.929 -0.1207  0.1727 -0.1094
 1034ANI     CH14467   3.560   2.907   3.895  0.1620  0.1194  0.0453
 1034ANI     CH14468   3.542   2.958   3.766  0.3744 -0.4051 -0.1926
 1034ANI     NH14469   3.476   2.910   3.542  0.0003 -0.4059 -0.1051
 1034ANI     HC14470   3.425   2.671   3.618  0.0168 -0.4336  0.7042
 1034ANI     HC14471   3.468   2.589   3.854 -0.3339 -1.0901 -2.0897
 1034ANI     HC14472   3.537   2.734   4.026 -1.8574 -2.1332 -0.7727
 1034ANI     HC14473   3.608   2.962   3.975  0.7527 -1.6665  0.9289
 1034ANI     HC14474   3.570   3.061   3.745 -0.2729 -0.2382 -0.2461
 1034ANI     HN14475   3.498   2.838   3.474 -0.7051  1.7170 -2.6546
 1034ANI     HN14476   3.543   2.983   3.525 -1.6948  1.2452  0.1655
 1035ANI     CN14477   5.828   0.286   2.209  0.2566 -0.1854  0.0399
 1035ANI     CH14478   5.708   0.247   2.149  0.0600  0.2501  0.1520
 1035ANI     CH14479   5.712   0.189   2.022  0.0748 -0.0877  0.3070
 1035ANI     CH14480   5.833   0.170   1.953  0.1050  0.5778  0.1792
 1035ANI     CH14481   5.954   0.201   2.016  0.3554 -0.3659  0.1575
 1035ANI     CH14482   5.949   0.256   2.144  0.2807  0.0052 -0.0048
 1035ANI     NH14483   5.822   0.335   2.333  0.1480  0.6375 -0.2874
 1035ANI     HC14484   5.611   0.263   2.193 -0.7806 -0.0988 -1.5158
 1035ANI     HC14485   5.622   0.158   1.971 -1.4054  2.2877  1.3877
 1035ANI     HC14486   5.829   0.124   1.855  3.5055  1.0087 -0.2179
 1035ANI     HC14487   6.050   0.175   1.973 -0.2489  0.1553 -1.5269
 1035ANI     HC14488   6.039   0.281   2.197  0.9775  0.4271 -1.3798
 1035ANI     HN14489   5.757   0.285   2.392 -2.0598  1.1827 -2.2067
 1035ANI     HN14490   5.911   0.331   2.382  0.1073  0.3920 -0.2366
 1036ANI     CN14491   2.101   2.117   3.311  0.2986  0.0444  0.6386
 1036ANI     CH14492   2.015   2.150   3.206  0.4071  0.0324  0.5458
 1036ANI     CH14493   1.880   2.115   3.211  0.4319 -0.1742 -0.2148
 1036ANI     CH14494   1.822   2.065   3.329  0.5449  0.3680  0.0707
 1036ANI     CH14495   1.907   2.028   3.434 -0.1775  0.5709  0.7286
 1036ANI     CH14496   2.044   2.052   3.421 -0.0874 -0.1410  0.3292
 1036ANI     NH14497   2.234   2.137   3.315  0.2485  0.4798  0.1940
 1036ANI     HC14498   2.042   2.214   3.123  1.4076  1.2488  1.7688
 1036ANI     HC14499   1.818   2.152   3.131 -1.2856 -1.7986  0.3225
 1036ANI     HC14500   1.716   2.047   3.338  0.3015  0.1970 -2.6496
 1036ANI     HC14501   1.875   1.981   3.525  2.1842 -0.4492  1.0778
 1036ANI     HC14502   2.111   2.024   3.501 -0.5886  0.2084  0.8769
 1036ANI     HN14503   2.277   2.046   3.313  2.0382  1.2434  1.7458
 1036ANI     HN14504   2.272   2.187   3.236  0.4603 -0.3897 -0.2560
 1037ANI     CN14505   0.924   0.266   0.314  0.5319  0.0188  0.4155
 1037ANI     CH14506   0.858   0.350   0.405  0.1241 -0.1058  0.2345
 1037ANI     CH14507   0.789   0.300   0.516 -0.5029  1.0619  0.3830
 1037ANI     CH14508   0.781   0.162   0.538 -0.0209  0.9112 -0.3511
 1037ANI     CH14509   0.839   0.077   0.443 -0.0307 -0.0308  0.4697
 1037ANI     CH14510   0.911   0.128   0.334 -0.3526  0.0857  0.3103
 1037ANI     NH14511   0.995   0.303   0.207  0.5981 -1.4727 -0.0736
 1037ANI     HC14512   0.864   0.456   0.383  1.2136  0.3001  2.4390
 1037ANI     HC14513   0.745   0.361   0.593 -0.7005  0.8882  0.4088
 1037ANI     HC14514   0.725   0.114   0.617 -1.0060  2.2152 -0.2541
 1037ANI     HC14515   0.819  -0.029   0.450 -1.0896  0.0110 -1.6226
 1037ANI     HC14516   0.948   0.061   0.257 -0.9624  0.1722 -0.0646
 1037ANI     HN14517   0.994   0.250   0.121 -2.4471  0.1844 -1.1450
 1037ANI     HN14518   1.004   0.402   0.191 -0.3297 -1.1637  1.1864
 1038ANI     CN14519   3.261   3.328   0.401 -0.3334 -0.1877  0.0970
 1038ANI     CH14520   3.234   3.362   0.533 -0.3627 -0.2647  0.1108
 1038ANI     CH14521   3.142   3.465   0.559  0.0004  0.0585  0.1206
 1038ANI     CH14522   3.077   3.531   0.453 -0.2616 -0.2831  0.0681
 1038ANI     CH14523   3.103   3.494   0.321 -0.0623 -0.1773  0.0778
 1038ANI     CH14524   3.194   3.391   0.295  0.1327  0.0311 -0.0681
 1038ANI     NH14525   3.354   3.236   0.369  0.0756 -0.0763  0.9548
 1038ANI     HC14526   3.296   3.321   0.612 -1.4508  0.5056  1.4028
 1038ANI     HC14527   3.128   3.512   0.655  0.8728  0.9882 -0.1993
 1038ANI     HC14528   3.021   3.621   0.473 -3.7054 -1.9826 -1.3917
 1038ANI     HC14529   3.068   3.556   0.240  0.0531 -1.0544 -0.6455
 1038ANI     HC14530   3.220   3.380   0.191 -0.7744  2.8015 -0.6238
 1038ANI     HN14531   3.319   3.162   0.310  1.7338  1.4624 -2.0758
 1038ANI     HN14532   3.390   3.185   0.448 -0.8338 -2.1188  0.0945
 1039ANI     CN14533   1.888   4.749   2.047 -0.3762 -0.2226 -0.7416
 1039ANI     CH14534   1.807   4.851   2.100  0.3698 -0.1621  0.3061
 1039ANI     CH14535   1.728   4.832   2.214  0.3072 -0.0995  0.2733
 1039ANI     CH14536   1.716   4.706   2.273 -0.4812 -0.1188  0.0779
 1039ANI     CH14537   1.796   4.603   2.223 -0.0174  0.4540 -0.3582
 1039ANI     CH14538   1.876   4.624   2.110 -0.4143 -0.2320 -0.7694
 1039ANI     NH14539   1.971   4.763   1.943  0.2104 -0.5165 -0.3184
 1039ANI     HC14540   1.813   4.948   2.054 -0.7736  0.4462  1.4349
 1039ANI     HC14541   1.677   4.920   2.250 -0.8734 -1.6222  2.4253
 1039ANI     HC14542   1.667   4.693   2.369  1.0220  1.6589  1.1291
 1039ANI     HC14543   1.799   4.507   2.272 -2.3571 -0.3649 -1.7688
 1039ANI     HC14544   1.940   4.543   2.078 -0.1017 -1.1183  2.0041
 1039ANI     HN14545   1.986   4.859   1.916 -0.3395 -0.5700 -0.8412
 1039ANI     HN14546   2.057   4.711   1.945  0.2453 -0.4618 -0.3835
 1040ANI     CN14547   5.665   4.786   4.160  0.1216 -0.5120 -0.1354
 1040ANI     CH14548   5.581   4.700   4.090  0.7382 -1.1961 -0.0395
 1040ANI     CH14549   5.582   4.706   3.950 -0.5136 -0.1013 -0.0127
 1040ANI     CH14550   5.668   4.796   3.887 -0.4144  0.0163  0.2887
 1040ANI     CH14551   5.753   4.883   3.957 -0.3999  0.4781 -0.2979
 1040ANI     CH14552   5.748   4.879   4.096  0.0092 -0.5310 -0.3098
 1040ANI     NH14553   5.667   4.778   4.294 -0.0391 -0.4139 -0.1281
 1040ANI     HC14554   5.509   4.629   4.128 -1.6141  1.0069 -0.2344
 1040ANI     HC14555   5.526   4.638   3.888 -0.1171 -0.1451 -0.3206
 1040ANI     HC14556   5.668   4.798   3.779 -0.4019  2.1367  0.3032
 1040ANI     HC14557   5.819   4.954   3.908  2.8040 -1.0584  1.6595
 1040ANI     HC14558   5.810   4.941   4.161 -0.4434 -0.6371  0.2307
 1040ANI     HN14559   5.655   4.866   4.343  1.8062  0.1141 -0.5624
 1040ANI     HN14560   5.601   4.707   4.323 -1.3654 -0.1474 -2.3574
 1041ANI     CN14561   1.365   3.704   1.374  0.0658 -0.2001  0.1459
 1041ANI     CH14562   1.427   3.603   1.300  0.3790 -0.0003  0.1324
 1041ANI     CH14563   1.538   3.534   1.350  0.1369 -0.4652  0.0282
 1041ANI     CH14564   1.578   3.561   1.482 -0.2359 -0.0206  0.0514
 1041ANI     CH14565   1.508   3.651   1.563 -0.5258 -0.5027  0.3341
 1041ANI     CH14566   1.407   3.729   1.505  0.2207  0.2314  0.0161
 1041ANI     NH14567   1.264   3.778   1.327  0.2142 -0.2089 -0.1885
 1041ANI     HC14568   1.392   3.582   1.200 -1.3494  1.0114  0.5015
 1041ANI     HC14569   1.578   3.462   1.280 -0.5623 -0.8874  0.0489
 1041ANI     HC14570   1.661   3.504   1.521 -0.4225 -0.2068  0.1732
 1041ANI     HC14571   1.557   3.684   1.653 -1.3816  0.3314  0.5003
 1041ANI     HC14572   1.357   3.801   1.567 -1.2864 -0.0707 -0.8375
 1041ANI     HN14573   1.248   3.871   1.364 -1.5454 -0.9911  1.0833
 1041ANI     HN14574   1.246   3.776   1.227  0.1022  0.5385 -0.1883
 1042ANI     CN14575   4.851   4.260   3.134 -0.2490  0.0893  0.2099
 1042ANI     CH14576   4.770   4.371   3.160 -0.3666  0.0425  0.0529
 1042ANI     CH14577   4.829   4.480   3.226  0.3090  0.1101 -0.6608
 1042ANI     CH14578   4.964   4.490   3.259 -0.0321 -0.0720  0.8019
 1042ANI     CH14579   5.042   4.377   3.230 -0.2510 -0.0209  0.0095
 1042ANI     CH14580   4.989   4.270   3.158 -0.2618 -0.3071  0.4420
 1042ANI     NH14581   4.794   4.165   3.059  0.3075 -0.2350  0.1888
 1042ANI     HC14582   4.663   4.370   3.148 -0.3927 -0.6134  0.2929
 1042ANI     HC14583   4.777   4.572   3.246 -1.1814 -0.6577 -0.8559
 1042ANI     HC14584   4.999   4.571   3.321 -2.9455  1.1675  0.8672
 1042ANI     HC14585   5.147   4.376   3.256 -0.6156  0.9360  1.5814
 1042ANI     HC14586   5.056   4.192   3.124 -1.1096 -0.2259 -1.4814
 1042ANI     HN14587   4.713   4.131   3.109 -0.0536 -0.7636 -0.7395
 1042ANI     HN14588   4.839   4.076   3.047  0.1185 -0.1428 -1.3916
 1043ANI     CN14589   0.742   2.162   3.314 -0.0247  0.0909 -0.0056
 1043ANI     CH14590   0.713   2.276   3.238  0.3226 -0.0702 -0.3832
 1043ANI     CH14591   0.792   2.309   3.127  0.1486  0.4128 -0.3651
 1043ANI     CH14592   0.910   2.235   3.114 -0.0660  0.0467 -0.2512
 1043ANI     CH14593   0.945   2.123   3.190  0.3827  0.3029 -0.0753
 1043ANI     CH14594   0.856   2.083   3.290 -0.0322  0.2192 -0.4764
 1043ANI     NH14595   0.652   2.124   3.405  0.0394  0.0992  0.0606
 1043ANI     HC14596   0.616   2.321   3.250  0.0898 -0.5275 -0.5339
 1043ANI     HC14597   0.774   2.399   3.071  0.7623  1.1671  0.6352
 1043ANI     HC14598   0.979   2.263   3.035  2.3564  0.5833  1.9674
 1043ANI     HC14599   1.033   2.065   3.170 -0.9880 -2.3374  1.2950
 1043ANI     HC14600   0.878   2.000   3.355 -1.2575 -1.9042 -2.7256
 1043ANI     HN14601   0.630   2.030   3.434  1.8798  0.3565  2.5047
 1043ANI     HN14602   0.564   2.174   3.395 -0.6640 -0.5944  2.3548
 1044ANI     CN14603   3.727   5.466   4.816 -0.1395  0.0191 -0.3007
 1044ANI     CH14604   3.684   5.577   4.889  0.0947 -0.0354 -0.0806
 1044ANI     CH14605   3.553   5.624   4.874 -0.0506 -0.4135  0.0036
 1044ANI     CH14606   3.474   5.568   4.772 -0.3517 -0.6676  0.3751
 1044ANI     CH14607   3.519   5.460   4.695 -0.1131  0.0033 -0.4431
 1044ANI     CH14608   3.648   5.410   4.715 -0.0145  0.2309 -0.5164
 1044ANI     NH14609   3.859   5.439   4.819 -0.2480 -0.4556  0.3296
 1044ANI     HC14610   3.744   5.617   4.969 -0.8678  2.7771 -0.6990
 1044ANI     HC14611   3.523   5.709   4.933 -0.7576 -0.6342 -0.0278
 1044ANI     HC14612   3.375   5.606   4.753  0.4462  1.8338  1.0328
 1044ANI     HC14613   3.454   5.413   4.623 -1.3762 -0.3661  0.9036
 1044ANI     HC14614   3.681   5.330   4.650  2.8398  0.0408  1.0991
 1044ANI     HN14615   3.902   5.478   4.901  2.1347  0.3873 -1.2748
 1044ANI     HN14616   3.870   5.340   4.831 -1.9682 -0.5478  1.2952
 1045ANI     CN14617   2.030   5.058   0.425  0.1262 -0.1666 -0.6063
 1045ANI     CH14618   2.069   4.933   0.475 -0.5794 -0.1422  0.0073
 1045ANI     CH14619   2.007   4.818   0.424  0.5018 -0.6400 -0.1860
 1045ANI     CH14620   1.919   4.826   0.316  0.5326  0.0030 -0.1615
 1045ANI     CH14621   1.885   4.952   0.264 -0.6563 -0.1448  0.2402
 1045ANI     CH14622   1.937   5.069   0.321 -0.3738 -0.0787 -0.1511
 1045ANI     NH14623   2.088   5.170   0.470 -0.0212 -0.3528  0.0544
 1045ANI     HC14624   2.140   4.916   0.554 -1.1357 -0.9435  0.3463
 1045ANI     HC14625   2.031   4.729   0.481  0.0241 -0.1449  0.8047
 1045ANI     HC14626   1.876   4.738   0.272  1.6111  0.7977 -2.8848
 1045ANI     HC14627   1.808   4.964   0.189  0.9453 -1.6884 -1.7134
 1045ANI     HC14628   1.912   5.163   0.275  0.9613 -0.6263 -2.0730
 1045ANI     HN14629   2.006   5.217   0.505  0.5946  1.6023 -1.0480
 1045ANI     HN14630   2.124   5.132   0.556 -0.1943  1.1148  0.7869
 1046ANI     CN14631   3.787   4.592   1.475  1.0611 -0.3152 -0.0855
 1046ANI     CH14632   3.834   4.681   1.573  0.4275  0.3104 -0.3467
 1046ANI     CH14633   3.884   4.806   1.536  0.6122  0.1775 -0.5471
 1046ANI     CH14634   3.888   4.845   1.401  0.1586  0.0109 -0.6108
 1046ANI     CH14635   3.849   4.749   1.308 -0.4255 -0.1935 -0.1554
 1046ANI     CH14636   3.798   4.622   1.339 -0.4927 -0.1755 -0.1896
 1046ANI     NH14637   3.742   4.469   1.503  0.5625 -0.0548  0.2743
 1046ANI     HC14638   3.827   4.647   1.675  2.7567 -1.2236 -0.6658
 1046ANI     HC14639   3.919   4.873   1.612 -2.1258  0.3312  0.6467
 1046ANI     HC14640   3.920   4.946   1.379  0.7433 -0.3439 -1.3747
 1046ANI     HC14641   3.859   4.777   1.204 -0.3231  2.2064  0.4804
 1046ANI     HC14642   3.779   4.549   1.262  2.5946 -1.0510 -0.1734
 1046ANI     HN14643   3.795   4.426   1.578  0.5409 -1.0344 -0.2598
 1046ANI     HN14644   3.752   4.398   1.432 -1.6316  1.1095 -1.2747
 1047ANI     CN14645   3.623   4.816   1.014  0.4392  0.0919 -0.4764
 1047ANI     CH14646   3.612   4.953   0.989  0.0247  0.1931  0.2511
 1047ANI     CH14647   3.705   5.028   0.916  0.4186  0.0865  0.6395
 1047ANI     CH14648   3.797   4.953   0.840  0.5958  0.1072  0.8350
 1047ANI     CH14649   3.799   4.814   0.851  0.0030  0.0313  0.0237
 1047ANI     CH14650   3.718   4.744   0.942  0.0588 -0.5302 -0.3591
 1047ANI     NH14651   3.530   4.759   1.092 -0.1527  1.3050 -0.2815
 1047ANI     HC14652   3.526   5.010   1.022  0.4995  0.6631  0.6945
 1047ANI     HC14653   3.708   5.136   0.918 -1.2052  0.1680  5.8432
 1047ANI     HC14654   3.863   5.007   0.774 -0.5606  1.7650  0.9716
 1047ANI     HC14655   3.861   4.755   0.785  0.5967 -1.1254  1.5950
 1047ANI     HC14656   3.729   4.636   0.945 -0.5665 -0.6052 -0.6804
 1047ANI     HN14657   3.572   4.686   1.147 -1.1367  1.5742  0.8396
 1047ANI     HN14658   3.478   4.820   1.153  0.7018  0.0559  1.7267
 1048ANI     CN14659   5.724   2.951   1.409  0.1945  0.3732  0.2374
 1048ANI     CH14660   5.830   3.021   1.351  0.3180 -0.0711 -0.0800
 1048ANI     CH14661   5.841   3.024   1.212  0.1238  0.7265 -0.0813
 1048ANI     CH14662   5.745   2.953   1.138  0.0480 -0.0253  0.7311
 1048ANI     CH14663   5.640   2.879   1.192 -0.1376 -0.0050  0.4006
 1048ANI     CH14664   5.630   2.881   1.332  0.1183  0.2807  0.4136
 1048ANI     NH14665   5.708   2.950   1.542  0.3123 -0.4689  0.2448
 1048ANI     HC14666   5.902   3.074   1.412 -2.1619  1.9199  1.2077
 1048ANI     HC14667   5.910   3.092   1.165  0.6144  0.6864  0.5773
 1048ANI     HC14668   5.748   2.955   1.030  1.5373  2.8073  0.7668
 1048ANI     HC14669   5.576   2.819   1.129  0.1528  1.6196 -1.4782
 1048ANI     HC14670   5.552   2.824   1.380  0.5010 -0.8477 -0.2746
 1048ANI     HN14671   5.757   3.021   1.594 -0.3462 -0.0542  0.3128
 1048ANI     HN14672   5.619   2.916   1.576  0.8450 -1.3318  0.8125
 1049ANI     CN14673   5.855   2.565   4.729  0.1536  0.3579  0.1638
 1049ANI     CH14674   5.965   2.538   4.646  0.0707  0.2252  0.0947
 1049ANI     CH14675   5.972   2.605   4.523  0.2647 -0.1122 -0.0767
 1049ANI     CH14676   5.869   2.689   4.480  0.2079 -0.1202  0.0417
 1049ANI     CH14677   5.758   2.710   4.562  0.3733  0.1297  0.2011
 1049ANI     CH14678   5.747   2.642   4.684  0.0328  0.2239  0.2241
 1049ANI     NH14679   5.848   2.508   4.850  0.4814  0.3307  0.1712
 1049ANI     HC14680   6.043   2.466   4.666 -0.0516  0.2736  0.7820
 1049ANI     HC14681   6.054   2.584   4.456 -1.4780 -0.0394 -2.2514
 1049ANI     HC14682   5.867   2.726   4.379 -2.2494 -0.3949 -0.0395
 1049ANI     HC14683   5.681   2.769   4.514 -1.4245 -2.0746  0.2678
 1049ANI     HC14684   5.660   2.649   4.748  0.8516 -0.1027  1.3742
 1049ANI     HN14685   5.757   2.497   4.893  0.5929  0.3646  0.4097
 1049ANI     HN14686   5.897   2.420   4.860 -1.4249 -0.7204  0.5764
 1050ANI     CN14687   3.325   2.478   2.757  0.0833 -0.0464  0.1720
 1050ANI     CH14688   3.327   2.390   2.866  0.1819  0.5368  0.6502
 1050ANI     CH14689   3.296   2.436   2.994 -0.1429 -0.1526  0.8243
 1050ANI     CH14690   3.283   2.573   3.020 -0.5140  0.0831 -0.5395
 1050ANI     CH14691   3.307   2.662   2.915  0.0145  0.4226 -0.1374
 1050ANI     CH14692   3.320   2.616   2.783 -0.4360 -0.0278 -0.0244
 1050ANI     NH14693   3.344   2.433   2.632 -0.2334 -0.0097  0.1114
 1050ANI     HC14694   3.340   2.285   2.842 -0.6600  0.6284 -0.2935
 1050ANI     HC14695   3.295   2.365   3.075  0.2030 -0.4950  0.5311
 1050ANI     HC14696   3.253   2.594   3.122  0.3790 -0.4375 -0.1639
 1050ANI     HC14697   3.315   2.769   2.928 -2.2687  1.3026 -4.7956
 1050ANI     HC14698   3.320   2.694   2.709 -4.6491  0.7540  0.6529
 1050ANI     HN14699   3.332   2.334   2.617  1.0821  0.1216 -1.9076
 1050ANI     HN14700   3.425   2.464   2.582 -0.2360  1.7050  1.1190
 1051ANI     CN14701   3.321   2.018   5.339 -0.3322  0.3429 -0.2865
 1051ANI     CH14702   3.396   1.928   5.416 -0.5559 -0.1178 -0.5973
 1051ANI     CH14703   3.335   1.836   5.503 -0.3599  0.4949  0.1967
 1051ANI     CH14704   3.196   1.841   5.519 -0.3875 -0.3933  0.2367
 1051ANI     CH14705   3.120   1.931   5.444  0.0998  0.1961  0.4451
 1051ANI     CH14706   3.182   2.019   5.355 -0.2723  0.2801  0.2687
 1051ANI     NH14707   3.369   2.113   5.257 -0.1303  0.8358  0.4008
 1051ANI     HC14708   3.504   1.926   5.407 -0.3621 -2.1779  1.5605
 1051ANI     HC14709   3.389   1.767   5.566 -0.1525 -0.9642 -1.5384
 1051ANI     HC14710   3.154   1.781   5.598 -2.1407 -2.1315 -1.9366
 1051ANI     HC14711   3.013   1.940   5.459  0.1782 -2.1566  2.8641
 1051ANI     HC14712   3.127   2.087   5.291 -0.4515  0.1150  0.2454
 1051ANI     HN14713   3.313   2.196   5.271 -1.5269  0.2921 -1.6807
 1051ANI     HN14714   3.469   2.120   5.270 -0.3663  3.7577  0.8880
 1052ANI     CN14715   1.019   1.687   2.992 -0.1612  0.2549 -0.1220
 1052ANI     CH14716   0.967   1.556   2.993 -0.2463  0.2850 -0.3661
 1052ANI     CH14717   0.903   1.509   2.878 -0.5930 -0.6130  0.1954
 1052ANI     CH14718   0.884   1.588   2.764 -0.3222  0.0627  0.6171
 1052ANI     CH14719   0.935   1.719   2.761 -0.3043  0.0381 -0.2240
 1052ANI     CH14720   1.005   1.762   2.874 -0.1909  0.0030 -0.2810
 1052ANI     NH14721   1.075   1.734   3.104 -0.0824 -0.1254 -0.0001
 1052ANI     HC14722   0.974   1.481   3.070  0.3708 -0.1358 -0.8180
 1052ANI     HC14723   0.863   1.409   2.891  1.5651 -1.2036  2.5882
 1052ANI     HC14724   0.847   1.562   2.667  0.6441 -0.2481  0.3245
 1052ANI     HC14725   0.924   1.774   2.669 -1.0790 -0.6123 -0.5301
 1052ANI     HC14726   1.042   1.864   2.880  1.3182 -0.5036 -0.6642
 1052ANI     HN14727   1.105   1.829   3.117 -0.2330 -0.2188  1.0527
 1052ANI     HN14728   1.135   1.667   3.149  0.0985  0.3164  0.4150
 1053ANI     CN14729   0.504   0.235   3.663 -0.1271 -0.1192  0.0809
 1053ANI     CH14730   0.605   0.218   3.568 -0.4230  0.2869 -0.3059
 1053ANI     CH14731   0.710   0.130   3.597 -0.7596 -0.0686 -0.1641
 1053ANI     CH14732   0.710   0.058   3.717  0.2553  0.2573  0.0319
 1053ANI     CH14733   0.608   0.079   3.810  0.6281  0.1052  0.4788
 1053ANI     CH14734   0.499   0.163   3.783  0.6951  0.1210  0.2584
 1053ANI     NH14735   0.401   0.318   3.641 -0.1419  0.0053  0.6125
 1053ANI     HC14736   0.609   0.277   3.477 -1.3395  1.5898  0.4826
 1053ANI     HC14737   0.801   0.114   3.542 -1.9930 -0.0645 -2.2526
 1053ANI     HC14738   0.784  -0.019   3.732  0.7632  0.2978 -2.1275
 1053ANI     HC14739   0.615   0.026   3.904  0.5245 -1.4370 -0.3668
 1053ANI     HC14740   0.416   0.174   3.850  0.7926  1.4428  0.1715
 1053ANI     HN14741   0.412   0.349   3.546 -0.4007 -0.0823  0.5528
 1053ANI     HN14742   0.307   0.286   3.659  0.3048  0.4823  4.2779
 1054ANI     CN14743   3.688   0.557   0.683  0.0446  0.1031 -0.1107
 1054ANI     CH14744   3.627   0.667   0.622 -0.1687  0.2198  0.3121
 1054ANI     CH14745   3.606   0.780   0.701 -0.5818  0.3227  0.0542
 1054ANI     CH14746   3.646   0.786   0.835 -0.4777 -0.0421  0.0374
 1054ANI     CH14747   3.716   0.679   0.892  0.4493  0.2867 -0.4717
 1054ANI     CH14748   3.730   0.562   0.817  0.0584  0.0076 -0.1112
 1054ANI     NH14749   3.703   0.443   0.613 -0.5011 -0.0331 -0.0105
 1054ANI     HC14750   3.584   0.665   0.523 -1.9064  1.6580  1.0145
 1054ANI     HC14751   3.551   0.866   0.664  3.0400  2.7876  0.1688
 1054ANI     HC14752   3.639   0.877   0.892  1.4169  0.4720 -0.4965
 1054ANI     HC14753   3.766   0.676   0.989  3.2529 -1.7408 -1.8946
 1054ANI     HC14754   3.776   0.478   0.867 -0.0226  0.9516  1.5725
 1054ANI     HN14755   3.629   0.419   0.550 -0.6310 -2.6276  1.0846
 1054ANI     HN14756   3.734   0.362   0.664 -0.2795  0.7267  1.0836
 1055ANI     CN14757   3.031   0.678   2.408 -0.3042 -0.0444 -0.3537
 1055ANI     CH14758   3.024   0.776   2.508  1.0061 -0.4180  0.1135
 1055ANI     CH14759   2.915   0.783   2.596  0.8272  0.0493 -0.1463
 1055ANI     CH14760   2.815   0.686   2.588  0.5921  0.3071 -0.3354
 1055ANI     CH14761   2.818   0.588   2.487  0.2852  0.0031 -0.0501
 1055ANI     CH14762   2.927   0.585   2.399 -0.0459 -0.3230 -0.4469
 1055ANI     NH14763   3.141   0.659   2.335 -0.3424 -0.1814 -0.3761
 1055ANI     HC14764   3.104   0.847   2.518  1.3657 -0.6400 -1.1283
 1055ANI     HC14765   2.899   0.859   2.672  2.1984 -0.3360  0.5519
 1055ANI     HC14766   2.724   0.683   2.646 -1.2064 -1.7921 -3.0882
 1055ANI     HC14767   2.749   0.505   2.487  0.0215  0.2197  0.8259
 1055ANI     HC14768   2.921   0.500   2.332  0.1755 -0.3787 -0.3957
 1055ANI     HN14769   3.213   0.729   2.350 -0.0364 -0.2150 -1.6408
 1055ANI     HN14770   3.157   0.609   2.249 -0.3012  1.6201 -1.4383
 1056ANI     CN14771   3.078   4.353   5.809  0.5419  0.4737 -0.2744
 1056ANI     CH14772   3.001   4.254   5.747 -0.1158  0.6816  0.2064
 1056ANI     CH14773   2.884   4.293   5.682 -0.0910 -0.5288 -0.5935
 1056ANI     CH14774   2.836   4.425   5.686  0.2757 -0.3979 -0.4553
 1056ANI     CH14775   2.917   4.519   5.750 -0.4719 -0.3318  0.3977
 1056ANI     CH14776   3.033   4.485   5.819 -0.1849  0.1934  0.1764
 1056ANI     NH14777   3.195   4.314   5.863  0.2863 -0.2857 -0.2627
 1056ANI     HC14778   3.027   4.149   5.739 -0.1889  0.6764  0.0471
 1056ANI     HC14779   2.822   4.213   5.644  0.1007 -0.9911  0.0688
 1056ANI     HC14780   2.742   4.441   5.635  0.2663 -2.0231 -0.9786
 1056ANI     HC14781   2.880   4.621   5.758 -0.2269 -0.3285  1.5967
 1056ANI     HC14782   3.097   4.558   5.868  0.9281  0.5579 -1.7575
 1056ANI     HN14783   3.263   4.384   5.887 -0.0943  0.3659 -1.0455
 1056ANI     HN14784   3.239   4.244   5.805  1.6083  1.0209 -0.8839
 1057ANI     CN14785   4.059   4.667   0.092  0.1765  0.2462  0.6219
 1057ANI     CH14786   3.922   4.661   0.063  0.2222 -0.4350  0.5254
 1057ANI     CH14787   3.833   4.594   0.149 -0.5385 -0.3789 -0.2117
 1057ANI     CH14788   3.885   4.534   0.264 -0.5893  0.4953  0.2684
 1057ANI     CH14789   4.021   4.541   0.297 -0.5071  0.3069 -0.0314
 1057ANI     CH14790   4.108   4.595   0.202  0.2035 -0.2106  0.3158
 1057ANI     NH14791   4.143   4.744   0.022  0.3117 -0.5292 -0.0708
 1057ANI     HC14792   3.882   4.704  -0.027 -1.4215 -2.3480  0.3129
 1057ANI     HC14793   3.728   4.593   0.123 -0.6024 -1.7481  0.0581
 1057ANI     HC14794   3.818   4.478   0.328 -3.2750  2.5853 -0.6450
 1057ANI     HC14795   4.061   4.501   0.389 -3.6245  0.0799  1.2773
 1057ANI     HC14796   4.213   4.592   0.227  0.9309  0.5155 -2.4560
 1057ANI     HN14797   4.109   4.766  -0.071 -2.9669 -0.6237  1.0344
 1057ANI     HN14798   4.228   4.690   0.012 -0.9477 -3.1182  2.4103
 1058ANI     CN14799   3.122   1.423   3.942 -0.0888 -0.3920 -0.3733
 1058ANI     CH14800   3.105   1.485   3.817  0.2275 -0.1335 -0.2886
 1058ANI     CH14801   3.179   1.599   3.787 -0.0824 -0.0040 -0.5676
 1058ANI     CH14802   3.281   1.645   3.872 -0.6101  0.1741 -0.0235
 1058ANI     CH14803   3.309   1.574   3.990 -0.0606  0.3523 -0.0453
 1058ANI     CH14804   3.216   1.478   4.030 -0.4003  0.4624 -0.5685
 1058ANI     NH14805   3.034   1.333   3.988 -0.6757  0.2205 -0.2869
 1058ANI     HC14806   3.022   1.450   3.757 -0.7141 -0.4462  1.1760
 1058ANI     HC14807   3.165   1.653   3.695  3.2763 -0.6122 -1.5162
 1058ANI     HC14808   3.349   1.724   3.844  0.4694 -0.4310  0.8012
 1058ANI     HC14809   3.389   1.608   4.054  1.0232 -0.9918 -0.6776
 1058ANI     HC14810   3.229   1.424   4.122 -0.1585  2.4516  0.5946
 1058ANI     HN14811   3.094   1.271   4.040 -1.1791  0.5343  0.6765
 1058ANI     HN14812   2.984   1.275   3.922 -1.1927  1.1085 -0.6822
 1059ANI     CN14813   4.459   2.820   4.320  0.0076 -0.0158 -0.0814
 1059ANI     CH14814   4.398   2.806   4.195  0.0393 -0.0823 -0.0886
 1059ANI     CH14815   4.386   2.916   4.108 -0.0553 -0.1081 -0.1093
 1059ANI     CH14816   4.446   3.039   4.137 -0.2318 -0.0389 -0.0431
 1059ANI     CH14817   4.511   3.056   4.260 -0.2581  0.3932 -0.0895
 1059ANI     CH14818   4.520   2.944   4.343 -0.2396  0.1661 -0.3975
 1059ANI     NH14819   4.464   2.720   4.409 -0.3276 -0.0701 -0.1206
 1059ANI     HC14820   4.368   2.710   4.155  0.7846 -0.2311 -0.2948
 1059ANI     HC14821   4.348   2.906   4.008  0.5201  0.6500 -0.4001
 1059ANI     HC14822   4.446   3.115   4.061  1.6389  1.5179  1.4632
 1059ANI     HC14823   4.568   3.141   4.297 -0.7331 -0.3638  2.4676
 1059ANI     HC14824   4.570   2.957   4.438 -2.6754  0.5165  0.8603
 1059ANI     HN14825   4.464   2.624   4.380  1.0868 -0.5152  1.2546
 1059ANI     HN14826   4.539   2.736   4.475  1.1393 -0.1837 -1.7302
 1060ANI     CN14827   0.953   1.197   1.959  0.3302 -0.3118  0.1158
 1060ANI     CH14828   0.979   1.220   1.823  0.4559 -0.0167  0.1904
 1060ANI     CH14829   0.945   1.346   1.773  0.3670  0.0749  0.4777
 1060ANI     CH14830   0.879   1.442   1.851  0.4942  0.2291  0.3953
 1060ANI     CH14831   0.845   1.412   1.983 -0.2695  0.2445  0.2020
 1060ANI     CH14832   0.888   1.291   2.039  0.7415  0.3547 -0.3284
 1060ANI     NH14833   0.991   1.076   2.003  0.0237 -0.5047 -0.1473
 1060ANI     HC14834   1.023   1.153   1.751  1.0470 -0.1856  0.6989
 1060ANI     HC14835   0.962   1.376   1.670 -0.9054 -0.1742  0.1811
 1060ANI     HC14836   0.848   1.533   1.802  0.9927  1.1261  1.7131
 1060ANI     HC14837   0.789   1.486   2.039  1.3143  0.1748  1.9184
 1060ANI     HC14838   0.868   1.261   2.141  2.0574 -0.6881 -0.3778
 1060ANI     HN14839   1.077   1.038   1.966 -0.6653 -0.5417 -1.7569
 1060ANI     HN14840   0.978   1.072   2.103 -0.1972 -2.2995 -0.2425
 1061ANI     CN14841   1.882   5.829   3.206 -0.1395  0.2572 -0.4098
 1061ANI     CH14842   1.834   5.739   3.109  0.3440 -0.1462 -0.2822
 1061ANI     CH14843   1.731   5.785   3.026 -0.0034 -0.0765  0.1780
 1061ANI     CH14844   1.690   5.919   3.028  0.4919  0.0816 -0.0560
 1061ANI     CH14845   1.729   6.001   3.135 -0.1232 -0.0916  0.3026
 1061ANI     CH14846   1.833   5.959   3.219 -0.1014  0.1899  0.4156
 1061ANI     NH14847   1.985   5.789   3.282  0.1538  0.7086 -0.5632
 1061ANI     HC14848   1.854   5.634   3.104 -0.8974 -0.4245  0.2887
 1061ANI     HC14849   1.677   5.717   2.962 -0.7271  1.5402 -0.9885
 1061ANI     HC14850   1.615   5.956   2.960 -2.0310 -2.8643  0.9974
 1061ANI     HC14851   1.710   6.107   3.131  1.9697  0.2913 -0.5466
 1061ANI     HC14852   1.873   6.029   3.291 -0.7393  0.6866  0.2909
 1061ANI     HN14853   2.026   5.703   3.249  0.8571 -0.0778  2.2713
 1061ANI     HN14854   2.053   5.863   3.287  1.0995 -0.0952 -1.1451
 1062ANI     CN14855   5.601   3.793   4.157 -0.2121  0.3791  0.1378
 1062ANI     CH14856   5.627   3.741   4.285  0.0536  0.1786  0.0043
 1062ANI     CH14857   5.721   3.803   4.368  0.2019 -0.0640  0.0155
 1062ANI     CH14858   5.793   3.912   4.318  0.0412  0.0323 -0.0058
 1062ANI     CH14859   5.763   3.969   4.193  0.1791  0.2105  0.0435
 1062ANI     CH14860   5.675   3.901   4.108  0.3253 -0.0184  0.0768
 1062ANI     NH14861   5.517   3.729   4.074  0.4582 -0.1545 -0.1340
 1062ANI     HC14862   5.570   3.656   4.320 -0.7893  0.2177 -1.2301
 1062ANI     HC14863   5.736   3.759   4.466  3.1872 -2.4700 -1.4314
 1062ANI     HC14864   5.857   3.967   4.384  0.5011 -0.2292 -0.2288
 1062ANI     HC14865   5.811   4.061   4.163 -1.3622 -0.0467 -3.3713
 1062ANI     HC14866   5.664   3.922   4.003 -0.4331  1.1210  0.3797
 1062ANI     HN14867   5.559   3.717   3.983 -0.1832 -2.9921 -0.0993
 1062ANI     HN14868   5.496   3.636   4.106  4.6085 -1.8526 -1.9274
 1063ANI     CN14869   0.649   3.249   1.580 -0.1554  0.3175 -0.3247
 1063ANI     CH14870   0.733   3.354   1.542 -0.1520  0.2729 -0.4419
 1063ANI     CH14871   0.729   3.483   1.596  0.2291  0.1665 -0.1586
 1063ANI     CH14872   0.631   3.505   1.693  0.2427  0.0321 -0.1150
 1063ANI     CH14873   0.538   3.405   1.726 -0.2385  0.3099 -0.6239
 1063ANI     CH14874   0.552   3.275   1.677  0.3368  0.0389  0.2478
 1063ANI     NH14875   0.666   3.130   1.519  0.2720  0.0062  0.3953
 1063ANI     HC14876   0.819   3.346   1.477  1.5746  0.2744  1.7832
 1063ANI     HC14877   0.800   3.559   1.566  0.3057  0.6305  1.1502
 1063ANI     HC14878   0.618   3.602   1.739  2.2997 -0.3674  1.3428
 1063ANI     HC14879   0.447   3.437   1.775 -2.1730 -1.4870 -2.8989
 1063ANI     HC14880   0.478   3.204   1.711  1.1594 -1.7481 -1.6083
 1063ANI     HN14881   0.693   3.138   1.422  2.6021  0.9699  1.0763
 1063ANI     HN14882   0.571   3.095   1.513  0.2192  0.3458 -0.7466
 1064ANI     CN14883   5.612   1.636   1.052 -0.0076 -0.2932 -0.3132
 1064ANI     CH14884   5.742   1.591   1.078 -0.2253 -0.7226  0.0382
 1064ANI     CH14885   5.814   1.520   0.981 -0.1409 -0.2303 -0.2574
 1064ANI     CH14886   5.751   1.480   0.862 -1.1523 -0.0573  0.2093
 1064ANI     CH14887   5.623   1.528   0.834 -0.7572  0.3840 -0.8654
 1064ANI     CH14888   5.555   1.606   0.928 -0.5529 -0.4556 -0.0216
 1064ANI     NH14889   5.538   1.710   1.136 -0.0291 -0.1773 -0.4344
 1064ANI     HC14890   5.793   1.609   1.172 -1.3011  1.8265  0.1743
 1064ANI     HC14891   5.914   1.487   1.004 -1.3409 -1.8086  3.0579
 1064ANI     HC14892   5.797   1.416   0.789 -0.6965 -0.2462  0.6570
 1064ANI     HC14893   5.585   1.487   0.742 -0.8552 -1.1777 -0.1412
 1064ANI     HC14894   5.455   1.639   0.902  0.8405  3.1357 -1.0975
 1064ANI     HN14895   5.596   1.774   1.187 -0.5767  0.4824 -0.6387
 1064ANI     HN14896   5.462   1.765   1.099  0.4691  1.4839  0.9501
 1065ANI     CN14897   3.833   2.625   1.819  0.0089  0.7733  0.0447
 1065ANI     CH14898   3.865   2.738   1.741  0.5464  0.2455 -0.5037
 1065ANI     CH14899   3.777   2.846   1.728 -0.0541 -0.2191 -0.3270
 1065ANI     CH14900   3.653   2.838   1.791  0.1303 -0.1372  0.0497
 1065ANI     CH14901   3.615   2.724   1.863 -0.0677 -0.2592 -0.2487
 1065ANI     CH14902   3.708   2.621   1.882 -0.0360 -0.2039 -0.1061
 1065ANI     NH14903   3.927   2.529   1.821 -0.3813  0.3831 -0.3347
 1065ANI     HC14904   3.960   2.739   1.689  0.3842  1.8000 -0.7965
 1065ANI     HC14905   3.808   2.939   1.682  1.7397 -0.5635  0.1312
 1065ANI     HC14906   3.582   2.919   1.775  0.8368  0.1395 -1.7832
 1065ANI     HC14907   3.519   2.721   1.910 -0.5179 -1.3189 -1.2045
 1065ANI     HC14908   3.683   2.542   1.951  1.6064 -1.0606 -0.4524
 1065ANI     HN14909   3.894   2.435   1.838 -1.6603  1.0254  0.8495
 1065ANI     HN14910   4.005   2.526   1.757 -1.7146 -0.1681 -2.0019
 1066ANI     CN14911   3.397   0.905   2.961  0.0897 -0.1049  0.1359
 1066ANI     CH14912   3.355   0.785   2.904  1.0156 -0.2586 -0.2299
 1066ANI     CH14913   3.448   0.680   2.897  0.7073 -0.5251 -0.3887
 1066ANI     CH14914   3.572   0.688   2.963  0.4734  0.2354 -0.0291
 1066ANI     CH14915   3.613   0.809   3.020  0.0889  0.3476  0.0119
 1066ANI     CH14916   3.530   0.920   3.004  0.0588  0.3352  0.0808
 1066ANI     NH14917   3.324   1.017   2.956  0.3203  0.0425  0.0496
 1066ANI     HC14918   3.265   0.754   2.853 -1.2388  1.4536  2.5826
 1066ANI     HC14919   3.410   0.585   2.864  0.4809 -1.0556  1.3392
 1066ANI     HC14920   3.642   0.606   2.963 -1.1952 -1.2493  0.4175
 1066ANI     HC14921   3.713   0.810   3.061  0.3562  2.0632 -0.6631
 1066ANI     HC14922   3.562   1.016   3.044 -0.9414  1.2741 -1.3154
 1066ANI     HN14923   3.379   1.102   2.962  0.3647  0.0425 -0.3097
 1066ANI     HN14924   3.264   1.033   2.876 -0.2587 -1.6572  0.1355
 1067ANI     CN14925   4.427   5.068   0.081  0.1802  0.3828  0.5672
 1067ANI     CH14926   4.555   5.023   0.048 -0.2299 -0.3665 -0.0286
 1067ANI     CH14927   4.645   5.115  -0.008  0.0349 -0.0392  0.9207
 1067ANI     CH14928   4.602   5.246  -0.035  0.2036 -0.0791  0.4435
 1067ANI     CH14929   4.475   5.293   0.002  0.1160  0.2933 -0.3301
 1067ANI     CH14930   4.387   5.201   0.061  0.3715  0.3863  0.1960
 1067ANI     NH14931   4.344   4.972   0.124  0.5792  0.0292  0.5492
 1067ANI     HC14932   4.577   4.918   0.047 -0.0466 -0.3323 -1.4375
 1067ANI     HC14933   4.742   5.082  -0.040 -0.4160  1.0282 -1.7431
 1067ANI     HC14934   4.666   5.316  -0.086  0.6530  0.4563  1.7028
 1067ANI     HC14935   4.449   5.397  -0.011 -1.5936 -0.1032 -0.1984
 1067ANI     HC14936   4.285   5.228   0.086 -0.1637 -0.8924 -0.5435
 1067ANI     HN14937   4.292   4.942   0.043  1.8644 -1.6275  0.3171
 1067ANI     HN14938   4.264   4.999   0.179 -0.2288  0.1723 -0.6785
 1068ANI     CN14939   0.317   5.803   1.201  0.3762 -0.0895 -0.2808
 1068ANI     CH14940   0.186   5.759   1.180  0.2799  0.2257 -0.3441
 1068ANI     CH14941   0.101   5.737   1.288  0.3149  0.8387 -0.1903
 1068ANI     CH14942   0.149   5.745   1.419  0.0479  0.5637 -0.0723
 1068ANI     CH14943   0.284   5.777   1.441  0.0026  0.7119 -0.0086
 1068ANI     CH14944   0.365   5.813   1.332  0.0408  0.1267 -0.1743
 1068ANI     NH14945   0.391   5.849   1.099 -0.1632  1.0015 -0.1931
 1068ANI     HC14946   0.147   5.745   1.080  0.9579  0.2644 -0.6185
 1068ANI     HC14947  -0.006   5.724   1.279  0.2296  1.6825 -0.4208
 1068ANI     HC14948   0.089   5.721   1.506 -1.5351 -1.5815 -1.7139
 1068ANI     HC14949   0.329   5.771   1.539  1.2267 -3.0173 -0.7210
 1068ANI     HC14950   0.466   5.843   1.355  0.8414 -3.3032  1.1631
 1068ANI     HN14951   0.490   5.841   1.118  0.0496  1.4365 -1.0878
 1068ANI     HN14952   0.373   5.804   1.010 -1.0564  2.0678 -0.5635
 1069ANI     CN14953   3.139   4.963   5.938 -0.0197  0.2636  0.2190
 1069ANI     CH14954   3.045   5.066   5.947 -0.3894 -0.0945  0.4753
 1069ANI     CH14955   3.091   5.192   5.987 -0.1747 -0.1211  0.3102
 1069ANI     CH14956   3.224   5.208   6.027  0.1507 -0.1021 -0.7555
 1069ANI     CH14957   3.316   5.103   6.027 -0.0426 -0.2782  0.0258
 1069ANI     CH14958   3.270   4.977   5.986 -0.0527 -0.4353  0.5195
 1069ANI     NH14959   3.102   4.842   5.894  0.0455  0.3007  0.0617
 1069ANI     HC14960   2.938   5.066   5.927  0.0630 -1.9620 -2.2086
 1069ANI     HC14961   3.024   5.275   6.002 -1.2882 -0.9528  0.0072
 1069ANI     HC14962   3.263   5.299   6.070  1.4812 -1.9481  2.0731
 1069ANI     HC14963   3.414   5.121   6.068  0.1497  0.1576 -0.6211
 1069ANI     HC14964   3.332   4.889   5.993  1.2992  0.6036  1.8397
 1069ANI     HN14965   3.154   4.773   5.948  0.6053 -0.7542 -1.7780
 1069ANI     HN14966   3.004   4.833   5.914 -0.1044 -0.6707 -1.0623
 1070ANI     CN14967   4.573   5.874   6.143 -0.2848 -0.2804  0.1136
 1070ANI     CH14968   4.439   5.880   6.105 -0.3387 -0.1119  0.3294
 1070ANI     CH14969   4.368   5.764   6.072 -0.1823 -0.2142  0.3604
 1070ANI     CH14970   4.430   5.639   6.082  0.0265 -0.0777  0.7956
 1070ANI     CH14971   4.562   5.628   6.127  0.2810  0.1717  0.1161
 1070ANI     CH14972   4.630   5.747   6.158  0.0381  0.0021  1.3359
 1070ANI     NH14973   4.643   5.985   6.168 -0.4061 -0.1362 -0.1860
 1070ANI     HC14974   4.394   5.978   6.090  0.7443  0.3654  0.1939
 1070ANI     HC14975   4.271   5.769   6.025 -0.5228 -3.7560  0.5540
 1070ANI     HC14976   4.381   5.551   6.042 -1.1491 -0.0429  2.0929
 1070ANI     HC14977   4.613   5.533   6.133 -0.2950 -0.2865 -2.0130
 1070ANI     HC14978   4.732   5.739   6.191  1.1172 -2.0347 -2.2729
 1070ANI     HN14979   4.576   6.060   6.178  0.9167  1.0181  0.1857
 1070ANI     HN14980   4.680   5.984   6.262 -2.3272 -0.6585  0.5776
 1071ANI     CN14981   0.800   5.457   1.828  0.3287  0.0223  1.0979
 1071ANI     CH14982   0.829   5.592   1.854  0.1784  0.2680  0.0061
 1071ANI     CH14983   0.728   5.677   1.902  0.1802  0.1279  0.2599
 1071ANI     CH14984   0.603   5.628   1.940  0.2119 -0.0643  0.1176
 1071ANI     CH14985   0.573   5.495   1.908 -0.1895  0.1166 -0.2536
 1071ANI     CH14986   0.675   5.408   1.867 -0.2061  0.1661 -0.4044
 1071ANI     NH14987   0.899   5.370   1.804 -0.0457 -0.0358 -0.2185
 1071ANI     HC14988   0.928   5.628   1.834  0.5610 -0.1587  1.0635
 1071ANI     HC14989   0.740   5.780   1.930 -0.2700 -0.1923  1.6765
 1071ANI     HC14990   0.524   5.692   1.976 -0.3998 -0.9249  0.3216
 1071ANI     HC14991   0.473   5.459   1.926 -1.0789  1.8807 -1.4425
 1071ANI     HC14992   0.663   5.301   1.863 -2.5276  0.3865  0.0436
 1071ANI     HN14993   0.882   5.284   1.854  0.3778  0.2855  0.4751
 1071ANI     HN14994   0.990   5.405   1.827  0.3426 -0.8060 -0.5756
 1072ANI     CN14995   2.231   4.168   0.500 -0.4504  0.9324  0.1738
 1072ANI     CH14996   2.295   4.242   0.400 -0.1890  0.2879 -0.1378
 1072ANI     CH14997   2.256   4.226   0.267  0.0708  0.2408 -0.2097
 1072ANI     CH14998   2.140   4.150   0.244 -0.0902  0.2565  0.5338
 1072ANI     CH14999   2.071   4.078   0.342 -0.0712 -0.3217  0.1244
 1072ANI     CH15000   2.115   4.094   0.473  0.3343 -0.2429 -0.0216
 1072ANI     NH15001   2.274   4.182   0.627  0.2839 -0.2031  0.0625
 1072ANI     HC15002   2.383   4.302   0.417  0.3390 -0.9302  1.6216
 1072ANI     HC15003   2.301   4.267   0.178  0.3071 -1.3903 -0.8626
 1072ANI     HC15004   2.104   4.128   0.145  0.2862 -1.7176  0.8251
 1072ANI     HC15005   1.978   4.029   0.318 -0.6330 -0.0411  1.6878
 1072ANI     HC15006   2.065   4.043   0.554  1.6134 -0.4229  0.6798
 1072ANI     HN15007   2.202   4.182   0.698  0.9422 -0.7582  0.7274
 1072ANI     HN15008   2.341   4.258   0.631  0.2304 -0.0157 -1.9717
 1073ANI     CN15009   3.056   3.455   2.423 -0.1862  0.2306  0.1730
 1073ANI     CH15010   3.195   3.453   2.408 -0.2110  0.2072 -0.0562
 1073ANI     CH15011   3.258   3.568   2.358  0.2694 -0.2792 -0.5827
 1073ANI     CH15012   3.186   3.683   2.324  0.2809 -0.0526  0.1476
 1073ANI     CH15013   3.047   3.684   2.342  0.2791  0.4791  0.1083
 1073ANI     CH15014   2.982   3.571   2.393  0.2672  0.5300  0.2053
 1073ANI     NH15015   2.992   3.361   2.492  0.3957 -0.2920  0.0069
 1073ANI     HC15016   3.251   3.366   2.440  0.6696  0.6208 -0.4453
 1073ANI     HC15017   3.365   3.574   2.344  0.4283 -0.6344  0.4131
 1073ANI     HC15018   3.236   3.774   2.294  0.1971  0.4412  1.4808
 1073ANI     HC15019   2.993   3.775   2.323 -0.1523 -0.0852 -1.4984
 1073ANI     HC15020   2.880   3.585   2.426  0.3090  2.5687 -0.5150
 1073ANI     HN15021   2.925   3.316   2.430 -0.2533  1.2715 -0.4506
 1073ANI     HN15022   3.062   3.292   2.513  0.6800  0.1627  0.5840
 1074ANI     CN15023   1.678   3.901   0.225  0.1723  0.0698  0.1490
 1074ANI     CH15024   1.567   3.838   0.167 -0.1274  0.6140  0.1220
 1074ANI     CH15025   1.438   3.877   0.203 -0.2650  0.0228  0.2841
 1074ANI     CH15026   1.422   3.990   0.285 -0.5591  0.2505 -0.0848
 1074ANI     CH15027   1.534   4.049   0.343 -0.3056 -0.2194 -0.0927
 1074ANI     CH15028   1.664   4.001   0.322 -0.0729  0.5068 -0.3341
 1074ANI     NH15029   1.801   3.857   0.197 -0.1390 -0.3864 -0.5132
 1074ANI     HC15030   1.579   3.751   0.103  0.5824  0.5066  0.3903
 1074ANI     HC15031   1.358   3.824   0.154 -0.4045  0.8174 -0.3572
 1074ANI     HC15032   1.324   4.031   0.307 -0.3758  0.7472 -0.2012
 1074ANI     HC15033   1.521   4.126   0.418  0.1024  0.5043 -0.7552
 1074ANI     HC15034   1.743   4.051   0.375  0.9847 -1.6354  0.1776
 1074ANI     HN15035   1.858   3.841   0.279 -1.7901  2.4437  1.2354
 1074ANI     HN15036   1.807   3.772   0.142 -0.0866  0.6503 -2.1428
 1075ANI     CN15037   1.811   0.756   1.574 -0.3240  0.4407  0.1060
 1075ANI     CH15038   1.942   0.807   1.570 -0.2262  0.2043  0.2974
 1075ANI     CH15039   1.974   0.922   1.643 -0.0711  0.0453  0.4819
 1075ANI     CH15040   1.878   0.975   1.729 -0.0226  0.6202  0.1858
 1075ANI     CH15041   1.750   0.920   1.740  0.3092 -0.2510 -0.3078
 1075ANI     CH15042   1.718   0.805   1.666 -0.5963 -0.3733  0.2683
 1075ANI     NH15043   1.775   0.657   1.492 -0.4516  0.4330  0.1720
 1075ANI     HC15044   2.013   0.757   1.506 -2.2678 -1.7347 -0.5228
 1075ANI     HC15045   2.074   0.964   1.639 -0.0517 -0.0237  0.2212
 1075ANI     HC15046   1.895   1.063   1.791  0.0498 -0.4712  1.7437
 1075ANI     HC15047   1.670   0.980   1.781  2.0547  1.8173  0.1545
 1075ANI     HC15048   1.618   0.766   1.678 -0.4603 -0.8804 -0.2508
 1075ANI     HN15049   1.679   0.632   1.515 -0.5097 -1.5242 -1.9253
 1075ANI     HN15050   1.768   0.701   1.402 -0.5661  0.2102  0.0704
 1076ANI     CN15051   2.653   5.944   5.830  0.4730  0.9586 -0.2716
 1076ANI     CH15052   2.581   5.827   5.806  0.2147  0.9702  0.4287
 1076ANI     CH15053   2.453   5.836   5.749  0.6765 -0.4423 -0.8635
 1076ANI     CH15054   2.405   5.960   5.704  0.7446 -0.4507 -0.9593
 1076ANI     CH15055   2.482   6.076   5.720 -0.8291  0.4640  0.0325
 1076ANI     CH15056   2.608   6.067   5.780 -0.7673  0.5946 -0.0789
 1076ANI     NH15057   2.770   5.947   5.896  0.2584 -0.4925  0.1843
 1076ANI     HC15058   2.627   5.731   5.823  0.9557  1.1544 -0.4698
 1076ANI     HC15059   2.398   5.743   5.749  0.6576 -0.4319 -0.4592
 1076ANI     HC15060   2.308   5.967   5.659 -0.7561  0.7070  2.3151
 1076ANI     HC15061   2.444   6.171   5.686  0.1570  0.2556 -1.7193
 1076ANI     HC15062   2.667   6.158   5.779 -0.8192  0.6420  0.7755
 1076ANI     HN15063   2.804   5.859   5.931  0.1873  0.1369  1.9092
 1076ANI     HN15064   2.750   6.003   5.978  0.9940 -1.4042  0.9862
 1077ANI     CN15065   3.146   2.746   4.257  0.0205 -0.0292  0.0951
 1077ANI     CH15066   3.151   2.607   4.238  0.6604 -0.0049  0.0625
 1077ANI     CH15067   3.184   2.553   4.113 -0.4951  0.0752 -0.2821
 1077ANI     CH15068   3.180   2.630   3.996 -0.6778  0.1958 -0.1989
 1077ANI     CH15069   3.178   2.769   4.011 -0.2508  0.1319  0.4541
 1077ANI     CH15070   3.156   2.821   4.139 -0.2987  0.3978  0.3384
 1077ANI     NH15071   3.122   2.802   4.377 -0.0691 -0.2130  0.1622
 1077ANI     HC15072   3.146   2.540   4.322 -2.7228 -1.1410 -0.9623
 1077ANI     HC15073   3.181   2.446   4.105  0.2260  0.0601 -0.3372
 1077ANI     HC15074   3.193   2.586   3.898  0.1240 -0.4348  0.1775
 1077ANI     HC15075   3.185   2.832   3.924  0.7195  0.9600  1.1255
 1077ANI     HC15076   3.143   2.928   4.138  0.6677  0.5161 -1.4731
 1077ANI     HN15077   3.039   2.856   4.357  1.2516  1.0844 -1.9981
 1077ANI     HN15078   3.079   2.739   4.444 -0.9372  0.4450  0.2315
 1078ANI     CN15079   3.610   1.434   1.172 -0.3985 -0.2090  0.0287
 1078ANI     CH15080   3.634   1.534   1.076 -0.1520 -0.2191  0.0779
 1078ANI     CH15081   3.552   1.548   0.964 -0.2965  0.0025  0.2100
 1078ANI     CH15082   3.434   1.473   0.961 -0.0561 -0.3521 -0.8379
 1078ANI     CH15083   3.401   1.380   1.062  0.0027 -0.0631 -0.5526
 1078ANI     CH15084   3.494   1.357   1.164 -0.3987 -0.1847 -0.2130
 1078ANI     NH15085   3.707   1.395   1.256 -0.2657  0.0273 -0.0144
 1078ANI     HC15086   3.724   1.593   1.082  1.5268 -2.8947  2.3656
 1078ANI     HC15087   3.573   1.618   0.884  1.5038 -1.0131 -0.2284
 1078ANI     HC15088   3.357   1.480   0.886 -0.4328  0.7224 -0.3552
 1078ANI     HC15089   3.312   1.320   1.055 -1.1767  1.4591  0.9995
 1078ANI     HC15090   3.472   1.284   1.240  0.3685 -1.1053 -0.8589
 1078ANI     HN15091   3.676   1.320   1.315  0.3969  0.4067  0.8240
 1078ANI     HN15092   3.791   1.372   1.205 -0.0685 -1.2098  0.8474
 1079ANI     CN15093   3.041   4.781   4.921  0.0468 -0.5533 -0.0245
 1079ANI     CH15094   2.916   4.824   4.873  0.3745  0.4964  0.0667
 1079ANI     CH15095   2.804   4.826   4.956  0.4278  0.1610  0.1479
 1079ANI     CH15096   2.816   4.784   5.089 -0.2471  0.2786  0.2489
 1079ANI     CH15097   2.941   4.755   5.146 -0.1024  0.6793  0.1366
 1079ANI     CH15098   3.047   4.745   5.056 -0.2201 -0.1750  0.0896
 1079ANI     NH15099   3.150   4.782   4.843 -0.0297 -0.0715 -0.1262
 1079ANI     HC15100   2.911   4.851   4.769  3.4801 -3.2552 -1.1728
 1079ANI     HC15101   2.705   4.850   4.920  0.4238  0.7253  0.5271
 1079ANI     HC15102   2.729   4.765   5.151  0.7567  2.5059  2.4291
 1079ANI     HC15103   2.955   4.731   5.250  0.1563 -0.4472 -0.1572
 1079ANI     HC15104   3.141   4.710   5.097  0.7311  1.0543 -1.0034
 1079ANI     HN15105   3.232   4.741   4.885  1.4088  1.9150 -0.9268
 1079ANI     HN15106   3.165   4.851   4.771 -0.0875 -1.8905 -1.9364
 1080ANI     CN15107   3.990   1.054   6.168 -0.3279 -0.1173 -0.1348
 1080ANI     CH15108   3.922   1.172   6.201 -0.2924 -0.0843 -0.1809
 1080ANI     CH15109   3.921   1.221   6.332  0.5272  0.3030 -0.3112
 1080ANI     CH15110   3.999   1.158   6.430 -0.2203 -0.2775 -0.0793
 1080ANI     CH15111   4.080   1.049   6.394 -0.0507 -0.2843  0.3201
 1080ANI     CH15112   4.070   0.994   6.266  0.5824  0.9097 -0.2480
 1080ANI     NH15113   3.982   1.007   6.043 -0.6878 -0.2397 -0.0670
 1080ANI     HC15114   3.875   1.232   6.124 -2.2670  0.1985  1.2289
 1080ANI     HC15115   3.879   1.319   6.347  0.4118 -0.1035  2.1905
 1080ANI     HC15116   4.014   1.198   6.529 -0.2444  4.4788 -1.8623
 1080ANI     HC15117   4.146   1.006   6.468  0.8887  0.6859  0.0616
 1080ANI     HC15118   4.127   0.908   6.232  0.9109  1.8057 -2.0712
 1080ANI     HN15119   3.993   0.907   6.045 -0.7642 -0.2187  1.2593
 1080ANI     HN15120   3.913   1.044   5.978  0.0087 -0.0774 -0.7274
 1081ANI     CN15121   4.129   0.518   5.820 -0.1434 -0.0131  0.1276
 1081ANI     CH15122   4.106   0.552   5.687 -0.7796 -1.0340 -0.0289
 1081ANI     CH15123   4.169   0.478   5.586 -0.2241  0.0335 -0.4760
 1081ANI     CH15124   4.251   0.367   5.613 -0.1777  0.1363 -0.1918
 1081ANI     CH15125   4.267   0.327   5.746 -0.3837  0.2339 -0.1370
 1081ANI     CH15126   4.211   0.408   5.846 -0.1510 -0.0055  0.1880
 1081ANI     NH15127   4.076   0.598   5.915  0.3479  0.4057  0.0473
 1081ANI     HC15128   4.041   0.632   5.654  1.0390  0.6069  0.2974
 1081ANI     HC15129   4.159   0.519   5.487  4.0688 -0.3426 -1.1557
 1081ANI     HC15130   4.291   0.308   5.532 -1.6573 -1.0529 -0.0793
 1081ANI     HC15131   4.325   0.241   5.776  1.0283  1.0570 -0.4835
 1081ANI     HC15132   4.241   0.389   5.948 -0.5263  1.7096  0.6367
 1081ANI     HN15133   4.015   0.672   5.885 -0.9530 -0.9906 -0.8160
 1081ANI     HN15134   4.119   0.608   6.006 -0.6758  1.3075  0.4392
 1082ANI     CN15135   0.678   5.325   5.657 -0.1050 -0.3177 -0.4444
 1082ANI     CH15136   0.619   5.427   5.582  0.5947  0.1574 -0.3521
 1082ANI     CH15137   0.534   5.524   5.635  0.6350 -0.0505  0.0871
 1082ANI     CH15138   0.525   5.530   5.775 -0.2243  0.3441  0.0146
 1082ANI     CH15139   0.586   5.433   5.855 -0.2208  0.2311 -0.1247
 1082ANI     CH15140   0.657   5.328   5.795 -0.2483  0.4143 -0.4809
 1082ANI     NH15141   0.773   5.247   5.604  0.6123 -0.0265  0.3946
 1082ANI     HC15142   0.640   5.439   5.476 -1.5910 -1.6885 -1.0317
 1082ANI     HC15143   0.476   5.596   5.579 -1.0586 -1.8486 -0.4828
 1082ANI     HC15144   0.462   5.605   5.821 -0.1272  0.5400 -0.1707
 1082ANI     HC15145   0.567   5.436   5.961 -0.3241  0.4625 -0.1505
 1082ANI     HC15146   0.702   5.253   5.859  0.2171 -0.1285 -1.4321
 1082ANI     HN15147   0.758   5.236   5.504 -2.4508  2.5297  0.5018
 1082ANI     HN15148   0.787   5.149   5.624 -0.8218 -0.5198 -0.8694
 1083ANI     CN15149   2.161   1.684   0.305  0.4866  0.0139 -0.0112
 1083ANI     CH15150   2.086   1.719   0.418 -0.0796 -0.1276 -0.3448
 1083ANI     CH15151   2.147   1.789   0.522 -0.2017 -0.7231  0.1319
 1083ANI     CH15152   2.286   1.806   0.524 -0.3350  0.4455 -0.1348
 1083ANI     CH15153   2.364   1.760   0.417  0.1453  0.2896  0.2771
 1083ANI     CH15154   2.299   1.706   0.305  0.3850  0.6577 -0.0422
 1083ANI     NH15155   2.093   1.630   0.203 -0.0864  0.2434  0.2504
 1083ANI     HC15156   1.980   1.696   0.414  0.1325 -1.0839 -0.6285
 1083ANI     HC15157   2.089   1.816   0.609  0.8612 -2.0648  1.2965
 1083ANI     HC15158   2.345   1.849   0.604 -1.2150 -0.9124  1.2758
 1083ANI     HC15159   2.470   1.776   0.408  0.1913 -1.3701 -2.7269
 1083ANI     HC15160   2.356   1.684   0.216 -4.0723 -0.5478 -2.7230
 1083ANI     HN15161   2.150   1.549   0.187  0.8267  1.2302 -1.6111
 1083ANI     HN15162   1.997   1.601   0.215  0.6238 -2.3006 -0.0412
 1084ANI     CN15163   3.112   0.391   1.331  0.2117  0.0114 -0.0197
 1084ANI     CH15164   3.168   0.351   1.210 -0.3957 -0.2567 -0.2161
 1084ANI     CH15165   3.235   0.228   1.207  0.1524  0.0515 -0.8366
 1084ANI     CH15166   3.223   0.138   1.314 -0.3007  0.5685 -0.4528
 1084ANI     CH15167   3.179   0.185   1.438 -0.0397  0.0201 -0.1539
 1084ANI     CH15168   3.118   0.311   1.446 -0.0457  0.0092 -0.0065
 1084ANI     NH15169   3.063   0.516   1.336 -0.2178 -0.1659  0.2456
 1084ANI     HC15170   3.175   0.404   1.116 -1.7126 -0.6290 -0.5308
 1084ANI     HC15171   3.286   0.198   1.116 -2.5221  2.6118 -3.2915
 1084ANI     HC15172   3.264   0.039   1.302  0.4369  0.7083  0.7353
 1084ANI     HC15173   3.197   0.126   1.528 -1.4070 -0.4394 -0.1702
 1084ANI     HC15174   3.074   0.337   1.540 -0.8977  1.6920 -0.8531
 1084ANI     HN15175   3.019   0.530   1.247  0.2853 -2.0547 -0.3335
 1084ANI     HN15176   2.991   0.526   1.406 -0.0138 -1.3369  0.6413
 1085ANI     CN15177   4.997   1.208   3.676  0.0283  0.3006  0.2604
 1085ANI     CH15178   5.022   1.336   3.624  0.0015  0.1877 -0.0268
 1085ANI     CH15179   5.115   1.423   3.682 -0.8858  0.6302  0.7368
 1085ANI     CH15180   5.183   1.379   3.796 -0.0054 -0.3503 -0.1521
 1085ANI     CH15181   5.165   1.250   3.848 -0.0825 -0.1981  0.2054
 1085ANI     CH15182   5.064   1.170   3.793  0.0173 -0.2463  0.0911
 1085ANI     NH15183   4.908   1.127   3.618  0.0737 -0.0879  0.7306
 1085ANI     HC15184   4.960   1.381   3.548  0.8813  2.2491  0.4518
 1085ANI     HC15185   5.124   1.524   3.645 -2.0512 -0.5495 -2.9307
 1085ANI     HC15186   5.245   1.448   3.851 -0.1108 -0.7511  0.4867
 1085ANI     HC15187   5.217   1.219   3.938  0.4329  2.8140  0.9910
 1085ANI     HC15188   5.031   1.081   3.845 -1.7622 -0.1975 -0.9343
 1085ANI     HN15189   4.872   1.049   3.672  0.0583  1.7509  3.4598
 1085ANI     HN15190   4.837   1.186   3.578  1.1264 -0.2711 -1.5186
 1086ANI     CN15191   0.130   5.757   4.750  0.3211 -0.5305  0.8311
 1086ANI     CH15192   0.061   5.773   4.871 -0.0556 -0.6677  0.6359
 1086ANI     CH15193   0.058   5.895   4.939 -0.6223  0.1010 -0.7531
 1086ANI     CH15194   0.099   6.006   4.864 -0.0598  0.4475  0.0583
 1086ANI     CH15195   0.162   5.993   4.739  0.3447 -0.8110  0.3849
 1086ANI     CH15196   0.185   5.867   4.683 -0.5436 -0.7164 -0.1946
 1086ANI     NH15197   0.145   5.635   4.696  0.1165 -0.0335 -0.3651
 1086ANI     HC15198   0.032   5.681   4.920  0.6724 -1.0978  0.2889
 1086ANI     HC15199   0.008   5.900   5.034 -0.7197 -0.8866 -0.7484
 1086ANI     HC15200   0.103   6.099   4.917  1.3101 -0.3018  1.3162
 1086ANI     HC15201   0.187   6.082   4.683 -1.5585 -0.2739  0.3646
 1086ANI     HC15202   0.244   5.844   4.595  2.0810  0.6743  1.1502
 1086ANI     HN15203   0.176   5.651   4.602 -0.1796  0.4666 -0.3831
 1086ANI     HN15204   0.057   5.585   4.694  0.4200 -0.6326  0.8023
 1087ANI     CN15205   3.214   2.564   4.736 -0.0943  0.0955  0.5137
 1087ANI     CH15206   3.173   2.453   4.811  0.5289 -0.4571  0.0360
 1087ANI     CH15207   3.216   2.434   4.943 -0.1998 -0.6081  0.2574
 1087ANI     CH15208   3.300   2.531   4.999 -0.5209 -0.2009  0.0405
 1087ANI     CH15209   3.340   2.643   4.927  0.0299 -0.6702 -0.3906
 1087ANI     CH15210   3.298   2.660   4.794 -0.3711  0.7116 -0.0984
 1087ANI     NH15211   3.172   2.574   4.610 -0.2365  0.0111  0.5539
 1087ANI     HC15212   3.107   2.387   4.756  1.2506 -1.2379  0.0974
 1087ANI     HC15213   3.188   2.343   4.994 -0.7391 -1.5532 -1.6808
 1087ANI     HC15214   3.340   2.503   5.096 -1.0756 -0.8332  0.0931
 1087ANI     HC15215   3.407   2.721   4.962 -1.6622  0.8732 -0.5386
 1087ANI     HC15216   3.341   2.746   4.745  1.5328  1.1956  2.2977
 1087ANI     HN15217   3.245   2.621   4.558  0.1082  0.0070  1.0336
 1087ANI     HN15218   3.148   2.488   4.562 -0.5345  0.1011  0.5413
 1088ANI     CN15219   5.675   3.573   1.218  0.2035 -0.0360 -0.0801
 1088ANI     CH15220   5.653   3.650   1.103 -0.3926 -0.8880 -0.5439
 1088ANI     CH15221   5.583   3.770   1.111  0.0311 -0.6192 -0.8667
 1088ANI     CH15222   5.521   3.812   1.229  0.4676 -0.2575 -0.7623
 1088ANI     CH15223   5.532   3.728   1.341  0.8846  0.0874 -0.5449
 1088ANI     CH15224   5.612   3.613   1.337 -0.1126 -0.6324 -0.0421
 1088ANI     NH15225   5.738   3.455   1.210 -0.2725 -0.2938 -0.0507
 1088ANI     HC15226   5.691   3.613   1.009  0.0015 -1.5999 -0.1105
 1088ANI     HC15227   5.557   3.828   1.023  1.2585 -0.6679 -1.2683
 1088ANI     HC15228   5.462   3.902   1.231  1.2472  0.2839 -2.1296
 1088ANI     HC15229   5.481   3.754   1.433  1.2113 -0.3091 -0.2498
 1088ANI     HC15230   5.630   3.561   1.430  5.1654 -2.6851 -2.0182
 1088ANI     HN15231   5.795   3.441   1.128 -0.1165 -2.4700  0.4025
 1088ANI     HN15232   5.791   3.442   1.295 -0.9203 -0.3854  0.3515
 1089ANI     CN15233   5.785   2.245   3.006 -0.1329  0.5485 -0.3919
 1089ANI     CH15234   5.734   2.281   3.132 -0.0345 -0.7284  0.0227
 1089ANI     CH15235   5.596   2.292   3.157  0.0306 -0.3350  0.2008
 1089ANI     CH15236   5.507   2.282   3.049 -0.1261  0.5945  0.2425
 1089ANI     CH15237   5.560   2.270   2.920 -0.7308  0.3327  0.0167
 1089ANI     CH15238   5.696   2.247   2.898 -0.8116 -0.2572  0.1405
 1089ANI     NH15239   5.917   2.233   2.991 -0.1182  0.8799 -0.5251
 1089ANI     HC15240   5.800   2.306   3.213 -0.3003 -0.7203  0.2354
 1089ANI     HC15241   5.563   2.319   3.256 -1.1437 -0.4370 -0.1548
 1089ANI     HC15242   5.400   2.293   3.054  0.0891  2.6367  0.9349
 1089ANI     HC15243   5.495   2.284   2.835  0.8535 -0.3837 -1.3371
 1089ANI     HC15244   5.729   2.236   2.796 -2.3569  0.4860 -0.4443
 1089ANI     HN15245   5.942   2.199   2.899 -0.0446 -1.0323  0.1787
 1089ANI     HN15246   5.953   2.166   3.058 -0.5870 -0.8797 -1.9911
 1090ANI     CN15247   6.197   3.540   4.815  0.1960  0.0580 -0.2303
 1090ANI     CH15248   6.100   3.498   4.906  0.0047 -0.1550 -0.5304
 1090ANI     CH15249   5.979   3.446   4.859 -0.0227 -0.9274  0.3590
 1090ANI     CH15250   5.971   3.409   4.724 -0.1851  0.4857 -0.0348
 1090ANI     CH15251   6.076   3.433   4.635  0.4411 -0.3863  0.4607
 1090ANI     CH15252   6.187   3.506   4.679  0.5058 -0.0689 -0.2240
 1090ANI     NH15253   6.306   3.597   4.869  0.0034 -0.3677  0.6078
 1090ANI     HC15254   6.119   3.514   5.012 -0.9823 -0.4758 -0.3036
 1090ANI     HC15255   5.894   3.432   4.923 -1.2543 -0.1147 -1.0692
 1090ANI     HC15256   5.882   3.362   4.685  0.7329 -1.2674 -0.0984
 1090ANI     HC15257   6.065   3.415   4.529 -0.9963  0.6798  0.4249
 1090ANI     HC15258   6.262   3.546   4.612 -0.0190  2.5737  0.6708
 1090ANI     HN15259   6.267   3.662   4.935 -2.4828 -1.3364  0.1640
 1090ANI     HN15260   6.345   3.662   4.802  0.7167 -2.0186 -0.6089
 1091ANI     CN15261   2.234   3.990   3.799 -0.3271  0.1341 -0.0506
 1091ANI     CH15262   2.164   3.967   3.679 -0.1863 -0.3026 -0.0468
 1091ANI     CH15263   2.162   4.079   3.596 -0.8904  0.0274  0.4035
 1091ANI     CH15264   2.199   4.207   3.639  0.0755 -0.1584  0.1438
 1091ANI     CH15265   2.249   4.229   3.768 -1.0631  0.1879  0.5370
 1091ANI     CH15266   2.264   4.116   3.851 -0.8998  0.0964  0.3833
 1091ANI     NH15267   2.257   3.887   3.881 -0.4747 -0.0843 -0.2828
 1091ANI     HC15268   2.125   3.875   3.638  0.6908 -0.1236 -1.2905
 1091ANI     HC15269   2.135   4.060   3.493  1.1670 -0.9288  0.0036
 1091ANI     HC15270   2.191   4.294   3.576  1.5132 -0.1647 -0.0559
 1091ANI     HC15271   2.269   4.329   3.801 -1.1498  0.5755 -0.5688
 1091ANI     HC15272   2.286   4.131   3.955 -1.6590 -1.1599  0.7204
 1091ANI     HN15273   2.280   3.911   3.976 -0.3550  1.7632 -0.7566
 1091ANI     HN15274   2.189   3.812   3.884  1.5121 -1.9707 -0.8043
 1092ANI     CN15275   0.394   5.023   3.481  0.1514 -0.5283  0.4885
 1092ANI     CH15276   0.461   5.075   3.592 -0.5552  0.2502  0.5548
 1092ANI     CH15277   0.569   5.162   3.574  0.0988 -0.7277 -0.3167
 1092ANI     CH15278   0.607   5.205   3.446 -0.2326  0.6037  0.0239
 1092ANI     CH15279   0.539   5.154   3.335 -0.3552  0.1613  0.3036
 1092ANI     CH15280   0.433   5.063   3.353 -0.8045  0.7284  0.5756
 1092ANI     NH15281   0.308   4.922   3.503 -0.3517 -0.2317 -0.0714
 1092ANI     HC15282   0.446   5.041   3.693  1.8875 -0.6730  0.6255
 1092ANI     HC15283   0.626   5.191   3.661  0.9683 -0.1991 -1.0390
 1092ANI     HC15284   0.677   5.288   3.445  0.9154 -0.3614  0.0361
 1092ANI     HC15285   0.560   5.186   3.234 -0.7018  1.0364  0.5014
 1092ANI     HC15286   0.378   5.031   3.266  1.7109 -0.2364 -0.7418
 1092ANI     HN15287   0.304   4.859   3.424 -1.3194 -1.1282  0.6810
 1092ANI     HN15288   0.329   4.873   3.589  3.1477  1.8667  0.3863
 1093ANI     CN15289   1.247   1.037   2.271  0.2454 -0.0216 -0.4750
 1093ANI     CH15290   1.360   1.066   2.193  0.4392 -0.1010 -0.2252
 1093ANI     CH15291   1.386   1.194   2.143  0.1580  0.0233 -0.0516
 1093ANI     CH15292   1.289   1.294   2.162 -0.2473 -0.3661 -0.0560
 1093ANI     CH15293   1.178   1.272   2.244 -0.3019 -0.1872 -0.0842
 1093ANI     CH15294   1.162   1.145   2.299  0.5672 -0.0239  0.5617
 1093ANI     NH15295   1.222   0.923   2.337 -0.0214  0.3030 -0.0086
 1093ANI     HC15296   1.419   0.984   2.155  1.7990  0.6347  0.2871
 1093ANI     HC15297   1.474   1.222   2.089 -0.7288 -0.7495 -1.9548
 1093ANI     HC15298   1.294   1.379   2.097 -1.0481 -0.3173 -0.0534
 1093ANI     HC15299   1.102   1.348   2.260 -0.9591 -0.9936  0.6828
 1093ANI     HC15300   1.075   1.126   2.360 -0.3051 -0.2613 -0.7265
 1093ANI     HN15301   1.227   0.840   2.279 -0.6123  1.4500 -1.7662
 1093ANI     HN15302   1.139   0.929   2.394  1.3544 -1.6862  2.2552
 1094ANI     CN15303   1.764   5.748   5.407 -0.5228  0.6761 -0.3632
 1094ANI     CH15304   1.757   5.887   5.423 -0.2832  0.6633 -0.1417
 1094ANI     CH15305   1.648   5.949   5.485 -0.2195  0.0343  0.6060
 1094ANI     CH15306   1.547   5.870   5.541 -0.3761 -0.0675  0.1773
 1094ANI     CH15307   1.560   5.731   5.534 -0.2907 -0.0140 -0.7597
 1094ANI     CH15308   1.669   5.668   5.472  0.0266  0.0767 -0.2923
 1094ANI     NH15309   1.872   5.701   5.343 -0.0932  0.4626  0.5118
 1094ANI     HC15310   1.831   5.947   5.372  1.6397 -0.4257  1.2896
 1094ANI     HC15311   1.634   6.056   5.490  0.5884  0.2228 -0.8758
 1094ANI     HC15312   1.474   5.923   5.601  0.9436  1.4675  0.4753
 1094ANI     HC15313   1.487   5.669   5.583 -0.8393  0.1141 -1.4043
 1094ANI     HC15314   1.679   5.562   5.456 -1.3147 -0.3642  1.5499
 1094ANI     HN15315   1.931   5.758   5.284 -0.5313  0.4489  0.0629
 1094ANI     HN15316   1.868   5.603   5.320  0.7435  1.0686 -2.4277
 1095ANI     CN15317   2.851   3.530   2.032  0.5017  0.4238  0.1319
 1095ANI     CH15318   2.855   3.538   1.892 -0.3243  0.0750  0.0849
 1095ANI     CH15319   2.786   3.642   1.828 -0.0298 -0.2819 -0.8090
 1095ANI     CH15320   2.705   3.730   1.901  0.7689 -0.4580  0.3039
 1095ANI     CH15321   2.697   3.715   2.040  0.0824 -0.0615  0.3084
 1095ANI     CH15322   2.767   3.613   2.106  0.1597 -0.0392  0.2622
 1095ANI     NH15323   2.918   3.431   2.093 -0.4406  0.1801  0.7765
 1095ANI     HC15324   2.906   3.466   1.831 -1.0050 -0.1804 -0.1778
 1095ANI     HC15325   2.777   3.642   1.720  0.8840 -1.0469 -0.8970
 1095ANI     HC15326   2.651   3.804   1.844  0.8166 -1.1824 -0.6874
 1095ANI     HC15327   2.632   3.780   2.096 -2.5525 -2.1584 -0.1642
 1095ANI     HC15328   2.763   3.605   2.214  0.6879 -1.9265  0.1528
 1095ANI     HN15329   2.935   3.462   2.188  0.7384 -0.3409  0.7475
 1095ANI     HN15330   3.006   3.417   2.046 -0.2468 -0.1132  1.2153
 1096ANI     CN15331   3.494   2.839   5.185  0.0453 -0.2442  0.1899
 1096ANI     CH15332   3.480   2.721   5.258  0.1042 -0.4450 -0.1214
 1096ANI     CH15333   3.351   2.680   5.295  0.0595  0.0177  0.2450
 1096ANI     CH15334   3.243   2.765   5.271  0.2222  0.2186  0.2298
 1096ANI     CH15335   3.257   2.892   5.213  0.4308 -0.0786 -0.3714
 1096ANI     CH15336   3.385   2.925   5.167  0.5171  0.3580  0.1688
 1096ANI     NH15337   3.616   2.883   5.148  0.1162 -0.3303  0.3205
 1096ANI     HC15338   3.568   2.663   5.282  0.3115 -1.3750 -3.0487
 1096ANI     HC15339   3.335   2.585   5.345 -3.0186  1.9031  3.0566
 1096ANI     HC15340   3.143   2.741   5.305  0.1006 -2.0003 -1.6334
 1096ANI     HC15341   3.168   2.951   5.202 -0.5224 -1.5912 -0.9225
 1096ANI     HC15342   3.390   3.016   5.109  0.5049  0.4361  0.2924
 1096ANI     HN15343   3.616   2.981   5.127 -2.2245 -0.5425 -0.8256
 1096ANI     HN15344   3.692   2.867   5.213  0.2716 -1.2604 -0.0796
 1097ANI     CN15345   3.667   4.041   3.333 -0.0538  0.1313 -0.1380
 1097ANI     CH15346   3.647   4.178   3.315 -1.1701 -0.0045  0.0481
 1097ANI     CH15347   3.745   4.248   3.244 -0.7219 -0.0752  0.5915
 1097ANI     CH15348   3.869   4.191   3.210 -0.9647 -0.4173  0.2706
 1097ANI     CH15349   3.888   4.054   3.235  0.2000 -0.2411  0.3587
 1097ANI     CH15350   3.791   3.982   3.305  0.1124  0.1180  0.6114
 1097ANI     NH15351   3.558   3.971   3.367 -0.3086  0.3851 -0.4329
 1097ANI     HC15352   3.546   4.212   3.332 -0.8672  0.7288  0.4072
 1097ANI     HC15353   3.716   4.346   3.210  1.0106 -0.3088 -1.7218
 1097ANI     HC15354   3.925   4.238   3.131 -1.1986 -1.7636 -0.7231
 1097ANI     HC15355   3.982   4.015   3.200  0.0119 -1.8982  1.6548
 1097ANI     HC15356   3.811   3.876   3.309  0.9867  0.2759  0.4095
 1097ANI     HN15357   3.591   3.892   3.421 -1.6115 -0.3837 -0.7372
 1097ANI     HN15358   3.507   4.020   3.439  1.7093  0.2462  1.1487
 1098ANI     CN15359   5.472   2.303   4.592 -0.0002 -0.3322 -0.4945
 1098ANI     CH15360   5.422   2.190   4.527 -0.0391 -0.6540  0.1003
 1098ANI     CH15361   5.350   2.092   4.598 -0.0860 -0.3321  0.5026
 1098ANI     CH15362   5.307   2.119   4.728 -0.0790  0.0270  0.4301
 1098ANI     CH15363   5.348   2.236   4.793  0.3409 -0.0415  0.2949
 1098ANI     CH15364   5.435   2.322   4.725  0.3474 -0.5685 -0.3656
 1098ANI     NH15365   5.554   2.387   4.527 -0.0103 -0.4181 -0.6199
 1098ANI     HC15366   5.447   2.150   4.430  1.9602  1.7600 -0.3975
 1098ANI     HC15367   5.317   2.000   4.552  0.8177 -1.3464  1.8446
 1098ANI     HC15368   5.233   2.057   4.775 -1.2022  2.8279  2.5028
 1098ANI     HC15369   5.310   2.255   4.893  1.2495 -0.4501  0.7260
 1098ANI     HC15370   5.471   2.414   4.770 -0.9472 -0.2786  0.0850
 1098ANI     HN15371   5.628   2.340   4.478  0.8975  1.9856 -1.6676
 1098ANI     HN15372   5.604   2.455   4.582 -0.2315 -1.8950  1.4602
 1099ANI     CN15373   0.156   3.962   4.834 -0.4187 -0.0693 -0.0697
 1099ANI     CH15374   0.247   3.909   4.742 -0.2937 -0.0863  0.0648
 1099ANI     CH15375   0.239   3.951   4.609  0.4148  0.2801  0.1312
 1099ANI     CH15376   0.133   4.032   4.567  0.1899 -0.0009  0.1511
 1099ANI     CH15377   0.039   4.080   4.659  0.2011  0.9719 -0.3293
 1099ANI     CH15378   0.048   4.041   4.793 -0.3064 -0.2041 -0.6303
 1099ANI     NH15379   0.176   3.938   4.965  0.1432 -0.1233 -0.1637
 1099ANI     HC15380   0.325   3.839   4.772 -0.5756 -0.7618 -0.7555
 1099ANI     HC15381   0.312   3.923   4.535 -1.0321 -1.5733 -0.6575
 1099ANI     HC15382   0.119   4.057   4.463 -0.4831  1.3089  0.5453
 1099ANI     HC15383  -0.037   4.149   4.626 -0.2108 -0.4191 -2.4106
 1099ANI     HC15384  -0.019   4.089   4.863 -0.4880 -1.9846  0.4500
 1099ANI     HN15385   0.273   3.919   4.985 -0.5145 -1.2154  2.0922
 1099ANI     HN15386   0.151   4.015   5.024 -0.5168  1.3770 -2.3260
 1100ANI     CN15387   1.926   0.530   4.303  0.2593 -0.0686 -0.4444
 1100ANI     CH15388   2.007   0.509   4.416  0.3969  0.4290 -0.4484
 1100ANI     CH15389   2.041   0.380   4.460 -0.0598  0.5382  0.2375
 1100ANI     CH15390   1.997   0.271   4.384 -0.3988  0.8260  0.0129
 1100ANI     CH15391   1.917   0.291   4.271 -0.5432 -0.3048 -0.0918
 1100ANI     CH15392   1.890   0.420   4.225  0.9445 -0.1709 -0.6263
 1100ANI     NH15393   1.900   0.656   4.265  0.2204  0.2946  0.7456
 1100ANI     HC15394   2.056   0.596   4.457  1.5547 -0.7091  0.6159
 1100ANI     HC15395   2.116   0.368   4.537  2.2132  1.1574 -1.8018
 1100ANI     HC15396   2.038   0.174   4.411 -0.0572  1.0328  0.2463
 1100ANI     HC15397   1.865   0.208   4.225 -1.6403 -1.0577  2.3931
 1100ANI     HC15398   1.829   0.429   4.136 -1.2367  0.3184  0.8528
 1100ANI     HN15399   1.869   0.711   4.344 -3.2619  1.4424 -1.3115
 1100ANI     HN15400   1.836   0.680   4.190  0.6519 -1.4583 -0.2318
 1101ANI     CN15401   4.121   5.552   3.923 -0.1700 -0.0397  0.1003
 1101ANI     CH15402   4.252   5.575   3.966 -0.0989 -1.0017  0.4042
 1101ANI     CH15403   4.359   5.521   3.895  0.0872  0.0181 -0.1059
 1101ANI     CH15404   4.333   5.456   3.773 -0.2154  0.3932 -0.2404
 1101ANI     CH15405   4.203   5.437   3.726 -0.5244  0.5560  0.5356
 1101ANI     CH15406   4.097   5.475   3.809 -0.9422 -0.0933  0.3017
 1101ANI     NH15407   4.019   5.589   4.002  0.2938  0.2228  0.5833
 1101ANI     HC15408   4.268   5.628   4.060 -3.8916  1.1189 -0.0364
 1101ANI     HC15409   4.459   5.523   3.935  0.3258 -1.5121 -0.5754
 1101ANI     HC15410   4.413   5.417   3.712 -0.3425  0.9404 -0.7639
 1101ANI     HC15411   4.179   5.387   3.633 -1.0354 -1.2246  1.6168
 1101ANI     HC15412   3.996   5.461   3.773 -2.2428  1.4361  3.1554
 1101ANI     HN15413   4.048   5.597   4.098 -0.1969  0.3690  0.7171
 1101ANI     HN15414   3.939   5.529   3.989 -0.1352  1.0686 -0.7954
 1102ANI     CN15415   2.666   3.764   5.895  0.1392 -0.0700  0.2316
 1102ANI     CH15416   2.764   3.843   5.835  0.0003  0.0818  0.2026
 1102ANI     CH15417   2.805   3.824   5.702  0.0521 -0.1833  0.2575
 1102ANI     CH15418   2.760   3.707   5.639  0.6817 -0.2192 -0.1250
 1102ANI     CH15419   2.647   3.640   5.686  0.4310  0.3576  0.0923
 1102ANI     CH15420   2.602   3.667   5.816  0.1961  0.0123  0.0835
 1102ANI     NH15421   2.625   3.793   6.019 -0.0086  0.1255  0.1376
 1102ANI     HC15422   2.796   3.929   5.892  1.9393 -1.1995  1.1274
 1102ANI     HC15423   2.866   3.898   5.654 -2.4064  0.6943 -1.6188
 1102ANI     HC15424   2.784   3.683   5.537  1.3363  1.0982 -0.2858
 1102ANI     HC15425   2.594   3.572   5.621 -1.1769  2.0981 -0.4495
 1102ANI     HC15426   2.514   3.617   5.853 -0.3609  0.0309 -1.1793
 1102ANI     HN15427   2.527   3.779   6.042 -0.7090  0.6094 -2.3493
 1102ANI     HN15428   2.650   3.885   6.052  1.4566 -0.7179  1.4164
 1103ANI     CN15429   1.832   3.391   2.892  0.0013 -0.0107 -0.2738
 1103ANI     CH15430   1.792   3.457   3.009 -0.6583 -0.9540  0.0412
 1103ANI     CH15431   1.656   3.467   3.040 -0.5854  0.1714  0.0066
 1103ANI     CH15432   1.563   3.398   2.961  0.1281 -0.5289 -0.2309
 1103ANI     CH15433   1.602   3.321   2.851 -0.0897 -0.5701 -0.2795
 1103ANI     CH15434   1.737   3.322   2.815  0.0016 -0.3970  0.0667
 1103ANI     NH15435   1.963   3.378   2.868  0.1380 -0.2723  0.6097
 1103ANI     HC15436   1.859   3.499   3.082 -1.1446 -1.6031  0.8793
 1103ANI     HC15437   1.626   3.520   3.129 -1.6480 -0.6438  0.1545
 1103ANI     HC15438   1.458   3.403   2.988  0.3677 -0.5474  0.7188
 1103ANI     HC15439   1.524   3.272   2.795  1.7074 -4.7286  0.6711
 1103ANI     HC15440   1.772   3.268   2.729 -1.4715  0.9388 -1.4096
 1103ANI     HN15441   1.992   3.344   2.778  1.1662 -0.1083  0.8679
 1103ANI     HN15442   2.019   3.456   2.899 -0.0888 -0.5171  1.6868
 1104ANI     CN15443   5.220   3.467   2.043  0.0659  0.4818 -0.5916
 1104ANI     CH15444   5.354   3.484   2.082 -0.0306 -0.2042  0.0431
 1104ANI     CH15445   5.392   3.486   2.216 -0.0174  0.6331  0.0340
 1104ANI     CH15446   5.296   3.479   2.318  0.1088  0.3322  0.1355
 1104ANI     CH15447   5.163   3.452   2.281  0.2235 -0.0642  0.0090
 1104ANI     CH15448   5.131   3.436   2.146  0.8769 -0.3259 -0.1201
 1104ANI     NH15449   5.188   3.478   1.913  0.0480  0.0670 -0.6225
 1104ANI     HC15450   5.434   3.494   2.010  0.4586  1.0819  0.7378
 1104ANI     HC15451   5.498   3.490   2.239 -0.2723 -0.5134  1.4933
 1104ANI     HC15452   5.323   3.497   2.421  0.8585  1.6739 -0.2856
 1104ANI     HC15453   5.083   3.442   2.353 -0.9864 -2.6033 -1.6007
 1104ANI     HC15454   5.027   3.425   2.119  0.8094  0.3032 -0.1269
 1104ANI     HN15455   5.089   3.484   1.895  0.4480  0.7766 -2.8183
 1104ANI     HN15456   5.237   3.550   1.862  0.8911  0.2013  0.3519
 1105ANI     CN15457   4.994   0.738   0.534  0.2544  0.0950  0.4140
 1105ANI     CH15458   4.867   0.734   0.593  0.0524 -0.1938 -0.0383
 1105ANI     CH15459   4.755   0.710   0.513  0.0068  0.1026 -0.0612
 1105ANI     CH15460   4.767   0.682   0.376 -0.2072  0.5632 -0.1780
 1105ANI     CH15461   4.895   0.690   0.320 -0.2708  0.2593 -0.3718
 1105ANI     CH15462   5.009   0.721   0.396 -0.6409 -0.1368  0.3468
 1105ANI     NH15463   5.099   0.758   0.615  0.3738  0.1486  0.2461
 1105ANI     HC15464   4.860   0.749   0.700 -1.5023 -4.5518  0.5582
 1105ANI     HC15465   4.654   0.704   0.552 -0.0360 -0.7359 -0.3025
 1105ANI     HC15466   4.674   0.659   0.327  0.7345 -2.3381 -0.6919
 1105ANI     HC15467   4.895   0.662   0.216 -2.1246  1.2786 -0.6767
 1105ANI     HC15468   5.101   0.708   0.342 -0.6258 -0.6777  0.4970
 1105ANI     HN15469   5.166   0.686   0.590 -1.4482 -1.0544 -1.3345
 1105ANI     HN15470   5.066   0.744   0.709  1.6194 -0.3212  0.6222
 1106ANI     CN15471   5.432   2.099   6.065 -0.2388  0.0833  0.1886
 1106ANI     CH15472   5.460   2.222   6.126  0.8063  0.1064 -0.3319
 1106ANI     CH15473   5.460   2.337   6.045  0.1441  0.3832  0.0597
 1106ANI     CH15474   5.460   2.331   5.905  0.0712 -0.2288  0.0831
 1106ANI     CH15475   5.450   2.204   5.846 -0.2895 -0.2035  0.0915
 1106ANI     CH15476   5.427   2.091   5.925 -0.3196 -0.1192  0.2033
 1106ANI     NH15477   5.432   1.986   6.136  0.6307  0.0172  0.0883
 1106ANI     HC15478   5.459   2.231   6.233 -0.9311 -0.3415 -0.3057
 1106ANI     HC15479   5.481   2.435   6.085 -0.3027  1.1925 -1.6094
 1106ANI     HC15480   5.474   2.417   5.842  0.0709 -0.2765  0.0177
 1106ANI     HC15481   5.450   2.204   5.739  1.9211  0.1473  0.0778
 1106ANI     HC15482   5.414   1.997   5.874 -0.9734  1.0893 -1.9366
 1106ANI     HN15483   5.376   1.919   6.086  3.8703 -2.1107 -0.8647
 1106ANI     HN15484   5.387   2.008   6.223  0.7966  0.0338  0.1716
 1107ANI     CN15485   0.299   5.571   3.213 -0.3752 -0.5103 -0.7370
 1107ANI     CH15486   0.319   5.661   3.107 -0.2813  0.6024  0.2203
 1107ANI     CH15487   0.439   5.669   3.036 -0.4697 -0.8938 -0.2806
 1107ANI     CH15488   0.539   5.574   3.065 -0.0065 -0.3489 -0.0903
 1107ANI     CH15489   0.527   5.494   3.179 -0.4662 -0.2603 -0.0732
 1107ANI     CH15490   0.404   5.484   3.245 -0.3014 -0.0561  0.2659
 1107ANI     NH15491   0.180   5.571   3.275 -0.0265  0.7926 -0.0615
 1107ANI     HC15492   0.238   5.725   3.076 -0.7671 -1.0454 -2.0453
 1107ANI     HC15493   0.455   5.742   2.958 -1.2505  0.7639  1.1033
 1107ANI     HC15494   0.628   5.574   3.003 -1.1732  1.8548 -1.8732
 1107ANI     HC15495   0.604   5.424   3.209  2.6006  3.0709  0.0824
 1107ANI     HC15496   0.398   5.416   3.328  3.3288  1.8574  2.2272
 1107ANI     HN15497   0.148   5.476   3.286  0.1786  0.7733  0.3918
 1107ANI     HN15498   0.119   5.628   3.220 -1.6758  0.3194  1.2371
 1108ANI     CN15499   4.609   1.428   3.792  0.3913 -0.0969  0.1853
 1108ANI     CH15500   4.491   1.355   3.812  0.0065  0.3036 -0.6070
 1108ANI     CH15501   4.375   1.427   3.846 -0.2515 -0.1594 -0.5056
 1108ANI     CH15502   4.375   1.567   3.852  0.1791 -0.1838  0.0955
 1108ANI     CH15503   4.491   1.635   3.816 -0.0934 -0.2379 -0.8860
 1108ANI     CH15504   4.611   1.568   3.791  0.1725 -0.0947 -0.0173
 1108ANI     NH15505   4.724   1.362   3.773  0.5339  0.2604 -0.1945
 1108ANI     HC15506   4.487   1.247   3.807  0.7839  0.2369  0.2239
 1108ANI     HC15507   4.288   1.367   3.867  0.4857  0.2523  4.2722
 1108ANI     HC15508   4.293   1.634   3.872  0.2010 -0.3214  0.6569
 1108ANI     HC15509   4.495   1.743   3.817  1.4229 -0.2875 -0.7903
 1108ANI     HC15510   4.702   1.623   3.774  0.6157 -0.7323  0.2485
 1108ANI     HN15511   4.791   1.419   3.822 -0.6469  0.7988  0.8232
 1108ANI     HN15512   4.724   1.283   3.836 -1.6664 -1.4616 -2.2863
 1109ANI     CN15513   1.200   4.687   5.852  0.1537 -0.1280  0.2692
 1109ANI     CH15514   1.083   4.639   5.792  0.5527 -0.4005 -0.2865
 1109ANI     CH15515   1.078   4.631   5.652  0.1390 -0.6523 -0.2567
 1109ANI     CH15516   1.179   4.683   5.570 -0.3010  0.4772 -0.0917
 1109ANI     CH15517   1.294   4.732   5.633 -0.0052 -0.2037 -0.0979
 1109ANI     CH15518   1.305   4.733   5.772 -0.3612  0.4656 -0.0722
 1109ANI     NH15519   1.218   4.691   5.985 -0.4424  1.3501  0.3102
 1109ANI     HC15520   1.006   4.606   5.859  0.4825 -0.1502 -0.2430
 1109ANI     HC15521   0.994   4.579   5.608  0.8992  0.4181 -3.1152
 1109ANI     HC15522   1.183   4.666   5.464  2.3792 -1.3187  0.2503
 1109ANI     HC15523   1.377   4.758   5.569  1.3419  1.1113  2.1190
 1109ANI     HC15524   1.396   4.770   5.817 -0.8179  0.4897  0.8469
 1109ANI     HN15525   1.205   4.788   6.013  1.8986  1.7968 -0.0437
 1109ANI     HN15526   1.150   4.636   6.035 -2.3004  1.5411 -1.9266
 1110ANI     CN15527   2.135   5.022   3.113  0.1021  0.4261  0.0525
 1110ANI     CH15528   2.072   4.897   3.126  0.1084  0.4117 -0.0567
 1110ANI     CH15529   2.022   4.832   3.013  0.8046 -0.2973  0.0446
 1110ANI     CH15530   2.040   4.892   2.888  0.4233  0.1904  0.2266
 1110ANI     CH15531   2.095   5.020   2.874 -0.4663  0.5200 -0.3625
 1110ANI     CH15532   2.137   5.088   2.990 -0.2319  0.0390 -0.1615
 1110ANI     NH15533   2.184   5.085   3.220 -0.0423  0.2521  0.2220
 1110ANI     HC15534   2.065   4.849   3.222  1.1520 -0.9402 -0.6441
 1110ANI     HC15535   1.970   4.737   3.020 -0.8199  0.6347  0.9130
 1110ANI     HC15536   1.996   4.846   2.801  0.5257  1.8503 -0.7137
 1110ANI     HC15537   2.083   5.072   2.781 -1.1075  0.7719 -0.1409
 1110ANI     HC15538   2.170   5.190   2.976  0.1944 -0.0859 -0.0568
 1110ANI     HN15539   2.175   5.025   3.301  1.4016  1.6943  1.5083
 1110ANI     HN15540   2.147   5.177   3.238  0.2226  0.2954  0.5553
 1111ANI     CN15541   1.503   1.856   6.174  0.3955 -0.0979  0.0749
 1111ANI     CH15542   1.458   1.744   6.244 -0.4031  0.0606 -0.1858
 1111ANI     CH15543   1.327   1.736   6.293 -0.3236 -0.3586 -0.0421
 1111ANI     CH15544   1.241   1.846   6.286 -0.0331 -0.1260  0.0603
 1111ANI     CH15545   1.286   1.960   6.218  0.2198  0.0622  0.5412
 1111ANI     CH15546   1.414   1.964   6.163  0.1392 -0.2826  0.3309
 1111ANI     NH15547   1.629   1.863   6.128  0.1788  0.5384 -0.4429
 1111ANI     HC15548   1.522   1.657   6.253  0.1072  0.1993 -2.1983
 1111ANI     HC15549   1.295   1.645   6.342 -3.3069  1.1945  1.0401
 1111ANI     HC15550   1.138   1.840   6.317 -0.6063 -1.8875 -2.0422
 1111ANI     HC15551   1.214   2.040   6.209 -0.3318 -0.0585  3.2870
 1111ANI     HC15552   1.432   2.055   6.107  1.1934 -0.7201 -0.0661
 1111ANI     HN15553   1.650   1.957   6.098 -0.5148  0.6047 -0.7178
 1111ANI     HN15554   1.635   1.803   6.047  0.4402  2.1306 -1.6070
 1112ANI     CN15555   2.486   5.547   3.687 -0.4321 -0.2795 -0.4865
 1112ANI     CH15556   2.601   5.525   3.611 -0.0948  0.5612 -0.2257
 1112ANI     CH15557   2.648   5.395   3.587 -0.7539  0.1761  0.5538
 1112ANI     CH15558   2.583   5.283   3.640 -0.4089 -0.4497 -0.3281
 1112ANI     CH15559   2.470   5.306   3.721 -0.1348  0.2794 -0.1471
 1112ANI     CH15560   2.425   5.436   3.747  0.1644  0.1644  0.9766
 1112ANI     NH15561   2.433   5.667   3.715  0.3318 -0.0847  0.1503
 1112ANI     HC15562   2.642   5.615   3.566  2.1191  0.2113  1.0213
 1112ANI     HC15563   2.733   5.384   3.522 -2.3119 -2.5388 -1.1021
 1112ANI     HC15564   2.626   5.187   3.619  0.6045  0.0759 -0.6812
 1112ANI     HC15565   2.417   5.226   3.771  1.0104  0.1643  0.9146
 1112ANI     HC15566   2.341   5.442   3.814 -0.2622  0.7408  0.3953
 1112ANI     HN15567   2.391   5.664   3.807 -2.8274 -1.1591 -1.2452
 1112ANI     HN15568   2.507   5.736   3.719 -0.1021  0.3869  0.0992
 1113ANI     CN15569   2.527   0.712   5.163 -0.1185  0.0965 -0.6794
 1113ANI     CH15570   2.400   0.753   5.121 -0.2966  0.4713  0.2056
 1113ANI     CH15571   2.289   0.670   5.134 -0.1284  0.2360  0.1445
 1113ANI     CH15572   2.307   0.542   5.188  0.2086  0.5154  0.7049
 1113ANI     CH15573   2.437   0.496   5.216  0.1593 -0.0181  0.0896
 1113ANI     CH15574   2.548   0.580   5.205 -0.0405  0.1788 -0.4594
 1113ANI     NH15575   2.633   0.793   5.157 -0.1003  0.1166 -0.0977
 1113ANI     HC15576   2.380   0.854   5.086 -1.1747  0.1258 -0.3101
 1113ANI     HC15577   2.196   0.707   5.094 -0.8537 -0.2773  1.3111
 1113ANI     HC15578   2.222   0.475   5.193  0.9702 -0.4202  1.3651
 1113ANI     HC15579   2.445   0.392   5.244  0.9494 -0.2855 -1.1066
 1113ANI     HC15580   2.644   0.535   5.227 -0.8194  0.0249  3.0013
 1113ANI     HN15581   2.625   0.834   5.065 -3.0523  0.4805  0.2700
 1113ANI     HN15582   2.725   0.752   5.147 -0.3285 -0.7403  1.1892
 1114ANI     CN15583   3.351   5.682   2.888  0.2206 -0.1086 -0.0267
 1114ANI     CH15584   3.266   5.667   2.778 -0.2936  0.2530  0.3201
 1114ANI     CH15585   3.272   5.764   2.677 -0.5659  0.3732  0.4180
 1114ANI     CH15586   3.366   5.868   2.679 -0.1100 -0.0266 -0.2140
 1114ANI     CH15587   3.456   5.880   2.786 -0.4189  0.0271  0.0396
 1114ANI     CH15588   3.433   5.796   2.896  0.1174 -0.0454  0.1011
 1114ANI     NH15589   3.333   5.602   2.993 -0.1246 -0.2557 -0.1986
 1114ANI     HC15590   3.191   5.590   2.775 -1.2569  1.1156  1.7600
 1114ANI     HC15591   3.202   5.763   2.594 -0.3502 -0.1542  0.2433
 1114ANI     HC15592   3.382   5.929   2.592  0.9268 -2.1765 -1.5746
 1114ANI     HC15593   3.532   5.956   2.795 -0.5955  0.3497 -1.1599
 1114ANI     HC15594   3.497   5.809   2.982  0.2791 -2.0228  0.2959
 1114ANI     HN15595   3.374   5.637   3.079  2.2329  0.0901 -1.4145
 1114ANI     HN15596   3.241   5.564   3.010 -0.2697 -0.5130 -1.4779
 1115ANI     CN15597   3.253   1.456   2.771  0.3733  0.9941 -0.1118
 1115ANI     CH15598   3.369   1.383   2.800 -0.4435 -0.2062  0.1678
 1115ANI     CH15599   3.398   1.343   2.931  0.5171 -0.3077 -0.0723
 1115ANI     CH15600   3.315   1.391   3.033 -0.1727 -1.2731 -0.1812
 1115ANI     CH15601   3.209   1.479   3.007  0.2626 -0.6775  0.0696
 1115ANI     CH15602   3.175   1.508   2.874 -0.0813 -0.3523  0.2282
 1115ANI     NH15603   3.227   1.487   2.643  0.2907  0.3987 -0.2399
 1115ANI     HC15604   3.424   1.353   2.712 -0.2037  0.2276  0.1673
 1115ANI     HC15605   3.475   1.268   2.943  1.7558  0.6468 -1.8951
 1115ANI     HC15606   3.343   1.374   3.136 -0.2345 -0.6454 -0.0601
 1115ANI     HC15607   3.141   1.516   3.083 -1.2750 -0.9809 -1.1373
 1115ANI     HC15608   3.089   1.565   2.842  1.2491  1.6830  0.1586
 1115ANI     HN15609   3.230   1.585   2.619  0.7039  0.4411 -0.0168
 1115ANI     HN15610   3.291   1.448   2.575  0.1747 -0.0661 -0.0879
 1116ANI     CN15611   4.792   1.614   2.454 -0.3006  0.2157  0.2913
 1116ANI     CH15612   4.887   1.706   2.500  0.0968  0.0837 -0.2689
 1116ANI     CH15613   5.011   1.711   2.434  0.1156 -0.0960 -0.2472
 1116ANI     CH15614   5.042   1.621   2.331  0.5137 -0.1889 -0.0467
 1116ANI     CH15615   4.945   1.531   2.286  0.4204 -0.4305  0.6396
 1116ANI     CH15616   4.818   1.530   2.346  0.3141  0.2214  0.4327
 1116ANI     NH15617   4.678   1.603   2.523 -0.6764 -0.0400 -0.3671
 1116ANI     HC15618   4.866   1.770   2.584  2.6766  1.9029 -0.9345
 1116ANI     HC15619   5.086   1.767   2.487 -0.9698  1.3580 -0.2105
 1116ANI     HC15620   5.141   1.633   2.288  0.7491 -0.6069  0.3797
 1116ANI     HC15621   4.963   1.460   2.207  0.5505  1.2626 -0.8770
 1116ANI     HC15622   4.741   1.459   2.318 -1.8594  1.5369  2.8854
 1116ANI     HN15623   4.690   1.626   2.621 -3.2650  0.5125 -0.1428
 1116ANI     HN15624   4.631   1.514   2.521  1.1060 -0.9726 -1.9587
 1117ANI     CN15625   0.082   2.065   4.357  0.2367  0.1338  0.2827
 1117ANI     CH15626   0.060   2.009   4.231  0.3197 -0.0065  0.3308
 1117ANI     CH15627  -0.072   1.988   4.189  0.3135  0.1809  0.2529
 1117ANI     CH15628  -0.179   2.038   4.264  0.0112  0.1011 -0.1243
 1117ANI     CH15629  -0.159   2.104   4.386  0.4520  0.0569 -0.1744
 1117ANI     CH15630  -0.026   2.118   4.428  0.2837  0.1980  0.3058
 1117ANI     NH15631   0.210   2.084   4.392  0.4755  0.0046 -0.5106
 1117ANI     HC15632   0.141   1.971   4.171  0.2965  0.3278  0.0844
 1117ANI     HC15633  -0.083   1.934   4.096  3.1496  0.6264 -0.3782
 1117ANI     HC15634  -0.280   2.013   4.233  0.3097 -1.0727 -0.1927
 1117ANI     HC15635  -0.239   2.138   4.450  1.9846 -0.0594  1.8605
 1117ANI     HC15636  -0.000   2.159   4.525 -2.8209 -3.3186  2.7645
 1117ANI     HN15637   0.228   2.148   4.468  0.8004 -0.4190 -0.2278
 1117ANI     HN15638   0.275   2.102   4.316 -0.2401  0.6660 -0.9745
 1118ANI     CN15639   0.067   2.413   0.717 -0.5571 -0.0619  0.2870
 1118ANI     CH15640   0.185   2.338   0.723  0.0054  0.8335  0.4839
 1118ANI     CH15641   0.216   2.275   0.845  0.2462  0.1044  0.0506
 1118ANI     CH15642   0.149   2.303   0.964  0.1133  0.3248 -0.0754
 1118ANI     CH15643   0.036   2.386   0.957 -0.0138  0.1884  0.3390
 1118ANI     CH15644  -0.009   2.433   0.833 -0.5714 -0.3595  0.3294
 1118ANI     NH15645   0.021   2.463   0.601  0.5434 -0.2856 -0.2525
 1118ANI     HC15646   0.232   2.308   0.631  0.6451  0.5424  0.8994
 1118ANI     HC15647   0.298   2.206   0.857 -1.6327 -1.8538  1.7352
 1118ANI     HC15648   0.179   2.276   1.065  0.2708  0.0554 -0.1946
 1118ANI     HC15649  -0.025   2.385   1.046  2.3572  0.8629  2.0107
 1118ANI     HC15650  -0.108   2.475   0.826 -0.3969 -0.0183 -0.0766
 1118ANI     HN15651  -0.072   2.443   0.567 -0.1218  2.3849 -0.1116
 1118ANI     HN15652   0.081   2.422   0.531 -0.2741 -1.6461 -0.1945
 1119ANI     CN15653   1.750   1.896   0.264 -0.0873  0.3451 -0.0707
 1119ANI     CH15654   1.617   1.908   0.306 -0.1727 -0.4634 -0.1022
 1119ANI     CH15655   1.602   1.957   0.436  0.0267  0.2720 -0.3535
 1119ANI     CH15656   1.708   2.006   0.512  0.1757  0.3771 -0.6303
 1119ANI     CH15657   1.839   1.990   0.464  0.2610  0.4011 -0.4105
 1119ANI     CH15658   1.862   1.944   0.334  0.1836  0.0519 -0.3003
 1119ANI     NH15659   1.774   1.832   0.149  0.3415  0.6853 -0.1704
 1119ANI     HC15660   1.537   1.870   0.244 -0.2309 -0.2545 -0.1570
 1119ANI     HC15661   1.504   1.961   0.482 -0.1287  1.1037 -0.7571
 1119ANI     HC15662   1.688   2.052   0.608 -2.0283 -0.9411 -0.4476
 1119ANI     HC15663   1.915   2.037   0.524  0.9880  1.4448 -2.1065
 1119ANI     HC15664   1.965   1.951   0.304  0.9348  2.7747  2.7201
 1119ANI     HN15665   1.864   1.862   0.113 -0.0753  1.5381 -0.5047
 1119ANI     HN15666   1.702   1.835   0.079 -1.3848  1.2443  1.5862
 1120ANI     CN15667   6.195   6.113   2.826  0.1397  0.0373 -0.0269
 1120ANI     CH15668   6.252   6.183   2.933 -0.2765 -0.0738  0.2709
 1120ANI     CH15669   6.186   6.206   3.054  0.1479  1.0390  0.3007
 1120ANI     CH15670   6.049   6.179   3.061  0.3143 -0.0232 -0.4693
 1120ANI     CH15671   5.986   6.116   2.952 -0.2683 -0.4158  0.0894
 1120ANI     CH15672   6.060   6.079   2.840  0.2752 -0.3207  0.4132
 1120ANI     NH15673   6.271   6.066   2.726  0.0822 -0.2571  0.0690
 1120ANI     HC15674   6.357   6.207   2.922 -0.1899 -0.6145 -0.0770
 1120ANI     HC15675   6.237   6.240   3.143  1.7268 -1.4201  0.3712
 1120ANI     HC15676   5.992   6.208   3.148 -0.3839 -1.6578 -0.3560
 1120ANI     HC15677   5.882   6.091   2.965 -0.5802  0.8201  0.0348
 1120ANI     HC15678   6.001   6.033   2.761 -0.6389  1.2680  0.1491
 1120ANI     HN15679   6.364   6.034   2.749  0.2826 -1.2913 -2.0391
 1120ANI     HN15680   6.234   5.986   2.677  0.7097 -1.1488  1.0153
 1121ANI     CN15681   3.240   1.064   2.570 -0.0532  0.2258 -0.0141
 1121ANI     CH15682   3.176   1.115   2.456 -0.0082  0.4429  0.0567
 1121ANI     CH15683   3.221   1.077   2.328 -0.0487 -0.2264  0.2364
 1121ANI     CH15684   3.328   0.987   2.319 -0.0431 -0.1429 -0.5235
 1121ANI     CH15685   3.396   0.938   2.431 -0.4752  0.8442  0.1774
 1121ANI     CH15686   3.346   0.975   2.557 -0.0171  0.1849  0.5513
 1121ANI     NH15687   3.201   1.102   2.692  0.6762  0.1634  0.2341
 1121ANI     HC15688   3.083   1.169   2.463  0.0670  0.4053  1.3636
 1121ANI     HC15689   3.171   1.114   2.240 -1.2471 -0.0697  0.9713
 1121ANI     HC15690   3.354   0.969   2.216  0.9019  1.9897 -0.6937
 1121ANI     HC15691   3.475   0.865   2.424 -2.0823 -1.0724  1.5420
 1121ANI     HC15692   3.394   0.933   2.644  1.0285  0.7192  0.2383
 1121ANI     HN15693   3.145   1.185   2.680 -1.7204 -1.2410  1.2901
 1121ANI     HN15694   3.279   1.126   2.752  0.4594 -1.0727  1.0339
 1122ANI     CN15695   3.301   5.018   4.304  0.1439 -0.2975 -0.1512
 1122ANI     CH15696   3.301   4.946   4.424  0.4417 -0.0949 -0.0298
 1122ANI     CH15697   3.376   4.992   4.533  0.2804  0.0064  0.0376
 1122ANI     CH15698   3.443   5.114   4.522  0.3143 -0.0238 -0.0917
 1122ANI     CH15699   3.444   5.188   4.403 -0.7277  0.1897  0.0235
 1122ANI     CH15700   3.368   5.140   4.296 -0.0436 -0.2021 -0.2923
 1122ANI     NH15701   3.240   4.969   4.195 -0.2519 -0.4911  0.1592
 1122ANI     HC15702   3.245   4.855   4.436 -0.5308  0.3956 -0.7591
 1122ANI     HC15703   3.370   4.933   4.623  0.4863 -0.6411 -0.3700
 1122ANI     HC15704   3.502   5.151   4.605 -0.9456 -0.7962  1.1855
 1122ANI     HC15705   3.512   5.272   4.401 -0.7446  0.1929 -0.3223
 1122ANI     HC15706   3.376   5.197   4.204 -0.5573 -0.9197 -0.7820
 1122ANI     HN15707   3.233   4.868   4.187 -1.4367 -0.2720 -2.0406
 1122ANI     HN15708   3.276   5.006   4.108 -0.6084  2.8144  1.3422
 1123ANI     CN15709   5.207   2.382   5.228 -0.2874 -0.3682  0.4060
 1123ANI     CH15710   5.257   2.266   5.169  0.6718  0.3732 -0.2459
 1123ANI     CH15711   5.394   2.251   5.144  0.5832 -0.0448 -0.4729
 1123ANI     CH15712   5.481   2.347   5.196  0.2593 -0.0907  0.1530
 1123ANI     CH15713   5.433   2.466   5.252 -0.0812 -0.4954  0.7279
 1123ANI     CH15714   5.295   2.483   5.270 -0.1471 -0.3725  0.1181
 1123ANI     NH15715   5.073   2.390   5.237 -0.3467 -0.3521 -0.4654
 1123ANI     HC15716   5.196   2.189   5.124  0.7800  0.0049  0.2291
 1123ANI     HC15717   5.435   2.170   5.084  0.5329  1.0901 -2.0797
 1123ANI     HC15718   5.588   2.334   5.188  0.5121  1.8425  0.1647
 1123ANI     HC15719   5.506   2.543   5.272  1.9350 -1.4466 -2.5026
 1123ANI     HC15720   5.249   2.567   5.319  0.6746  0.1643 -0.0281
 1123ANI     HN15721   5.032   2.468   5.286  0.2166 -1.2950  1.5642
 1123ANI     HN15722   5.029   2.305   5.270 -1.0972  0.0072 -0.5494
 1124ANI     CN15723   6.094   1.406   0.112 -0.1935 -0.0295 -0.1743
 1124ANI     CH15724   5.967   1.375   0.163 -0.1766  0.3492  0.0992
 1124ANI     CH15725   5.862   1.344   0.076 -0.2392  0.1741  0.2378
 1124ANI     CH15726   5.883   1.345  -0.063  0.6559  0.7442  0.3712
 1124ANI     CH15727   6.010   1.376  -0.113  0.3750  0.3517 -0.5822
 1124ANI     CH15728   6.116   1.403  -0.026  0.2610 -0.7459 -0.0918
 1124ANI     NH15729   6.197   1.451   0.184 -0.3143 -0.1800  0.0925
 1124ANI     HC15730   5.943   1.368   0.268 -0.7644 -1.3869 -0.1397
 1124ANI     HC15731   5.765   1.318   0.116 -0.3724  0.3931  0.0600
 1124ANI     HC15732   5.803   1.322  -0.132  1.2080  1.8114 -0.6428
 1124ANI     HC15733   6.022   1.369  -0.220 -2.9710 -1.9751 -0.8938
 1124ANI     HC15734   6.213   1.432  -0.063  0.2918 -1.4431 -0.5616
 1124ANI     HN15735   6.199   1.414   0.278  0.1713  1.9918  0.9633
 1124ANI     HN15736   6.282   1.424   0.137  0.5715  1.8657  0.4381
 1125ANI     CN15737   5.542   4.132   6.084 -0.0498  0.2601 -0.0035
 1125ANI     CH15738   5.495   4.136   5.952  0.3862 -0.4689 -0.1827
 1125ANI     CH15739   5.441   4.256   5.902  0.4504 -0.3349  0.0676
 1125ANI     CH15740   5.441   4.374   5.977  0.1245 -0.3684  0.1182
 1125ANI     CH15741   5.496   4.370   6.106  0.3457  0.2697  0.0460
 1125ANI     CH15742   5.538   4.248   6.162  0.1765  0.2213  0.0679
 1125ANI     NH15743   5.572   4.018   6.146  0.1202  0.0226 -0.5205
 1125ANI     HC15744   5.495   4.045   5.894 -0.2471 -0.7458  0.2415
 1125ANI     HC15745   5.399   4.257   5.803  2.2231 -1.2799 -0.7304
 1125ANI     HC15746   5.404   4.459   5.923 -1.8841  0.7227  3.1061
 1125ANI     HC15747   5.513   4.461   6.162  2.6765 -1.0078  1.5061
 1125ANI     HC15748   5.575   4.259   6.263  1.8838  1.5636 -0.6706
 1125ANI     HN15749   5.617   4.033   6.235 -0.1925  0.6978 -0.4724
 1125ANI     HN15750   5.629   3.944   6.107  0.6306 -0.0667  0.3770
 1126ANI     CN15751   4.135   1.481   0.459 -0.1506 -0.1572 -0.0575
 1126ANI     CH15752   4.183   1.451   0.331  0.2265  0.4697 -0.0648
 1126ANI     CH15753   4.235   1.325   0.301 -0.0358  0.3066  0.1679
 1126ANI     CH15754   4.252   1.236   0.409  0.4232  0.0860 -0.0823
 1126ANI     CH15755   4.219   1.269   0.541  0.4085 -0.0175 -0.0600
 1126ANI     CH15756   4.150   1.389   0.563  0.2905 -0.0865 -0.0575
 1126ANI     NH15757   4.077   1.599   0.485 -0.2560 -0.1952 -0.1177
 1126ANI     HC15758   4.165   1.522   0.251 -0.1519  1.8554  1.2226
 1126ANI     HC15759   4.273   1.305   0.202 -1.0108 -0.0415 -0.1390
 1126ANI     HC15760   4.304   1.144   0.389 -0.2769 -0.1462 -0.9103
 1126ANI     HC15761   4.234   1.201   0.624 -0.8839 -1.4476 -0.9697
 1126ANI     HC15762   4.108   1.408   0.661  0.5449 -3.8829  0.8748
 1126ANI     HN15763   4.112   1.667   0.419 -1.7015 -1.5955 -2.3743
 1126ANI     HN15764   4.088   1.632   0.580 -0.0679 -2.4508  0.6667
 1127ANI     CN15765   0.923   5.301   2.215 -0.1704 -0.0458  0.2198
 1127ANI     CH15766   0.970   5.201   2.302  0.0584  0.2629  0.4486
 1127ANI     CH15767   0.887   5.151   2.404 -0.3570 -0.0407 -0.0363
 1127ANI     CH15768   0.762   5.207   2.430 -0.1209  0.6229 -0.2995
 1127ANI     CH15769   0.719   5.308   2.343 -0.1150  0.5942 -0.3348
 1127ANI     CH15770   0.797   5.357   2.237 -0.1210  0.3317 -0.4613
 1127ANI     NH15771   1.005   5.359   2.127  0.0197  0.1941  0.5525
 1127ANI     HC15772   1.070   5.163   2.292  0.1234  1.4551 -5.2244
 1127ANI     HC15773   0.920   5.072   2.469 -0.6948 -0.1720 -0.0275
 1127ANI     HC15774   0.703   5.172   2.514  1.2748  1.3480  0.9991
 1127ANI     HC15775   0.620   5.349   2.345 -0.5337 -0.3886 -0.6987
 1127ANI     HC15776   0.766   5.446   2.184 -1.8221 -0.7633 -1.3525
 1127ANI     HN15777   1.101   5.362   2.159  0.3559  0.2151 -0.4241
 1127ANI     HN15778   0.978   5.447   2.086  1.2118 -0.1731 -1.1140
 1128ANI     CN15779   0.468   4.597   2.262 -0.3661 -0.3324 -0.1006
 1128ANI     CH15780   0.508   4.638   2.134  0.2407 -0.2551  0.1154
 1128ANI     CH15781   0.586   4.559   2.049  0.2445 -0.0102 -0.1071
 1128ANI     CH15782   0.639   4.441   2.103 -0.0618 -0.0047  0.2069
 1128ANI     CH15783   0.598   4.397   2.229  0.0728 -0.1914  0.1842
 1128ANI     CH15784   0.515   4.475   2.311 -0.2206 -0.2561 -0.0514
 1128ANI     NH15785   0.391   4.672   2.342 -0.0381  0.2465 -0.3228
 1128ANI     HC15786   0.457   4.721   2.087  1.4818 -0.1117 -1.0045
 1128ANI     HC15787   0.605   4.575   1.944 -0.6106 -0.4570 -0.3277
 1128ANI     HC15788   0.715   4.391   2.044  1.4996  0.5135  1.7542
 1128ANI     HC15789   0.638   4.301   2.261 -0.7509 -1.6102 -2.8773
 1128ANI     HC15790   0.491   4.454   2.414  1.2941  0.6789  0.5206
 1128ANI     HN15791   0.379   4.652   2.440  0.0399 -0.2165 -0.4062
 1128ANI     HN15792   0.348   4.756   2.306 -1.8422 -0.9203 -0.9840
 1129ANI     CN15793   3.148   4.154   0.390  0.1645 -0.0967  0.5569
 1129ANI     CH15794   3.117   4.029   0.334  0.1241  0.0686  0.2165
 1129ANI     CH15795   3.158   3.913   0.400 -0.0902 -0.4426 -0.5467
 1129ANI     CH15796   3.234   3.919   0.517 -0.9084  0.2657 -0.0551
 1129ANI     CH15797   3.269   4.044   0.569  0.1305  0.0151 -0.1607
 1129ANI     CH15798   3.229   4.161   0.505  0.5027  0.3942  0.2865
 1129ANI     NH15799   3.117   4.270   0.331 -0.6012 -0.1482  0.8472
 1129ANI     HC15800   3.048   4.022   0.251 -0.0957 -0.8585  0.4825
 1129ANI     HC15801   3.136   3.815   0.360  1.3377 -0.5675 -1.0761
 1129ANI     HC15802   3.281   3.838   0.571  1.8526  1.5112 -0.5404
 1129ANI     HC15803   3.337   4.051   0.654 -0.6774  1.0901  0.4136
 1129ANI     HC15804   3.256   4.258   0.545  0.0277 -0.1557  1.9426
 1129ANI     HN15805   3.021   4.276   0.300  0.6184 -1.1925 -3.4228
 1129ANI     HN15806   3.144   4.352   0.383  2.0072 -0.3055 -0.1568
 1130ANI     CN15807   2.434   1.147   5.776  0.7335 -0.4071 -0.3560
 1130ANI     CH15808   2.467   1.067   5.886  0.1618 -0.1427  0.0047
 1130ANI     CH15809   2.550   1.119   5.986  0.3607 -0.1851 -0.1393
 1130ANI     CH15810   2.596   1.250   5.971  0.2221 -0.1405 -0.1771
 1130ANI     CH15811   2.565   1.331   5.861  0.4373 -0.1033 -0.2127
 1130ANI     CH15812   2.483   1.277   5.761 -0.3097  0.0634  0.3024
 1130ANI     NH15813   2.357   1.097   5.678 -0.2705  0.3311  0.0532
 1130ANI     HC15814   2.420   0.969   5.887  0.9278 -0.5403 -1.9858
 1130ANI     HC15815   2.582   1.068   6.075  4.7325  0.3270 -1.3020
 1130ANI     HC15816   2.667   1.293   6.042 -1.0890 -0.8466  1.5991
 1130ANI     HC15817   2.607   1.431   5.866  1.5482 -0.5856  0.2299
 1130ANI     HC15818   2.460   1.339   5.675  1.3498  0.4485  0.1062
 1130ANI     HN15819   2.302   1.016   5.705  2.1264 -1.6571 -0.8450
 1130ANI     HN15820   2.419   1.062   5.607  0.5717 -2.5659  2.0982
 1131ANI     CN15821   6.230   2.020   0.106  0.2838  0.0794  0.2883
 1131ANI     CH15822   6.253   2.122   0.013  0.0612  0.0987  0.2552
 1131ANI     CH15823   6.328   2.097  -0.102  0.0939 -0.2451  0.3507
 1131ANI     CH15824   6.400   1.977  -0.116  0.4352  0.0035 -0.0529
 1131ANI     CH15825   6.386   1.880  -0.016 -0.3542 -0.1388 -0.2953
 1131ANI     CH15826   6.297   1.898   0.091 -0.4875 -0.2659 -0.3845
 1131ANI     NH15827   6.132   2.029   0.198 -0.0029  0.2081 -0.0299
 1131ANI     HC15828   6.190   2.210   0.020  0.4124  0.3475  0.3230
 1131ANI     HC15829   6.324   2.170  -0.181 -0.3504  0.6676  1.2174
 1131ANI     HC15830   6.452   1.948  -0.206  1.3223  3.8039 -0.8443
 1131ANI     HC15831   6.432   1.784  -0.031  0.0916 -0.1040  0.7833
 1131ANI     HC15832   6.274   1.820   0.162 -1.3371  0.0250 -0.3401
 1131ANI     HN15833   6.102   1.933   0.205  0.5601  0.1877  2.3685
 1131ANI     HN15834   6.054   2.082   0.162 -0.5522 -1.2018 -0.9907
 1132ANI     CN15835   6.137   5.754   2.564 -0.1994 -0.6092  0.2671
 1132ANI     CH15836   6.037   5.846   2.530 -0.5122 -0.9251  0.3284
 1132ANI     CH15837   6.017   5.874   2.395  0.2843  0.4559  0.4904
 1132ANI     CH15838   6.102   5.821   2.297 -0.2033 -0.0243  0.3227
 1132ANI     CH15839   6.198   5.726   2.334 -0.2512 -0.1596  0.0983
 1132ANI     CH15840   6.212   5.686   2.467 -0.0837 -0.1991  0.0692
 1132ANI     NH15841   6.178   5.743   2.691  0.1468 -0.1062  0.1974
 1132ANI     HC15842   5.983   5.909   2.600 -1.1436  0.9214 -1.7549
 1132ANI     HC15843   5.929   5.929   2.364 -1.0214 -0.9886  1.5783
 1132ANI     HC15844   6.081   5.844   2.193 -2.8195  2.0803  1.2703
 1132ANI     HC15845   6.256   5.670   2.262 -0.2968  1.2613 -1.0527
 1132ANI     HC15846   6.273   5.600   2.491 -0.3862 -0.7870 -1.2571
 1132ANI     HN15847   6.240   5.663   2.697  0.8712  0.5716  2.3331
 1132ANI     HN15848   6.099   5.711   2.744  1.2051  0.3978  2.1292
 1133ANI     CN15849   1.984   1.100   2.378  0.4529 -0.5270 -0.2104
 1133ANI     CH15850   1.904   0.987   2.359  0.0999 -0.4653  0.8414
 1133ANI     CH15851   1.927   0.895   2.256  0.0043 -0.1255  0.5160
 1133ANI     CH15852   2.029   0.919   2.164 -0.1495 -0.4770  0.2519
 1133ANI     CH15853   2.092   1.044   2.170 -0.0220 -0.5239 -0.0639
 1133ANI     CH15854   2.075   1.133   2.277  0.1832 -0.1573 -0.3343
 1133ANI     NH15855   1.970   1.177   2.487  0.3944 -0.5654 -0.1905
 1133ANI     HC15856   1.849   0.948   2.443  0.2398 -1.1779  0.6076
 1133ANI     HC15857   1.871   0.802   2.252  0.7704 -0.5242 -1.7725
 1133ANI     HC15858   2.071   0.853   2.089 -1.3770 -1.6375  0.5663
 1133ANI     HC15859   2.159   1.075   2.091  1.0787 -1.2561  0.5762
 1133ANI     HC15860   2.123   1.229   2.280  0.8646 -0.5033 -0.1066
 1133ANI     HN15861   1.973   1.278   2.479 -2.1279 -0.7758 -5.0825
 1133ANI     HN15862   1.895   1.146   2.548 -1.2669  2.9491 -0.3406
 1134ANI     CN15863   5.641   1.031   3.454 -0.5610  0.5856  0.6087
 1134ANI     CH15864   5.663   1.007   3.318  0.0862 -0.1473  0.8354
 1134ANI     CH15865   5.604   0.893   3.263  0.1879  0.0874  0.2414
 1134ANI     CH15866   5.516   0.813   3.337  0.2383  0.2204  0.4422
 1134ANI     CH15867   5.485   0.848   3.469  0.0705 -0.2070  0.5139
 1134ANI     CH15868   5.554   0.952   3.531  0.0655 -0.2061  0.5173
 1134ANI     NH15869   5.707   1.135   3.508  0.4727  0.0998  0.3078
 1134ANI     HC15870   5.726   1.076   3.265  0.4432 -2.0110 -1.2077
 1134ANI     HC15871   5.623   0.871   3.158 -1.4929 -0.8484  0.1221
 1134ANI     HC15872   5.478   0.728   3.283  2.4608  0.8421 -2.2644
 1134ANI     HC15873   5.422   0.776   3.520  0.8279 -2.2290 -1.3335
 1134ANI     HC15874   5.532   0.957   3.637 -0.7763 -2.9294  0.5065
 1134ANI     HN15875   5.687   1.151   3.606 -0.7999 -1.1879  0.2929
 1134ANI     HN15876   5.712   1.219   3.453  0.6661  0.3756  0.7474
 1135ANI     CN15877   6.035   4.714   3.605  0.4530 -0.2354  0.0536
 1135ANI     CH15878   6.019   4.740   3.742  0.2303  0.2897 -0.0732
 1135ANI     CH15879   6.112   4.816   3.814  0.0826  0.3386  0.0653
 1135ANI     CH15880   6.218   4.876   3.744  0.7780 -0.3253  0.5514
 1135ANI     CH15881   6.230   4.854   3.606 -0.2852 -0.1677  0.4333
 1135ANI     CH15882   6.142   4.770   3.535  0.0517  0.0969 -0.2967
 1135ANI     NH15883   5.938   4.646   3.543  0.4384 -0.2207  0.0621
 1135ANI     HC15884   5.937   4.686   3.785 -0.0116 -0.8272 -1.8747
 1135ANI     HC15885   6.102   4.836   3.920 -1.7197  3.1123 -0.5810
 1135ANI     HC15886   6.286   4.944   3.794 -0.8965  3.4854 -2.1328
 1135ANI     HC15887   6.312   4.901   3.555 -0.0471 -1.1326 -0.0919
 1135ANI     HC15888   6.150   4.756   3.429  1.2808 -2.3242  0.0727
 1135ANI     HN15889   5.977   4.585   3.473  2.1637  0.8285  0.0921
 1135ANI     HN15890   5.883   4.581   3.597 -1.9893  0.5068 -1.4478
 1136ANI     CN15891   4.653   0.473   5.005  0.0523  0.1806 -0.0574
 1136ANI     CH15892   4.663   0.609   4.972 -0.2694  0.1883 -0.1242
 1136ANI     CH15893   4.564   0.668   4.893 -0.4950  0.0363  0.0450
 1136ANI     CH15894   4.451   0.595   4.854 -0.6575  0.4830 -0.3279
 1136ANI     CH15895   4.439   0.460   4.890  0.1552  0.3010 -0.7226
 1136ANI     CH15896   4.544   0.398   4.958 -0.3443  0.5434  0.2825
 1136ANI     NH15897   4.750   0.403   5.065 -0.3282 -0.4856 -0.2124
 1136ANI     HC15898   4.748   0.668   5.000 -0.7190  0.3108  1.0425
 1136ANI     HC15899   4.571   0.774   4.875 -0.7327 -0.0656 -0.6671
 1136ANI     HC15900   4.372   0.646   4.801 -2.1797  0.7201  2.0734
 1136ANI     HC15901   4.350   0.408   4.857  1.3607 -0.4471 -2.8708
 1136ANI     HC15902   4.547   0.295   4.989  1.0341  0.4624 -0.0837
 1136ANI     HN15903   4.762   0.308   5.032 -0.6691 -0.2823 -0.9323
 1136ANI     HN15904   4.837   0.452   5.074 -0.1545 -0.6331 -1.0179
 1137ANI     CN15905   3.496   3.600   5.211  0.0336  0.4993  0.1018
 1137ANI     CH15906   3.500   3.556   5.078  0.2303 -0.3354  0.3825
 1137ANI     CH15907   3.607   3.593   4.995  0.1268 -0.7634  0.0565
 1137ANI     CH15908   3.712   3.667   5.050 -0.1356 -0.3144 -0.0419
 1137ANI     CH15909   3.705   3.712   5.182 -0.3590 -0.0971 -0.1268
 1137ANI     CH15910   3.600   3.674   5.267 -0.1026  0.4394  0.4326
 1137ANI     NH15911   3.407   3.555   5.301 -0.1054  0.4754 -0.0469
 1137ANI     HC15912   3.409   3.513   5.038 -0.5823  1.8774 -0.2302
 1137ANI     HC15913   3.605   3.582   4.888  2.5941 -0.1759 -0.0618
 1137ANI     HC15914   3.795   3.695   4.987 -0.8823  2.2131  0.0685
 1137ANI     HC15915   3.786   3.776   5.213  0.2518 -1.0525  0.2717
 1137ANI     HC15916   3.606   3.709   5.369  0.8705  1.0739  0.1644
 1137ANI     HN15917   3.379   3.460   5.283  0.4115  0.1959  0.6170
 1137ANI     HN15918   3.427   3.563   5.399  2.8738  0.3315 -0.5776
 1138ANI     CN15919   0.216   2.642   5.950 -0.9268  0.1539 -0.0301
 1138ANI     CH15920   0.281   2.571   5.849  0.0514  0.1142  0.6208
 1138ANI     CH15921   0.295   2.433   5.869  0.4227  0.0399 -0.0997
 1138ANI     CH15922   0.243   2.365   5.980  0.0595  0.5215  0.0287
 1138ANI     CH15923   0.182   2.440   6.081  0.1016  0.1889  0.3050
 1138ANI     CH15924   0.166   2.579   6.065 -0.0231  0.1840  0.3811
 1138ANI     NH15925   0.200   2.775   5.942  0.3789  0.3033 -0.2711
 1138ANI     HC15926   0.321   2.604   5.754 -3.6892 -2.3489 -1.9403
 1138ANI     HC15927   0.339   2.375   5.790  0.1090 -1.3056  0.7066
 1138ANI     HC15928   0.253   2.260   6.002 -1.0192 -0.3086 -3.0926
 1138ANI     HC15929   0.146   2.394   6.171 -1.7798  1.9251  0.4827
 1138ANI     HC15930   0.117   2.639   6.139 -0.4405  1.0061 -0.5560
 1138ANI     HN15931   0.126   2.815   5.998  0.8954 -0.8270  1.2585
 1138ANI     HN15932   0.204   2.813   5.848  0.8430  1.3220  0.1608
 1139ANI     CN15933   5.351   1.854   0.642  0.1302 -0.5416  0.4388
 1139ANI     CH15934   5.469   1.917   0.600 -0.4048 -0.0649 -0.3736
 1139ANI     CH15935   5.574   1.847   0.540 -0.1768 -0.5541  0.5782
 1139ANI     CH15936   5.548   1.720   0.486 -0.0716 -0.1005 -0.5579
 1139ANI     CH15937   5.424   1.660   0.512 -0.0542  0.1041  0.0099
 1139ANI     CH15938   5.330   1.725   0.592 -0.3306 -0.3086  0.0186
 1139ANI     NH15939   5.261   1.928   0.708  0.4243  0.0712  0.1553
 1139ANI     HC15940   5.488   2.021   0.624 -0.3026 -0.5172  1.6170
 1139ANI     HC15941   5.662   1.905   0.520  1.2512 -2.5929  0.8055
 1139ANI     HC15942   5.624   1.685   0.418 -1.3723 -1.7593 -1.1892
 1139ANI     HC15943   5.408   1.567   0.459  2.6471 -0.7454  0.5546
 1139ANI     HC15944   5.228   1.693   0.610 -0.1014 -0.2554  1.5485
 1139ANI     HN15945   5.163   1.913   0.689  0.0104  0.6882  1.7457
 1139ANI     HN15946   5.278   2.025   0.686 -0.6772  0.1939 -0.1733
 1140ANI     CN15947   4.891   0.622   6.168 -0.5389  0.3443  0.7546
 1140ANI     CH15948   5.011   0.676   6.215 -0.1456 -0.0562  0.2193
 1140ANI     CH15949   5.098   0.599   6.293 -0.2187 -0.2798  0.0795
 1140ANI     CH15950   5.069   0.466   6.323 -0.2290 -0.4248 -0.5693
 1140ANI     CH15951   4.946   0.411   6.284 -0.1965 -0.3525 -0.7699
 1140ANI     CH15952   4.865   0.488   6.199 -0.3153  0.0494 -0.2934
 1140ANI     NH15953   4.809   0.691   6.088 -0.0772  0.2650  0.2014
 1140ANI     HC15954   5.027   0.781   6.195 -2.8331 -0.1931 -3.1477
 1140ANI     HC15955   5.179   0.654   6.340 -1.1030  1.5185 -0.4286
 1140ANI     HC15956   5.131   0.414   6.395 -1.0888 -0.6386  0.0215
 1140ANI     HC15957   4.927   0.308   6.306 -2.6353  0.4506  1.0027
 1140ANI     HC15958   4.775   0.445   6.157  0.0207 -0.7759 -0.1695
 1140ANI     HN15959   4.842   0.760   6.022 -0.4678  1.0052  0.7573
 1140ANI     HN15960   4.731   0.640   6.050 -0.6389  0.8078  0.6023
 1141ANI     CN15961   4.324   0.643   6.182 -0.1455  0.1042 -0.0599
 1141ANI     CH15962   4.234   0.612   6.286 -0.2088  0.2842 -0.0606
 1141ANI     CH15963   4.277   0.522   6.384  0.3778  0.7915  0.1540
 1141ANI     CH15964   4.407   0.470   6.389 -0.0060 -0.1658  0.2241
 1141ANI     CH15965   4.495   0.501   6.285 -0.3452 -0.5505 -0.1790
 1141ANI     CH15966   4.449   0.581   6.179 -0.0104  0.3529  0.3464
 1141ANI     NH15967   4.279   0.719   6.082  0.2004  0.5876  0.1504
 1141ANI     HC15968   4.138   0.661   6.296 -1.7039 -2.3012 -1.3644
 1141ANI     HC15969   4.216   0.505   6.471  0.5582 -2.1262 -0.2572
 1141ANI     HC15970   4.444   0.414   6.473 -0.8776  0.0790  0.7861
 1141ANI     HC15971   4.589   0.449   6.288 -0.7565 -1.2224  2.4942
 1141ANI     HC15972   4.515   0.585   6.093 -1.7942 -1.9042 -1.2183
 1141ANI     HN15973   4.354   0.722   6.014 -0.3799  0.3116 -0.5137
 1141ANI     HN15974   4.261   0.814   6.111  0.7909  0.2714  1.5632
 1142ANI     CN15975   3.523   2.891   5.702 -0.4209 -0.3629 -0.4750
 1142ANI     CH15976   3.416   2.980   5.687  0.4021  0.5958 -0.7152
 1142ANI     CH15977   3.297   2.963   5.759  0.8772 -0.3767 -0.1542
 1142ANI     CH15978   3.296   2.860   5.854 -0.5572 -0.4702 -0.2675
 1142ANI     CH15979   3.403   2.773   5.874 -0.0545  0.2314  0.1113
 1142ANI     CH15980   3.513   2.781   5.788 -0.0351  0.0580  0.1201
 1142ANI     NH15981   3.625   2.894   5.614  0.0727  0.0945  0.1030
 1142ANI     HC15982   3.425   3.052   5.607  1.4268  2.6489  1.1947
 1142ANI     HC15983   3.219   3.035   5.742 -0.6048 -1.9501 -0.1213
 1142ANI     HC15984   3.209   2.833   5.912 -0.7288  0.2806 -0.1746
 1142ANI     HC15985   3.400   2.686   5.938  0.5702 -0.4913 -0.8305
 1142ANI     HC15986   3.591   2.707   5.801  1.0078  1.2202  0.5363
 1142ANI     HN15987   3.660   2.800   5.601 -2.7723 -0.8119 -1.5733
 1142ANI     HN15988   3.587   2.925   5.526  1.5486 -2.0701 -1.3387
 1143ANI     CN15989   1.222   4.001   2.892 -0.0997 -0.4233 -0.4216
 1143ANI     CH15990   1.090   4.047   2.899  0.0735  0.0332 -0.1181
 1143ANI     CH15991   1.006   4.017   2.791  0.6932 -0.0228 -0.5879
 1143ANI     CH15992   1.062   3.975   2.669 -0.1902  0.6946 -1.2478
 1143ANI     CH15993   1.197   3.940   2.659 -0.3188 -0.1837 -0.0576
 1143ANI     CH15994   1.276   3.947   2.775  0.1002 -0.4225 -0.3298
 1143ANI     NH15995   1.301   4.011   3.000 -0.4107  0.3008 -0.2591
 1143ANI     HC15996   1.051   4.091   2.989  0.0726  0.1598 -0.1806
 1143ANI     HC15997   0.901   4.041   2.792  0.8418  0.7051 -1.6716
 1143ANI     HC15998   0.991   3.968   2.588 -1.5425 -1.2750  0.0528
 1143ANI     HC15999   1.241   3.893   2.573 -0.2428 -1.5766  0.7343
 1143ANI     HC16000   1.378   3.913   2.782  0.2096  0.3336  2.4065
 1143ANI     HN16001   1.247   3.993   3.084 -0.2028  1.1775  0.0646
 1143ANI     HN16002   1.372   3.939   2.993 -0.8375  0.0891 -2.7464
 1144ANI     CN16003   1.085   0.361   5.402 -0.3633 -0.2175  0.4562
 1144ANI     CH16004   1.112   0.481   5.335 -0.2597 -0.1897  0.5482
 1144ANI     CH16005   1.186   0.580   5.402 -0.3926  0.1226  0.2362
 1144ANI     CH16006   1.230   0.557   5.533  0.7520 -0.0565 -0.1788
 1144ANI     CH16007   1.193   0.443   5.605  0.2822  0.2061 -0.0047
 1144ANI     CH16008   1.121   0.345   5.536  0.1684  0.0398  0.3487
 1144ANI     NH16009   1.039   0.259   5.329  0.0064 -0.0579 -0.0057
 1144ANI     HC16010   1.089   0.498   5.231 -2.6998  0.5157  1.1801
 1144ANI     HC16011   1.227   0.670   5.358  0.6406  0.8056  2.5368
 1144ANI     HC16012   1.290   0.627   5.589 -0.0879  0.9604 -0.5417
 1144ANI     HC16013   1.239   0.419   5.701 -2.0531 -1.4319  0.7345
 1144ANI     HC16014   1.091   0.261   5.598  0.7363  1.2069  2.2750
 1144ANI     HN16015   0.966   0.200   5.367 -1.0615  0.8599 -0.6025
 1144ANI     HN16016   1.007   0.292   5.240  1.3109 -2.8782 -1.6035
 1145ANI     CN16017   5.664   0.171   3.977  0.1688 -0.0668  0.6567
 1145ANI     CH16018   5.751   0.281   3.977  0.1599 -0.0579 -0.0208
 1145ANI     CH16019   5.874   0.271   3.911 -0.1735 -0.4095 -0.5925
 1145ANI     CH16020   5.910   0.161   3.831 -0.0557 -0.8310  0.0376
 1145ANI     CH16021   5.818   0.056   3.832 -0.2804 -0.6350 -0.0322
 1145ANI     CH16022   5.698   0.056   3.904  0.1761 -0.1183  0.7406
 1145ANI     NH16023   5.551   0.179   4.047 -0.1588  0.5866  0.0586
 1145ANI     HC16024   5.737   0.365   4.043  0.3915  0.9019 -1.1821
 1145ANI     HC16025   5.940   0.356   3.911 -1.1359  0.3770 -2.7891
 1145ANI     HC16026   6.005   0.159   3.779  0.1007 -0.3608  0.3015
 1145ANI     HC16027   5.851  -0.032   3.779  2.1888 -1.2635  2.4379
 1145ANI     HC16028   5.643  -0.037   3.911  0.5098 -0.4611 -0.8869
 1145ANI     HN16029   5.531   0.276   4.067  0.7670  1.1066 -1.5173
 1145ANI     HN16030   5.470   0.134   4.007  1.8525 -0.0571 -3.4838
 1146ANI     CN16031   2.798   2.874   0.622 -0.0047 -0.3926  0.4881
 1146ANI     CH16032   2.794   2.779   0.518  0.3189  0.6658 -0.5043
 1146ANI     CH16033   2.687   2.769   0.429 -0.1131  0.1908  0.0657
 1146ANI     CH16034   2.578   2.856   0.443 -0.1553  0.1318  0.1047
 1146ANI     CH16035   2.574   2.948   0.548 -0.1498  0.3974 -0.1288
 1146ANI     CH16036   2.683   2.952   0.636  0.1639  0.0369 -0.5014
 1146ANI     NH16037   2.910   2.893   0.693 -0.1914  0.0601  0.6589
 1146ANI     HC16038   2.878   2.712   0.509  0.6545  0.6519  2.1781
 1146ANI     HC16039   2.685   2.690   0.356  0.8926 -3.0410  3.3857
 1146ANI     HC16040   2.491   2.836   0.383  0.2893 -1.7515  0.0569
 1146ANI     HC16041   2.483   3.006   0.553 -0.3477  0.1092 -0.4471
 1146ANI     HC16042   2.678   3.030   0.711  1.5879  0.9467 -1.3274
 1146ANI     HN16043   2.949   2.802   0.715 -0.3877  0.0350  0.9080
 1146ANI     HN16044   2.886   2.937   0.781  2.0068  1.9206  0.3734
 1147ANI     CN16045   4.545   2.148   3.119  0.0418 -0.0402  0.0848
 1147ANI     CH16046   4.644   2.049   3.127  0.0125 -0.0695  0.0845
 1147ANI     CH16047   4.760   2.075   3.201  0.0819  0.0699 -0.0733
 1147ANI     CH16048   4.772   2.200   3.263  0.3403 -0.1732  0.3719
 1147ANI     CH16049   4.665   2.290   3.270  0.2294 -0.2601 -0.2140
 1147ANI     CH16050   4.546   2.261   3.201  0.1151  0.1598 -0.1936
 1147ANI     NH16051   4.439   2.123   3.041 -0.4446 -0.2205  0.7976
 1147ANI     HC16052   4.636   1.951   3.083 -1.0342  1.1061 -2.4891
 1147ANI     HC16053   4.830   1.996   3.224 -0.6467 -1.0289 -1.5132
 1147ANI     HC16054   4.863   2.219   3.318 -0.2653 -1.2310  1.7673
 1147ANI     HC16055   4.680   2.382   3.324  0.0587  0.3152 -1.1277
 1147ANI     HC16056   4.467   2.335   3.200 -0.7825 -0.7691  0.2469
 1147ANI     HN16057   4.386   2.210   3.048  1.0015  0.8028 -0.7072
 1147ANI     HN16058   4.468   2.101   2.947 -1.8101 -1.9777  0.7737
 1148ANI     CN16059   2.314   1.341   2.667  0.0320 -0.3930 -0.0273
 1148ANI     CH16060   2.438   1.335   2.732 -0.2242 -0.1918  0.4840
 1148ANI     CH16061   2.451   1.384   2.863 -0.0341 -0.4598  0.5666
 1148ANI     CH16062   2.345   1.453   2.922  0.2689  0.5062 -0.0014
 1148ANI     CH16063   2.221   1.461   2.857  0.1591  0.7107  0.2293
 1148ANI     CH16064   2.204   1.397   2.733  0.5771  0.0465  0.5141
 1148ANI     NH16065   2.294   1.288   2.546 -0.2303 -0.4901  0.0566
 1148ANI     HC16066   2.524   1.289   2.686  0.7363 -0.5609  2.5673
 1148ANI     HC16067   2.548   1.392   2.910  0.9503 -1.2483 -1.2459
 1148ANI     HC16068   2.367   1.491   3.021  1.7567  1.2784 -0.6207
 1148ANI     HC16069   2.141   1.501   2.916  1.7363  0.8445  2.3175
 1148ANI     HC16070   2.107   1.398   2.686  0.1815 -1.2715  1.2584
 1148ANI     HN16071   2.201   1.270   2.511  0.0181 -0.2260 -0.7613
 1148ANI     HN16072   2.345   1.202   2.536  0.3889 -0.1575  0.3171
 1149ANI     CN16073   2.299   4.415   4.984  0.0398 -0.1270 -0.0528
 1149ANI     CH16074   2.248   4.497   5.085  0.1268 -0.2827  0.1184
 1149ANI     CH16075   2.318   4.609   5.130 -0.2296 -0.0173  0.0152
 1149ANI     CH16076   2.441   4.641   5.070 -0.0316  0.0979  0.4845
 1149ANI     CH16077   2.499   4.554   4.978  0.4044  0.4842  0.3911
 1149ANI     CH16078   2.428   4.441   4.935 -0.1234  0.9324  0.0734
 1149ANI     NH16079   2.235   4.306   4.938 -0.3014 -0.0242  0.1773
 1149ANI     HC16080   2.149   4.485   5.126  0.1461  0.5106  0.4028
 1149ANI     HC16081   2.288   4.669   5.214 -2.4376  1.6604 -1.9137
 1149ANI     HC16082   2.500   4.731   5.083  0.1335 -0.0499  0.7582
 1149ANI     HC16083   2.591   4.570   4.923  0.3365  2.8613  0.9377
 1149ANI     HC16084   2.470   4.381   4.855 -0.0781  0.2615  0.5993
 1149ANI     HN16085   2.138   4.317   4.913  0.1970  3.1582 -0.6462
 1149ANI     HN16086   2.272   4.280   4.848 -3.2570 -2.5607 -0.3898
 1150ANI     CN16087   5.965   5.665   1.871  0.1474  0.5765 -0.1456
 1150ANI     CH16088   5.859   5.601   1.804 -0.2425  0.2625  0.7576
 1150ANI     CH16089   5.796   5.489   1.858 -0.3120 -0.0589  0.0140
 1150ANI     CH16090   5.841   5.442   1.982  0.1915  0.1050 -0.1055
 1150ANI     CH16091   5.952   5.499   2.046  0.2732 -0.1763  0.0038
 1150ANI     CH16092   6.011   5.614   1.993 -0.0975 -0.1497 -0.3559
 1150ANI     NH16093   6.017   5.779   1.825  0.7300 -0.0946 -1.1721
 1150ANI     HC16094   5.826   5.652   1.714  0.4946 -0.2060  0.2154
 1150ANI     HC16095   5.709   5.449   1.807 -1.1761 -0.7176  1.9383
 1150ANI     HC16096   5.797   5.357   2.032  2.3682 -0.3499  1.0954
 1150ANI     HC16097   5.991   5.455   2.136 -0.6950  0.2225  0.6358
 1150ANI     HC16098   6.102   5.652   2.036 -0.1143  1.0270 -1.3192
 1150ANI     HN16099   6.045   5.845   1.896  0.5599 -1.6628  0.3583
 1150ANI     HN16100   5.948   5.814   1.759 -0.1945 -1.0143 -0.7036
 1151ANI     CN16101   1.966   2.599   2.758 -0.3932 -0.5017 -0.3698
 1151ANI     CH16102   2.045   2.484   2.750 -0.2856 -0.4305 -0.3357
 1151ANI     CH16103   2.002   2.366   2.812 -0.2412  0.0362  0.5932
 1151ANI     CH16104   1.882   2.363   2.884 -0.0115  0.4040  0.9937
 1151ANI     CH16105   1.797   2.474   2.885 -0.5622 -0.0042  0.0388
 1151ANI     CH16106   1.843   2.591   2.824 -0.0433 -0.0439  0.3512
 1151ANI     NH16107   2.011   2.710   2.698 -0.1902 -0.2173  0.2949
 1151ANI     HC16108   2.144   2.487   2.705 -0.0776  1.8061  0.2312
 1151ANI     HC16109   2.068   2.281   2.823  0.9438  0.5595 -2.0560
 1151ANI     HC16110   1.848   2.273   2.933 -0.1241 -0.3606 -0.4530
 1151ANI     HC16111   1.701   2.471   2.936 -0.0581 -2.8768  0.8776
 1151ANI     HC16112   1.785   2.682   2.826 -0.7799 -0.4850 -0.5695
 1151ANI     HN16113   1.994   2.798   2.745 -0.9096 -1.1442  1.8022
 1151ANI     HN16114   2.111   2.696   2.689 -0.5693 -3.5220  0.4897
 1152ANI     CN16115   1.220   3.394   2.766  0.3633 -0.5177 -0.7057
 1152ANI     CH16116   1.302   3.501   2.730 -0.2411  0.1108 -0.2446
 1152ANI     CH16117   1.395   3.488   2.626  0.7180  0.0818  0.6039
 1152ANI     CH16118   1.421   3.363   2.570 -0.0796  0.1929 -0.0190
 1152ANI     CH16119   1.331   3.260   2.600 -0.2166  0.2137 -0.3574
 1152ANI     CH16120   1.232   3.272   2.698  0.0386 -0.9813  0.0556
 1152ANI     NH16121   1.132   3.399   2.867  0.4495 -0.4517 -0.6347
 1152ANI     HC16122   1.285   3.593   2.783 -0.7379  0.0124 -0.2355
 1152ANI     HC16123   1.455   3.577   2.614  0.0003  0.8368  2.4122
 1152ANI     HC16124   1.498   3.343   2.496  0.9749  0.8386  0.8924
 1152ANI     HC16125   1.331   3.170   2.539 -0.8494  0.9095 -1.4097
 1152ANI     HC16126   1.170   3.189   2.728 -0.8975  0.2806  1.7367
 1152ANI     HN16127   1.109   3.491   2.902 -0.4004 -1.5364  1.8177
 1152ANI     HN16128   1.051   3.339   2.867  0.2255 -0.1572 -1.0860
 1153ANI     CN16129   5.232   1.989   0.156 -0.0758 -0.4499  0.3038
 1153ANI     CH16130   5.213   2.124   0.126  0.5406 -0.3924  0.1672
 1153ANI     CH16131   5.299   2.218   0.185 -0.4982 -0.0140  1.0938
 1153ANI     CH16132   5.416   2.174   0.248 -0.1729 -0.1122  0.4354
 1153ANI     CH16133   5.439   2.038   0.270 -0.4353 -0.1384  0.5529
 1153ANI     CH16134   5.336   1.948   0.240  0.1509 -0.6126 -0.0521
 1153ANI     NH16135   5.131   1.905   0.126 -0.2154 -0.4195  0.6989
 1153ANI     HC16136   5.145   2.164   0.052  0.9364  0.8449  0.4582
 1153ANI     HC16137   5.282   2.321   0.157 -0.0694 -0.4464 -0.8577
 1153ANI     HC16138   5.496   2.238   0.281  0.5068 -0.3911 -0.6545
 1153ANI     HC16139   5.520   2.012   0.338  0.8900  1.1520 -0.5002
 1153ANI     HC16140   5.342   1.848   0.280  0.4524 -0.4662  0.2714
 1153ANI     HN16141   5.143   1.825   0.187  1.4002  0.2735  1.3336
 1153ANI     HN16142   5.046   1.950   0.159 -1.2992  1.1671 -3.9525
 1154ANI     CN16143   2.282   3.588   4.683  0.3134  0.0169  0.4900
 1154ANI     CH16144   2.345   3.567   4.559 -0.4734  0.1872  0.0630
 1154ANI     CH16145   2.407   3.444   4.538  0.2662  0.5830 -0.0727
 1154ANI     CH16146   2.402   3.339   4.631  0.2441  0.5783 -0.0787
 1154ANI     CH16147   2.332   3.361   4.750  0.0101  0.1262 -0.1309
 1154ANI     CH16148   2.270   3.484   4.775 -1.2792 -0.4884 -0.2711
 1154ANI     NH16149   2.238   3.711   4.711  0.2238  0.0697  0.1236
 1154ANI     HC16150   2.353   3.644   4.484  0.2473  0.4699  0.4227
 1154ANI     HC16151   2.460   3.420   4.447 -0.3895 -0.0410 -0.2965
 1154ANI     HC16152   2.468   3.254   4.614 -0.4074  0.6606 -3.4238
 1154ANI     HC16153   2.335   3.287   4.829  1.5364  0.3332  0.0301
 1154ANI     HC16154   2.224   3.506   4.870 -0.6830  1.9532 -0.5298
 1154ANI     HN16155   2.193   3.755   4.632 -2.1170  0.6338  1.6822
 1154ANI     HN16156   2.184   3.724   4.795 -0.8817 -1.0601 -0.3882
 1155ANI     CN16157   0.603   2.799   5.942 -0.5332  0.0383 -0.4395
 1155ANI     CH16158   0.580   2.665   5.977  0.2269  0.1457  0.4799
 1155ANI     CH16159   0.683   2.573   6.001  0.3249  0.1889  0.2305
 1155ANI     CH16160   0.817   2.612   5.990  0.3522 -0.1152 -0.4779
 1155ANI     CH16161   0.841   2.746   5.959 -0.4885  0.0967 -0.2244
 1155ANI     CH16162   0.737   2.836   5.930 -0.5207  0.0417 -0.2807
 1155ANI     NH16163   0.505   2.889   5.928 -0.0248  0.6497 -0.0658
 1155ANI     HC16164   0.476   2.641   5.994  0.1547 -0.5888 -0.9030
 1155ANI     HC16165   0.663   2.469   6.024 -0.7012 -0.0248 -1.5699
 1155ANI     HC16166   0.891   2.535   6.008  0.4847  0.8458  3.3625
 1155ANI     HC16167   0.945   2.775   5.961 -1.4797  3.9977  0.3565
 1155ANI     HC16168   0.761   2.939   5.909 -0.2372 -0.6224 -3.3451
 1155ANI     HN16169   0.516   2.941   5.842  0.3589  1.2056  0.3183
 1155ANI     HN16170   0.415   2.842   5.922  0.4403 -0.2376 -0.1414
 1156ANI     CN16171   1.171   5.153   6.258 -0.0800 -0.1276  0.1777
 1156ANI     CH16172   1.093   5.112   6.149 -0.9808  0.3325  0.6467
 1156ANI     CH16173   1.066   4.974   6.148  0.7198 -0.0086  0.2236
 1156ANI     CH16174   1.113   4.892   6.251  0.5920 -0.1717  0.1496
 1156ANI     CH16175   1.162   4.941   6.372 -0.1046  0.0149  0.3622
 1156ANI     CH16176   1.200   5.076   6.371  0.3730 -0.1220  0.0633
 1156ANI     NH16177   1.206   5.282   6.263 -0.3897 -0.0585  0.5467
 1156ANI     HC16178   1.068   5.186   6.074 -3.2118 -0.5021  0.5165
 1156ANI     HC16179   1.020   4.918   6.068  2.0609 -1.5942  0.5430
 1156ANI     HC16180   1.093   4.786   6.240 -0.8396  0.2005 -0.9244
 1156ANI     HC16181   1.181   4.880   6.460 -1.6214 -0.5886  0.2815
 1156ANI     HC16182   1.248   5.123   6.456 -0.8630  1.8969 -0.3305
 1156ANI     HN16183   1.278   5.284   6.334 -1.0714 -1.4816  1.3145
 1156ANI     HN16184   1.250   5.306   6.176 -1.9010  0.3716 -0.1150
 1157ANI     CN16185   0.663   1.547   0.549  0.1410 -0.1241  0.1487
 1157ANI     CH16186   0.753   1.472   0.472  0.3894 -0.1462  0.4575
 1157ANI     CH16187   0.774   1.339   0.509 -0.0567 -0.5413 -0.6761
 1157ANI     CH16188   0.710   1.280   0.619 -0.5717 -0.2052 -0.7952
 1157ANI     CH16189   0.613   1.349   0.694 -0.5197 -0.4417 -0.5075
 1157ANI     CH16190   0.594   1.480   0.651  0.2854 -0.0619  0.2886
 1157ANI     NH16191   0.644   1.673   0.509  0.0281 -0.1086  0.2498
 1157ANI     HC16192   0.805   1.515   0.388 -1.9709  1.2224 -0.3493
 1157ANI     HC16193   0.845   1.270   0.466  1.5432  0.7139 -0.0533
 1157ANI     HC16194   0.726   1.176   0.642 -1.4173  0.0592  1.0922
 1157ANI     HC16195   0.564   1.302   0.778 -2.5800  1.5322 -0.5670
 1157ANI     HC16196   0.525   1.526   0.720  1.0985 -1.1594  1.8463
 1157ANI     HN16197   0.657   1.686   0.409 -1.7295  0.0975  0.0261
 1157ANI     HN16198   0.547   1.696   0.524 -0.4350 -0.5457 -1.8197
 1158ANI     CN16199   4.029   5.421   0.779  0.0177 -0.1115 -0.2347
 1158ANI     CH16200   3.949   5.359   0.876  0.0751 -0.4723 -0.4173
 1158ANI     CH16201   3.989   5.363   1.010  0.0092  0.6128 -0.4229
 1158ANI     CH16202   4.110   5.421   1.049  0.2346 -0.2500  0.1687
 1158ANI     CH16203   4.193   5.479   0.952 -0.3937  0.4071  0.0267
 1158ANI     CH16204   4.147   5.484   0.820  0.0151 -0.1670 -0.1405
 1158ANI     NH16205   4.000   5.410   0.648  0.0514 -0.1374 -0.2399
 1158ANI     HC16206   3.868   5.297   0.842 -2.1601  1.6097  0.9231
 1158ANI     HC16207   3.928   5.303   1.077 -0.7304  1.5097 -0.2795
 1158ANI     HC16208   4.138   5.423   1.153  2.1597  2.5313 -0.3472
 1158ANI     HC16209   4.285   5.523   0.987 -0.1113 -0.9021  0.9707
 1158ANI     HC16210   4.214   5.513   0.741  1.4371 -1.0927  0.7187
 1158ANI     HN16211   4.084   5.407   0.592 -1.5008  1.9442 -2.7473
 1158ANI     HN16212   3.953   5.323   0.629  2.0662 -1.2970 -0.1035
 1159ANI     CN16213   0.435   1.719   0.195  0.1239  0.0189  0.7816
 1159ANI     CH16214   0.553   1.657   0.154 -0.2379 -0.0581 -0.1618
 1159ANI     CH16215   0.672   1.726   0.181 -0.2768 -0.1249  0.1857
 1159ANI     CH16216   0.676   1.852   0.241  0.6410  0.0874 -0.3054
 1159ANI     CH16217   0.554   1.904   0.287  0.2376 -0.2397 -1.0014
 1159ANI     CH16218   0.433   1.838   0.270 -0.2341  0.2407  0.4187
 1159ANI     NH16219   0.320   1.658   0.164  0.1787  0.6159 -0.6242
 1159ANI     HC16220   0.548   1.561   0.106  0.8301 -0.3620  0.3147
 1159ANI     HC16221   0.761   1.681   0.139  1.2307  2.6722  0.2446
 1159ANI     HC16222   0.768   1.907   0.255  0.7212  0.1873 -1.1925
 1159ANI     HC16223   0.548   2.002   0.332  1.8943  0.2632 -1.8257
 1159ANI     HC16224   0.340   1.879   0.308  0.2034  1.4464  0.2078
 1159ANI     HN16225   0.337   1.561   0.139  1.7765 -0.4157  4.0426
 1159ANI     HN16226   0.251   1.650   0.236 -0.9604 -0.5763 -1.8214
 1160ANI     CN16227   5.789   0.470   4.483  0.0741 -0.2541  0.1032
 1160ANI     CH16228   5.909   0.535   4.454  0.2616 -0.3984  0.5526
 1160ANI     CH16229   5.994   0.475   4.359 -0.0291 -0.1941  0.1631
 1160ANI     CH16230   5.948   0.379   4.268 -0.4772 -0.1965  0.3888
 1160ANI     CH16231   5.825   0.317   4.294 -0.1317 -0.8942  0.3920
 1160ANI     CH16232   5.747   0.366   4.399 -0.3521  0.2285 -0.2854
 1160ANI     NH16233   5.722   0.515   4.590  0.1941 -0.1176  0.1207
 1160ANI     HC16234   5.948   0.615   4.514 -2.6615  1.7029 -0.2604
 1160ANI     HC16235   6.084   0.531   4.338  1.2774 -2.0139  0.7774
 1160ANI     HC16236   6.014   0.348   4.188  1.6259 -0.2454  2.0969
 1160ANI     HC16237   5.789   0.236   4.232  1.7333 -0.0240 -1.9425
 1160ANI     HC16238   5.656   0.311   4.420 -0.7003  0.7232 -0.4772
 1160ANI     HN16239   5.738   0.610   4.621  0.0785  0.1300 -0.5887
 1160ANI     HN16240   5.626   0.502   4.564  0.7165 -1.4033 -1.2572
 1161ANI     CN16241   2.682   5.802   0.966  0.4354  0.3559  0.1448
 1161ANI     CH16242   2.636   5.904   0.882 -0.6689 -0.6722 -0.5304
 1161ANI     CH16243   2.519   5.972   0.917 -0.4055 -0.3994 -0.1810
 1161ANI     CH16244   2.448   5.940   1.033  0.6226  0.0779  0.5925
 1161ANI     CH16245   2.489   5.831   1.110 -0.2831 -0.5102  0.2459
 1161ANI     CH16246   2.606   5.762   1.076 -0.1234  0.0441 -0.3454
 1161ANI     NH16247   2.796   5.735   0.940  0.1012  0.1286 -0.7747
 1161ANI     HC16248   2.683   5.920   0.786 -1.4073 -2.2141 -1.1596
 1161ANI     HC16249   2.475   6.055   0.863  0.0643  0.8391  1.2860
 1161ANI     HC16250   2.361   6.002   1.049 -0.5196 -1.0821 -1.0430
 1161ANI     HC16251   2.445   5.790   1.200 -1.6937  1.1780  0.3490
 1161ANI     HC16252   2.638   5.676   1.134 -0.7052  1.3454  1.9815
 1161ANI     HN16253   2.855   5.802   0.894  2.2973 -0.7407  0.7094
 1161ANI     HN16254   2.849   5.710   1.022 -0.3737 -0.7004 -0.7155
 1162ANI     CN16255   4.479   1.254   1.247 -0.1302  0.2598 -0.1497
 1162ANI     CH16256   4.546   1.370   1.204 -0.3846  0.2748 -0.5059
 1162ANI     CH16257   4.685   1.380   1.203 -0.3729  0.2588  0.1040
 1162ANI     CH16258   4.756   1.266   1.242 -0.2698  0.1804 -0.3052
 1162ANI     CH16259   4.696   1.149   1.292 -0.1361  0.2371 -0.0139
 1162ANI     CH16260   4.556   1.147   1.292 -0.1415  0.5022  0.4537
 1162ANI     NH16261   4.345   1.247   1.245 -0.1210  0.0349  0.0327
 1162ANI     HC16262   4.497   1.464   1.183 -1.6758 -0.2810 -0.0680
 1162ANI     HC16263   4.728   1.477   1.184  1.2886 -0.0300  2.2390
 1162ANI     HC16264   4.864   1.261   1.239 -0.2340  0.2369  0.5655
 1162ANI     HC16265   4.759   1.064   1.313  2.5057  2.1921  0.3697
 1162ANI     HC16266   4.515   1.055   1.331 -1.3080  0.5970 -0.5406
 1162ANI     HN16267   4.302   1.338   1.254  1.4541  0.8595 -0.6616
 1162ANI     HN16268   4.304   1.204   1.327 -0.3805  0.0745 -0.0747
 1163ANI     CN16269   6.192   4.597   6.042 -0.0646  0.4030 -0.1594
 1163ANI     CH16270   6.163   4.664   6.161 -0.7053  0.3178 -0.2620
 1163ANI     CH16271   6.052   4.623   6.235 -0.2536 -0.5488 -0.0542
 1163ANI     CH16272   5.972   4.516   6.193  0.0081 -0.5411 -0.5652
 1163ANI     CH16273   6.000   4.452   6.071 -0.6733 -0.6082 -0.6903
 1163ANI     CH16274   6.109   4.494   5.995 -0.4400  0.5165  0.2520
 1163ANI     NH16275   6.279   4.658   5.960  0.2940 -0.1875 -0.2216
 1163ANI     HC16276   6.232   4.737   6.200  1.5660 -1.6184 -0.5573
 1163ANI     HC16277   6.045   4.652   6.339 -2.0593  1.6596 -0.7482
 1163ANI     HC16278   5.888   4.476   6.248  0.4319  2.0247  2.0363
 1163ANI     HC16279   5.939   4.369   6.036 -1.8231 -0.3380  0.6074
 1163ANI     HC16280   6.114   4.449   5.897 -2.2903  0.5624  0.1202
 1163ANI     HN16281   6.242   4.639   5.868  0.0808  0.2774 -0.2370
 1163ANI     HN16282   6.287   4.758   5.972  1.8993 -0.5545  2.0036
 1164ANI     CN16283   5.197   5.438   4.850  0.4552 -0.0287  0.1229
 1164ANI     CH16284   5.270   5.448   4.969 -0.2633  0.4674  0.5256
 1164ANI     CH16285   5.208   5.410   5.089 -0.5002  0.1495  0.3002
 1164ANI     CH16286   5.078   5.359   5.086 -0.1725 -0.6653 -0.1555
 1164ANI     CH16287   5.006   5.345   4.967 -0.1424  0.1256 -0.2656
 1164ANI     CH16288   5.068   5.386   4.848  0.4594 -0.0310 -0.0092
 1164ANI     NH16289   5.266   5.479   4.743  0.1285 -0.8746 -0.4107
 1164ANI     HC16290   5.369   5.492   4.967 -0.0641 -0.0073  0.1180
 1164ANI     HC16291   5.243   5.418   5.190 -1.1633  0.8134  0.4864
 1164ANI     HC16292   5.026   5.337   5.178 -0.8489 -2.0225 -0.8409
 1164ANI     HC16293   4.900   5.321   4.967 -0.0567 -0.2672  0.9403
 1164ANI     HC16294   5.010   5.387   4.757  1.6032  0.2702 -0.7345
 1164ANI     HN16295   5.363   5.451   4.734  0.4399  0.2812 -0.7504
 1164ANI     HN16296   5.216   5.459   4.658 -1.5159 -0.8190  0.5298
 1165ANI     CN16297   2.772   0.247   4.925 -0.1478  0.0250 -0.0246
 1165ANI     CH16298   2.728   0.203   4.799 -0.0976  0.6570 -0.2634
 1165ANI     CH16299   2.794   0.102   4.728 -0.5866 -0.3604  0.7247
 1165ANI     CH16300   2.903   0.042   4.792  0.2028 -0.1753 -0.4437
 1165ANI     CH16301   2.955   0.086   4.914 -0.4010  0.2579 -0.3401
 1165ANI     CH16302   2.890   0.192   4.978 -0.2663  0.0056  0.2138
 1165ANI     NH16303   2.703   0.330   5.003  0.2036 -0.0661  0.3823
 1165ANI     HC16304   2.634   0.243   4.764  0.5286  0.9330 -1.6571
 1165ANI     HC16305   2.767   0.061   4.632  0.2022  0.8475 -0.0201
 1165ANI     HC16306   2.961  -0.032   4.738 -0.0079  0.0712 -1.0100
 1165ANI     HC16307   3.044   0.033   4.944 -0.8383  0.3501  1.1774
 1165ANI     HC16308   2.931   0.219   5.074  2.7120 -0.1601 -0.9732
 1165ANI     HN16309   2.758   0.378   5.074  0.7563 -1.5784  0.9915
 1165ANI     HN16310   2.649   0.399   4.952  1.2059 -1.5495 -2.8040
 1166ANI     CN16311   2.913   0.492   5.460 -0.0228  0.2281  0.1928
 1166ANI     CH16312   2.994   0.404   5.534 -0.7707 -0.6006  0.0269
 1166ANI     CH16313   3.133   0.418   5.539 -0.8450  0.4531 -0.6576
 1166ANI     CH16314   3.196   0.510   5.454  0.3396  0.2368 -0.0179
 1166ANI     CH16315   3.121   0.594   5.372  0.3263 -0.0876 -0.3365
 1166ANI     CH16316   2.981   0.584   5.379  0.3460  0.2271  0.4977
 1166ANI     NH16317   2.781   0.505   5.472 -0.0591 -0.0156  0.0513
 1166ANI     HC16318   2.945   0.338   5.603  2.1323  0.1110  2.8636
 1166ANI     HC16319   3.194   0.350   5.595 -1.5738  1.4569  1.3867
 1166ANI     HC16320   3.303   0.522   5.460  0.5068 -2.0149  2.1622
 1166ANI     HC16321   3.175   0.662   5.308 -1.5710 -0.1318 -2.0573
 1166ANI     HC16322   2.925   0.663   5.330 -1.7644 -1.2468  0.4740
 1166ANI     HN16323   2.748   0.601   5.478  1.7278  0.4534  3.2946
 1166ANI     HN16324   2.739   0.461   5.553  0.3934 -1.3793 -0.4529
 1167ANI     CN16325   1.079   1.557   5.454  0.3781  0.7150 -0.2355
 1167ANI     CH16326   1.042   1.570   5.319  0.4732 -0.1259 -0.3492
 1167ANI     CH16327   0.934   1.499   5.266  0.8212 -0.4818 -0.5806
 1167ANI     CH16328   0.858   1.411   5.343  0.3582  0.1888 -0.2659
 1167ANI     CH16329   0.898   1.393   5.475  0.0333 -0.6783 -0.2800
 1167ANI     CH16330   1.010   1.460   5.527 -0.2382  0.4626 -1.1384
 1167ANI     NH16331   1.184   1.620   5.509  0.4897 -0.2157  0.6400
 1167ANI     HC16332   1.089   1.642   5.253 -0.1550 -0.0566 -0.7252
 1167ANI     HC16333   0.898   1.515   5.165 -0.7608 -0.7332 -0.0658
 1167ANI     HC16334   0.780   1.352   5.297 -1.5595  1.9694  0.6358
 1167ANI     HC16335   0.861   1.314   5.538 -1.5146  0.1881 -0.0928
 1167ANI     HC16336   1.026   1.436   5.631 -2.1752 -2.2923 -1.4191
 1167ANI     HN16337   1.252   1.652   5.442 -0.0265 -2.1509 -0.8766
 1167ANI     HN16338   1.221   1.558   5.579  0.3824 -2.9501 -1.6005
 1168ANI     CN16339   4.286   1.672   2.443  0.2412  0.2791 -0.1469
 1168ANI     CH16340   4.164   1.695   2.379 -0.0017 -0.0429  0.1986
 1168ANI     CH16341   4.066   1.772   2.443 -0.2874  0.1783 -0.4987
 1168ANI     CH16342   4.088   1.823   2.571 -0.6762 -0.2426 -0.2661
 1168ANI     CH16343   4.207   1.796   2.641 -0.6725 -0.0204 -0.1885
 1168ANI     CH16344   4.303   1.719   2.574 -0.3038  0.3686 -0.1091
 1168ANI     NH16345   4.386   1.597   2.395  0.0085  0.0043 -0.2004
 1168ANI     HC16346   4.149   1.648   2.283 -1.1496 -1.5085  1.0697
 1168ANI     HC16347   3.972   1.792   2.394 -0.2073  2.7121  0.3181
 1168ANI     HC16348   4.017   1.883   2.625  0.5561  1.2571 -0.2781
 1168ANI     HC16349   4.244   1.817   2.740  1.6389 -2.0023 -0.5904
 1168ANI     HC16350   4.391   1.694   2.631 -0.9393  1.4216  1.3578
 1168ANI     HN16351   4.378   1.599   2.294 -0.6223 -1.0047 -0.1793
 1168ANI     HN16352   4.476   1.634   2.423  0.0622 -0.1741 -0.1385
 1169ANI     CN16353   5.099   4.581   5.912  0.2128 -0.0190  0.2193
 1169ANI     CH16354   5.149   4.683   5.993 -0.2759  0.4589 -0.0848
 1169ANI     CH16355   5.229   4.785   5.940  0.3496 -0.0544 -0.1323
 1169ANI     CH16356   5.270   4.766   5.808  0.4165 -0.1102 -0.1035
 1169ANI     CH16357   5.227   4.664   5.722 -0.0372 -0.0738  0.0785
 1169ANI     CH16358   5.132   4.577   5.776  0.2550 -0.2928  0.2365
 1169ANI     NH16359   5.014   4.491   5.964  0.3401  0.0007  0.4620
 1169ANI     HC16360   5.121   4.669   6.096  0.8027 -2.3091 -0.1406
 1169ANI     HC16361   5.262   4.869   6.000 -0.1352  0.5194 -0.6627
 1169ANI     HC16362   5.340   4.842   5.776 -1.5228  1.5229 -0.5512
 1169ANI     HC16363   5.259   4.652   5.619  1.0060  2.0050  0.1389
 1169ANI     HC16364   5.101   4.490   5.720  0.8614  0.0978 -0.7199
 1169ANI     HN16365   4.944   4.475   5.893  0.4720 -0.3259  0.4043
 1169ANI     HN16366   4.963   4.522   6.046  0.4077 -0.2792  0.6107
 1170ANI     CN16367   1.517   4.365   3.031 -0.0494  0.1798 -0.1308
 1170ANI     CH16368   1.547   4.494   2.987 -0.3649  0.1218 -0.5135
 1170ANI     CH16369   1.594   4.594   3.073 -0.5172 -0.1899 -0.0695
 1170ANI     CH16370   1.614   4.562   3.208  0.6795 -0.3127 -0.2629
 1170ANI     CH16371   1.604   4.428   3.251  0.4372 -0.3592 -0.4628
 1170ANI     CH16372   1.562   4.331   3.160  0.0356 -0.3405 -0.2976
 1170ANI     NH16373   1.476   4.278   2.939  0.4070 -0.2379  0.0534
 1170ANI     HC16374   1.527   4.520   2.884 -0.5112  2.3484  0.0516
 1170ANI     HC16375   1.627   4.686   3.028  0.6604 -0.0406  1.0603
 1170ANI     HC16376   1.639   4.639   3.279  1.0082 -0.8518  0.2152
 1170ANI     HC16377   1.623   4.400   3.353  1.8968 -0.7412 -0.8190
 1170ANI     HC16378   1.543   4.235   3.205 -0.2448  0.8238  2.1346
 1170ANI     HN16379   1.402   4.315   2.881 -0.1784  1.2351  1.7167
 1170ANI     HN16380   1.443   4.186   2.966 -2.2396 -0.2952 -2.9716
 1171ANI     CN16381   2.069   1.314   5.484 -0.4145  0.3770 -0.4824
 1171ANI     CH16382   2.028   1.403   5.585 -0.0866 -0.2816  0.2335
 1171ANI     CH16383   1.901   1.461   5.588 -0.0078 -0.1123  0.3256
 1171ANI     CH16384   1.812   1.432   5.484  0.3793  0.7736 -0.2600
 1171ANI     CH16385   1.853   1.348   5.379  0.4448  0.5941 -0.0927
 1171ANI     CH16386   1.982   1.295   5.376  0.1951  0.0372 -0.9123
 1171ANI     NH16387   2.193   1.263   5.478 -0.4301  0.2661  0.1044
 1171ANI     HC16388   2.098   1.427   5.663 -0.5006  2.4265 -0.1911
 1171ANI     HC16389   1.876   1.524   5.672  0.3564 -0.9751  1.0959
 1171ANI     HC16390   1.720   1.489   5.482  0.4498  1.1666  3.3931
 1171ANI     HC16391   1.787   1.332   5.296  1.9048  2.3682 -1.6457
 1171ANI     HC16392   2.023   1.244   5.290  1.1014 -1.7003  0.5215
 1171ANI     HN16393   2.226   1.237   5.569  3.3790  1.4558 -0.8606
 1171ANI     HN16394   2.196   1.177   5.425 -0.0668  0.3400  0.0083
 1172ANI     CN16395   2.612   3.414   2.510 -0.6902  0.3142  0.0318
 1172ANI     CH16396   2.642   3.367   2.382 -0.1433  0.4980  0.0913
 1172ANI     CH16397   2.547   3.289   2.314 -0.3124  0.6056  0.2064
 1172ANI     CH16398   2.422   3.256   2.367 -0.1579 -0.2565  0.0323
 1172ANI     CH16399   2.394   3.297   2.498  0.1402  0.4120 -0.1158
 1172ANI     CH16400   2.489   3.376   2.565 -0.3945  0.3478  0.7222
 1172ANI     NH16401   2.707   3.472   2.585 -0.3960 -0.2472  0.0935
 1172ANI     HC16402   2.733   3.394   2.330  0.0983  0.7717  0.6619
 1172ANI     HC16403   2.584   3.238   2.227 -1.2274  0.1196  0.0885
 1172ANI     HC16404   2.350   3.189   2.321  1.6419 -1.6426 -0.8027
 1172ANI     HC16405   2.309   3.269   2.558  2.0117 -0.9113  2.0291
 1172ANI     HC16406   2.484   3.396   2.671  1.3608  1.1468  0.6759
 1172ANI     HN16407   2.803   3.475   2.555 -1.0339  1.6160 -1.9368
 1172ANI     HN16408   2.704   3.472   2.685 -1.1313 -1.4332  0.0791
 1173ANI     CN16409   3.929   0.139   5.498  0.2671  0.2121  0.0064
 1173ANI     CH16410   3.916   0.010   5.551  0.3613  0.3982  0.4820
 1173ANI     CH16411   3.954  -0.097   5.469  0.1175  0.4318  0.3256
 1173ANI     CH16412   3.994  -0.077   5.336 -0.0882 -0.2111  0.1664
 1173ANI     CH16413   4.013   0.053   5.290 -0.5406 -0.1355  0.1987
 1173ANI     CH16414   3.981   0.163   5.371 -0.5598  0.2511 -0.3310
 1173ANI     NH16415   3.876   0.238   5.571  0.0927  0.3967 -0.3697
 1173ANI     HC16416   3.870   0.000   5.648 -0.4801  0.6898  0.1131
 1173ANI     HC16417   3.957  -0.199   5.502 -0.1089  0.2419 -0.2450
 1173ANI     HC16418   4.016  -0.166   5.279 -1.6429 -1.1666  1.0091
 1173ANI     HC16419   4.042   0.071   5.187 -1.7171 -1.5225 -0.3979
 1173ANI     HC16420   3.995   0.259   5.324 -1.8197 -0.3543 -1.9876
 1173ANI     HN16421   3.889   0.219   5.669 -0.2525  0.1190 -0.3779
 1173ANI     HN16422   3.915   0.329   5.551 -1.1079  0.4519 -2.6142
 1174ANI     CN16423   5.888   3.037   4.178 -0.4223  0.2358  0.1930
 1174ANI     CH16424   5.848   2.939   4.086  0.3851 -0.2134  0.3092
 1174ANI     CH16425   5.737   2.863   4.125 -0.0877  0.2812 -0.0715
 1174ANI     CH16426   5.667   2.882   4.245 -0.7189  0.4020 -0.4541
 1174ANI     CH16427   5.711   2.981   4.334  0.4019 -0.7660  0.2965
 1174ANI     CH16428   5.830   3.049   4.304 -0.0137  0.0091  0.4054
 1174ANI     NH16429   5.991   3.112   4.136 -0.1174  0.1149  0.7186
 1174ANI     HC16430   5.888   2.930   3.986 -1.3072  1.1366 -0.5096
 1174ANI     HC16431   5.684   2.792   4.064  0.6450  0.2880 -0.7271
 1174ANI     HC16432   5.580   2.834   4.286 -1.2030 -0.0260 -1.9320
 1174ANI     HC16433   5.662   2.990   4.430  0.4432  0.4708  0.2113
 1174ANI     HC16434   5.858   3.132   4.367  2.3486 -0.0481 -0.5390
 1174ANI     HN16435   6.056   3.146   4.205  0.9225  1.5597 -0.9271
 1174ANI     HN16436   6.048   3.076   4.060 -0.1582 -0.2458  0.8541
 1175ANI     CN16437   0.988   2.675   3.965  0.1205  0.2267 -0.4920
 1175ANI     CH16438   0.961   2.793   4.035  0.0456  0.2934 -0.6320
 1175ANI     CH16439   0.841   2.863   4.023  0.0234  0.4194  0.3216
 1175ANI     CH16440   0.743   2.807   3.940  0.4808  0.5401 -0.3008
 1175ANI     CH16441   0.768   2.689   3.870  0.1775  0.4351 -0.2334
 1175ANI     CH16442   0.892   2.625   3.876 -0.1156 -0.1223 -0.0446
 1175ANI     NH16443   1.111   2.622   3.970 -0.1218 -0.2749  0.2313
 1175ANI     HC16444   1.035   2.827   4.106  0.3879 -0.5672 -0.5696
 1175ANI     HC16445   0.827   2.952   4.082 -0.1836  0.3972  0.3070
 1175ANI     HC16446   0.644   2.850   3.941  0.2360 -0.0173  0.3537
 1175ANI     HC16447   0.688   2.654   3.805  0.8841  0.7350 -1.2869
 1175ANI     HC16448   0.915   2.539   3.814 -0.8167 -0.2341 -0.1517
 1175ANI     HN16449   1.133   2.591   4.064  0.6589 -0.2323  0.0712
 1175ANI     HN16450   1.114   2.535   3.919  0.0157 -0.4744  0.5798
 1176ANI     CN16451   0.387   4.036   2.230 -0.3143 -0.2532 -0.3885
 1176ANI     CH16452   0.348   4.166   2.196  0.2335 -0.0139 -0.1182
 1176ANI     CH16453   0.246   4.233   2.265 -0.1508 -0.4084 -0.3014
 1176ANI     CH16454   0.178   4.164   2.366  0.3200  0.0522  0.3300
 1176ANI     CH16455   0.215   4.033   2.398  0.1199 -0.0786  0.0318
 1176ANI     CH16456   0.317   3.966   2.329 -0.2456 -0.2518 -0.3377
 1176ANI     NH16457   0.479   3.973   2.157 -0.3961 -0.0579 -0.6596
 1176ANI     HC16458   0.401   4.219   2.118  0.5864 -0.3702 -0.1211
 1176ANI     HC16459   0.216   4.333   2.236 -2.6167 -1.0025  0.1132
 1176ANI     HC16460   0.095   4.209   2.419  0.7450 -1.3821  2.2703
 1176ANI     HC16461   0.160   3.973   2.468 -0.5645  0.0990 -0.3493
 1176ANI     HC16462   0.344   3.862   2.338  2.5705  0.3540 -1.1908
 1176ANI     HN16463   0.448   3.877   2.159 -1.2771  0.2131 -1.0183
 1176ANI     HN16464   0.469   4.003   2.061 -0.4630 -1.3216 -1.0562
 1177ANI     CN16465   2.236   4.986   2.309 -0.3353  0.3629  0.3573
 1177ANI     CH16466   2.152   4.880   2.275  0.1996  0.1430 -0.2928
 1177ANI     CH16467   2.114   4.790   2.375  0.6223  0.1311 -0.1430
 1177ANI     CH16468   2.162   4.807   2.506  0.0038 -0.4844  0.1667
 1177ANI     CH16469   2.250   4.911   2.536 -0.1577 -0.3501  0.1674
 1177ANI     CH16470   2.297   4.996   2.435 -0.4279  0.1045  0.4228
 1177ANI     NH16471   2.255   5.079   2.214  0.3078  0.0676  0.1946
 1177ANI     HC16472   2.114   4.872   2.174  0.6970  0.4571 -0.5043
 1177ANI     HC16473   2.045   4.711   2.350 -1.4697  1.8817 -0.0714
 1177ANI     HC16474   2.131   4.745   2.589 -1.4250  0.1410  0.1181
 1177ANI     HC16475   2.284   4.931   2.636  0.3574 -0.8625  0.0939
 1177ANI     HC16476   2.364   5.076   2.463 -0.1545 -0.0294  0.1526
 1177ANI     HN16477   2.291   5.171   2.234  0.9706 -0.1041 -0.2096
 1177ANI     HN16478   2.194   5.071   2.133  0.4321  2.2323 -0.1274
 1178ANI     CN16479   5.748   1.800   1.709  0.3621  0.6880 -0.4290
 1178ANI     CH16480   5.847   1.753   1.796 -0.2256  0.1928 -0.0157
 1178ANI     CH16481   5.893   1.621   1.789 -0.3185  0.1795 -0.3368
 1178ANI     CH16482   5.833   1.536   1.695 -0.5358  0.0668 -0.0969
 1178ANI     CH16483   5.733   1.583   1.608 -0.0201  0.4986 -0.4593
 1178ANI     CH16484   5.687   1.715   1.617  0.0823  0.5102 -0.0809
 1178ANI     NH16485   5.699   1.923   1.729 -0.3068  0.4013 -0.2779
 1178ANI     HC16486   5.880   1.817   1.877  0.1920  0.2533 -0.2301
 1178ANI     HC16487   5.976   1.593   1.850 -2.2876 -2.3347  1.2797
 1178ANI     HC16488   5.869   1.435   1.682  0.1712  0.2521  0.3980
 1178ANI     HC16489   5.694   1.515   1.534 -3.0046  1.5348  0.0976
 1178ANI     HC16490   5.601   1.738   1.555  0.5443 -1.6746 -1.6018
 1178ANI     HN16491   5.766   1.998   1.721 -0.0481  0.5880  3.0756
 1178ANI     HN16492   5.623   1.941   1.665 -0.8534  3.2300  1.0963
 1179ANI     CN16493   3.453   0.199   0.548 -0.1289  0.0355 -0.1606
 1179ANI     CH16494   3.513   0.113   0.641 -0.2588  0.3691  0.2329
 1179ANI     CH16495   3.459   0.098   0.769  0.2160 -0.1059  0.3792
 1179ANI     CH16496   3.345   0.172   0.805 -0.0212 -0.3736  0.1822
 1179ANI     CH16497   3.293   0.260   0.709  0.5410 -0.4292 -0.1751
 1179ANI     CH16498   3.341   0.278   0.579 -0.1927  0.0340 -0.3852
 1179ANI     NH16499   3.516   0.214   0.430 -0.5552  0.1792 -0.3713
 1179ANI     HC16500   3.600   0.060   0.607  0.1805  0.7274  0.8057
 1179ANI     HC16501   3.508   0.029   0.835 -0.2483 -0.0280  0.8064
 1179ANI     HC16502   3.302   0.167   0.904 -1.0335  3.6951  0.0515
 1179ANI     HC16503   3.211   0.326   0.731  0.0913 -1.0776  0.1051
 1179ANI     HC16504   3.301   0.355   0.516  1.7654  1.8170  0.4937
 1179ANI     HN16505   3.469   0.264   0.357 -0.8191  0.1757 -0.2047
 1179ANI     HN16506   3.566   0.130   0.405 -1.2069  0.0186 -1.1577
 1180ANI     CN16507   5.220   0.061   3.807  0.3887  0.0009  0.4977
 1180ANI     CH16508   5.227   0.083   3.669 -0.5627  0.2828  0.4931
 1180ANI     CH16509   5.121   0.141   3.598 -0.3420 -0.1423 -0.1928
 1180ANI     CH16510   5.004   0.163   3.672 -0.4255  0.0206 -0.3700
 1180ANI     CH16511   4.998   0.159   3.812 -0.0176 -0.0021 -0.3531
 1180ANI     CH16512   5.111   0.111   3.880 -0.1460 -0.1191 -0.2206
 1180ANI     NH16513   5.329   0.013   3.870  0.2879 -0.4220  0.3490
 1180ANI     HC16514   5.313   0.045   3.616 -0.6503  1.7666 -0.7313
 1180ANI     HC16515   5.107   0.141   3.491  0.2494 -1.1076 -0.2784
 1180ANI     HC16516   4.913   0.200   3.628 -1.1718  1.1559  2.0225
 1180ANI     HC16517   4.909   0.186   3.866 -0.5017 -0.3812 -0.9603
 1180ANI     HC16518   5.119   0.107   3.987  0.4248  2.1672 -0.1517
 1180ANI     HN16519   5.311  -0.061   3.936  1.2078 -0.1788  0.8735
 1180ANI     HN16520   5.397  -0.026   3.806  0.3356 -0.2715  0.3060
 1181ANI     CN16521   1.210   3.198   3.861  0.4366 -0.3631  0.0812
 1181ANI     CH16522   1.136   3.115   3.946 -0.6817  0.2131 -0.3176
 1181ANI     CH16523   1.093   3.157   4.072  0.3142 -0.1700  0.1524
 1181ANI     CH16524   1.105   3.292   4.110  0.1172  0.0104 -0.4257
 1181ANI     CH16525   1.171   3.377   4.021  0.5706  0.2948  0.1845
 1181ANI     CH16526   1.227   3.331   3.902  0.1522 -0.3768  0.2466
 1181ANI     NH16527   1.254   3.147   3.745  0.0027  0.6869 -0.5506
 1181ANI     HC16528   1.112   3.013   3.922 -0.0533  0.2335 -1.0350
 1181ANI     HC16529   1.050   3.088   4.143 -2.2894 -0.2185 -1.4465
 1181ANI     HC16530   1.083   3.311   4.214 -0.4294 -0.6911 -0.4084
 1181ANI     HC16531   1.174   3.481   4.050 -1.0205  0.2272  0.6523
 1181ANI     HC16532   1.288   3.395   3.840  1.5180 -0.4750  1.4527
 1181ANI     HN16533   1.348   3.175   3.720  0.5794 -0.9756 -0.2546
 1181ANI     HN16534   1.250   3.047   3.751  2.9054  0.6004  0.6085
 1182ANI     CN16535   4.108   1.956   2.064  0.0009  0.0125 -0.1245
 1182ANI     CH16536   4.154   2.039   2.167  0.9859 -0.1045 -0.4662
 1182ANI     CH16537   4.185   2.173   2.140 -0.8444  0.3892 -0.2028
 1182ANI     CH16538   4.188   2.219   2.008 -0.0183  0.2291 -0.2436
 1182ANI     CH16539   4.143   2.135   1.905  0.1990  0.1111 -0.2433
 1182ANI     CH16540   4.101   2.004   1.932  0.2647  0.1202 -0.0985
 1182ANI     NH16541   4.064   1.832   2.089  0.3892 -0.2129 -0.5466
 1182ANI     HC16542   4.153   2.020   2.273  0.4642  4.0565  0.3705
 1182ANI     HC16543   4.199   2.246   2.219 -1.1454 -0.0499  0.2608
 1182ANI     HC16544   4.220   2.316   1.972  0.6372 -0.1939 -0.8215
 1182ANI     HC16545   4.145   2.174   1.805  1.1993 -0.2235 -0.3675
 1182ANI     HC16546   4.076   1.942   1.848  0.6751 -1.2101  0.7514
 1182ANI     HN16547   4.050   1.813   2.188 -0.9484  0.0010 -0.6928
 1182ANI     HN16548   3.992   1.798   2.028  1.6802 -2.9334 -0.6574
 1183ANI     CN16549   2.749   4.251   3.433  0.6280  0.3549  0.1949
 1183ANI     CH16550   2.832   4.183   3.343  0.4029  0.0437  0.2202
 1183ANI     CH16551   2.857   4.233   3.214  0.2435  0.0237  0.1814
 1183ANI     CH16552   2.807   4.359   3.179 -0.2904 -0.2663 -0.1144
 1183ANI     CH16553   2.730   4.429   3.273 -0.1660  0.0272 -0.2333
 1183ANI     CH16554   2.698   4.377   3.398  0.4781  0.2473  0.0238
 1183ANI     NH16555   2.744   4.195   3.555 -0.3302 -0.1133 -0.0539
 1183ANI     HC16556   2.858   4.080   3.365 -2.1645 -0.8427 -0.7497
 1183ANI     HC16557   2.924   4.177   3.149 -1.0384  1.0036 -2.0262
 1183ANI     HC16558   2.833   4.389   3.079 -1.2082 -1.1012 -0.6058
 1183ANI     HC16559   2.696   4.526   3.238 -2.8798 -0.7829  0.0475
 1183ANI     HC16560   2.638   4.438   3.464 -0.3950  1.3494 -1.7866
 1183ANI     HN16561   2.820   4.152   3.604 -1.5963 -0.4901  1.6039
 1183ANI     HN16562   2.701   4.251   3.626  0.3562  0.7693 -0.3172
 1184ANI     CN16563   4.475   3.932   5.667  0.0384  0.4354 -0.0548
 1184ANI     CH16564   4.468   3.825   5.577  0.1996  0.1437  0.2745
 1184ANI     CH16565   4.428   3.851   5.445  0.0001  0.1063  0.3268
 1184ANI     CH16566   4.394   3.981   5.407  0.0582  0.0430  0.0595
 1184ANI     CH16567   4.395   4.086   5.500  0.4848 -0.0018  0.1058
 1184ANI     CH16568   4.446   4.063   5.628  0.3476  0.6030  0.2701
 1184ANI     NH16569   4.502   3.903   5.796  0.2419  0.1849 -0.1537
 1184ANI     HC16570   4.511   3.731   5.609  0.6521  0.5862  0.9871
 1184ANI     HC16571   4.413   3.766   5.380  0.4797  1.0015 -0.9572
 1184ANI     HC16572   4.358   3.999   5.307 -0.2058  1.0119  0.3196
 1184ANI     HC16573   4.367   4.185   5.466 -1.3531 -1.1008 -1.7357
 1184ANI     HC16574   4.468   4.150   5.688  0.1691  1.1263 -0.4112
 1184ANI     HN16575   4.562   3.822   5.796  1.1724  0.8551  1.3064
 1184ANI     HN16576   4.541   3.978   5.851  3.5076 -0.6085 -1.2991
 1185ANI     CN16577   3.954   4.104   1.877  0.3652  0.3912  0.1483
 1185ANI     CH16578   3.931   4.198   1.776 -0.1774 -0.3603 -0.4301
 1185ANI     CH16579   4.045   4.256   1.719 -0.3989  0.0078 -0.4953
 1185ANI     CH16580   4.172   4.240   1.776 -0.7905  0.1419  0.4276
 1185ANI     CH16581   4.186   4.145   1.878  0.0451 -0.2362 -0.0366
 1185ANI     CH16582   4.078   4.078   1.936  0.1990 -0.2644  0.2153
 1185ANI     NH16583   3.848   4.036   1.925  0.1233  0.5985 -0.0905
 1185ANI     HC16584   3.834   4.214   1.731 -0.0483 -1.3693 -1.1021
 1185ANI     HC16585   4.038   4.313   1.627  0.4089  2.0061  0.6443
 1185ANI     HC16586   4.257   4.278   1.722 -0.7353 -0.5711 -0.0055
 1185ANI     HC16587   4.286   4.130   1.916  0.7764 -0.5209 -1.9653
 1185ANI     HC16588   4.084   4.007   2.017 -2.1951 -0.5422  0.1933
 1185ANI     HN16589   3.786   4.036   1.845 -0.0764  1.0912  0.0639
 1185ANI     HN16590   3.878   3.941   1.940 -1.5757 -0.0095 -0.4924
 1186ANI     CN16591   3.702   1.657   0.059  0.2543 -0.2410  0.5021
 1186ANI     CH16592   3.673   1.792   0.033  0.3604 -0.2848  0.1458
 1186ANI     CH16593   3.771   1.887   0.060 -0.2036  0.4052 -0.2271
 1186ANI     CH16594   3.895   1.849   0.112 -0.5799  0.3176  0.6162
 1186ANI     CH16595   3.926   1.714   0.134  0.2059  0.2320 -0.9772
 1186ANI     CH16596   3.827   1.618   0.108  0.3317 -0.2462  0.3034
 1186ANI     NH16597   3.605   1.565   0.045 -0.1566  0.1342  0.8547
 1186ANI     HC16598   3.579   1.835   0.002  1.8905  1.3875 -2.3008
 1186ANI     HC16599   3.754   1.994   0.063  0.4370  0.5603 -1.7931
 1186ANI     HC16600   3.974   1.920   0.135  1.7276 -2.3654  1.3453
 1186ANI     HC16601   4.023   1.698   0.178  0.5432  2.6620 -0.7517
 1186ANI     HC16602   3.843   1.514   0.130 -0.2672 -0.0109  1.9669
 1186ANI     HN16603   3.514   1.608   0.040  0.1936  0.6493 -1.6483
 1186ANI     HN16604   3.618   1.505   0.126  1.5187 -0.6400  0.0493
 1187ANI     CN16605   0.537   4.935   1.650  0.1493 -0.0092  0.0040
 1187ANI     CH16606   0.652   4.888   1.585  0.2456  0.1942  0.0264
 1187ANI     CH16607   0.704   4.762   1.612  0.5135  0.4156  0.5432
 1187ANI     CH16608   0.632   4.676   1.696 -0.5604  0.5199 -0.2694
 1187ANI     CH16609   0.514   4.718   1.759 -0.6451 -0.3850  0.1836
 1187ANI     CH16610   0.474   4.852   1.743  0.4403 -0.0594  0.1577
 1187ANI     NH16611   0.492   5.061   1.636 -0.0479 -0.0365  0.4107
 1187ANI     HC16612   0.700   4.950   1.510  0.0946 -2.8888 -2.7275
 1187ANI     HC16613   0.790   4.717   1.563 -0.0582  1.1232 -1.1406
 1187ANI     HC16614   0.661   4.573   1.690  0.3057  0.7576 -0.2165
 1187ANI     HC16615   0.463   4.650   1.825 -1.7445 -0.2594 -0.5168
 1187ANI     HC16616   0.400   4.898   1.807  0.3029 -0.7086  0.4689
 1187ANI     HN16617   0.391   5.065   1.635  0.0226  2.2429 -0.1625
 1187ANI     HN16618   0.534   5.120   1.566  1.1335  0.3504  1.4319
 1188ANI     CN16619   2.211   3.254   0.713 -0.1783  0.0808 -0.1968
 1188ANI     CH16620   2.095   3.217   0.783  0.5767  0.1252  1.0896
 1188ANI     CH16621   2.098   3.131   0.893 -0.3790 -1.0056  0.2359
 1188ANI     CH16622   2.224   3.083   0.931  0.1293  0.1070 -0.0300
 1188ANI     CH16623   2.342   3.114   0.863  0.3865 -0.2140  0.2667
 1188ANI     CH16624   2.334   3.204   0.755 -0.5022 -0.4321  0.1435
 1188ANI     NH16625   2.200   3.320   0.597  0.1584 -0.4339 -0.5239
 1188ANI     HC16626   2.000   3.242   0.738  0.5073 -0.4054  0.9359
 1188ANI     HC16627   2.005   3.102   0.939  1.1587 -3.8106  1.6985
 1188ANI     HC16628   2.229   3.014   1.014  0.9250 -1.7806 -1.6178
 1188ANI     HC16629   2.436   3.075   0.897  0.5135 -0.1612 -0.0224
 1188ANI     HC16630   2.422   3.233   0.700 -0.5024  1.1408  0.9477
 1188ANI     HN16631   2.289   3.364   0.574 -0.6645  0.7847 -1.4907
 1188ANI     HN16632   2.122   3.374   0.563 -1.1995 -2.8709 -1.3626
 1189ANI     CN16633   6.029   0.456   5.175 -0.5399  0.0279  0.2576
 1189ANI     CH16634   6.105   0.533   5.262 -0.4833  0.1032  0.1415
 1189ANI     CH16635   6.046   0.595   5.374 -0.1110 -0.0929  0.4487
 1189ANI     CH16636   5.908   0.579   5.392 -0.1626  0.0877  0.2215
 1189ANI     CH16637   5.836   0.489   5.314 -0.2034 -0.4615  0.8859
 1189ANI     CH16638   5.895   0.426   5.203 -0.5268  0.1001  0.3933
 1189ANI     NH16639   6.087   0.401   5.067 -0.2809  0.6631  0.0766
 1189ANI     HC16640   6.212   0.548   5.251 -0.8204  1.3132 -1.7304
 1189ANI     HC16641   6.110   0.654   5.437  0.7368 -0.0801 -0.4010
 1189ANI     HC16642   5.872   0.630   5.480 -0.6965  0.2164 -0.0744
 1189ANI     HC16643   5.728   0.481   5.313 -0.2688  0.3890 -1.3476
 1189ANI     HC16644   5.839   0.355   5.144 -0.0419 -1.1992  1.4695
 1189ANI     HN16645   6.150   0.467   5.021 -1.1713 -0.3833 -2.7415
 1189ANI     HN16646   6.019   0.373   4.998  0.3451  1.7083 -0.9896
 1190ANI     CN16647   3.387   0.818   6.211 -0.0404  0.2044  0.3947
 1190ANI     CH16648   3.524   0.812   6.183 -0.1722  0.0843 -0.2309
 1190ANI     CH16649   3.595   0.933   6.177 -0.1642  0.0516 -0.7925
 1190ANI     CH16650   3.534   1.055   6.206 -0.0252 -0.0145 -0.2124
 1190ANI     CH16651   3.397   1.060   6.234 -0.0430  0.3962 -0.3605
 1190ANI     CH16652   3.324   0.940   6.237 -0.0018  0.3726 -0.3079
 1190ANI     NH16653   3.311   0.707   6.203  0.4832 -0.1033 -0.2935
 1190ANI     HC16654   3.578   0.722   6.161  0.0291 -0.0242  0.6716
 1190ANI     HC16655   3.702   0.939   6.167 -0.4356  3.0010 -2.7796
 1190ANI     HC16656   3.600   1.141   6.209 -1.7928  1.3361  1.3523
 1190ANI     HC16657   3.357   1.151   6.276  1.5645  1.0428 -0.2113
 1190ANI     HC16658   3.220   0.936   6.264  0.0898  0.3547  0.0414
 1190ANI     HN16659   3.220   0.719   6.244  1.2303  1.2668  1.0044
 1190ANI     HN16660   3.351   0.631   6.256  1.5943 -0.4603 -1.6207
 1191ANI     CN16661   3.689   4.806   6.019 -0.0860 -0.0067 -0.0190
 1191ANI     CH16662   3.701   4.910   6.112  0.6445  0.0081 -0.1257
 1191ANI     CH16663   3.741   5.038   6.070 -0.3886  0.4084  0.0907
 1191ANI     CH16664   3.777   5.054   5.935  0.0828  0.2873  0.2024
 1191ANI     CH16665   3.752   4.954   5.841 -0.6202  0.0822  0.6052
 1191ANI     CH16666   3.712   4.826   5.883  0.0471 -0.3402 -0.0477
 1191ANI     NH16667   3.674   4.681   6.067 -0.2186 -0.1336 -0.3928
 1191ANI     HC16668   3.682   4.903   6.218  0.3311 -0.0385 -0.1852
 1191ANI     HC16669   3.750   5.112   6.147  1.8548  0.1045  0.1594
 1191ANI     HC16670   3.822   5.148   5.906 -0.5664 -0.0363 -1.8804
 1191ANI     HC16671   3.783   4.959   5.738 -2.3825 -1.7688 -0.0609
 1191ANI     HC16672   3.723   4.744   5.814 -0.0997  0.4744 -1.0629
 1191ANI     HN16673   3.663   4.680   6.167  0.3103 -0.0664 -0.3366
 1191ANI     HN16674   3.587   4.642   6.033  0.0583  0.1784 -1.4775
 1192ANI     CN16675   0.532   3.944   2.800 -0.5293  0.5998  0.7264
 1192ANI     CH16676   0.401   3.943   2.751 -0.1297  0.0200 -0.3445
 1192ANI     CH16677   0.338   3.825   2.711 -0.0875  0.0337 -0.4525
 1192ANI     CH16678   0.409   3.705   2.723 -0.2368  0.0141  0.3038
 1192ANI     CH16679   0.540   3.701   2.773 -0.4186  0.3197  0.7977
 1192ANI     CH16680   0.600   3.822   2.811 -0.3653  0.6080 -0.1904
 1192ANI     NH16681   0.587   4.061   2.835  0.2439  0.4217  0.1043
 1192ANI     HC16682   0.357   4.042   2.746  0.9792  0.5069 -0.7294
 1192ANI     HC16683   0.234   3.833   2.681 -0.0851  1.8770 -0.0040
 1192ANI     HC16684   0.351   3.618   2.695  0.0340  0.2069 -0.9144
 1192ANI     HC16685   0.598   3.611   2.787 -0.7909 -0.2493 -1.1813
 1192ANI     HC16686   0.703   3.825   2.844 -0.2798 -0.1515 -0.3853
 1192ANI     HN16687   0.537   4.148   2.827 -1.0307 -0.4410 -1.5311
 1192ANI     HN16688   0.685   4.074   2.811  0.8592 -0.9341  1.7842
 1193ANI     CN16689   0.266   5.133   5.289  0.1583 -0.7919 -0.1217
 1193ANI     CH16690   0.404   5.152   5.271  0.0021  0.4104 -0.0785
 1193ANI     CH16691   0.490   5.138   5.380 -0.4307 -0.0479  0.2075
 1193ANI     CH16692   0.444   5.101   5.507 -0.2772  0.6952  0.4841
 1193ANI     CH16693   0.311   5.060   5.517 -0.0500 -0.0322  0.5869
 1193ANI     CH16694   0.222   5.080   5.411  0.3925 -0.3633  0.1519
 1193ANI     NH16695   0.181   5.150   5.188 -0.2680  0.1004  0.3864
 1193ANI     HC16696   0.442   5.187   5.176 -0.6628  1.2043 -0.0616
 1193ANI     HC16697   0.594   5.167   5.369 -0.4606  0.3722  0.9462
 1193ANI     HC16698   0.508   5.076   5.591  1.5494 -1.5349 -1.4889
 1193ANI     HC16699   0.270   5.013   5.606  1.5031 -1.2327  0.6844
 1193ANI     HC16700   0.118   5.054   5.423  0.1678  0.4098 -0.0669
 1193ANI     HN16701   0.201   5.231   5.130  1.7215  0.4232  1.4878
 1193ANI     HN16702   0.083   5.132   5.206 -0.0846 -0.6207  0.6525
 1194ANI     CN16703   3.771   0.055   0.975 -0.0813 -0.0983 -0.0109
 1194ANI     CH16704   3.704   0.165   1.029  0.4358  0.0405  0.3468
 1194ANI     CH16705   3.620   0.148   1.140  0.0890 -0.4227  0.0127
 1194ANI     CH16706   3.593   0.019   1.187 -0.1155 -0.1509  0.6439
 1194ANI     CH16707   3.652  -0.093   1.128 -0.2775  0.0498  0.1057
 1194ANI     CH16708   3.744  -0.074   1.024 -0.0851  0.0096  0.2694
 1194ANI     NH16709   3.840   0.065   0.861 -0.2337  0.4604 -0.0553
 1194ANI     HC16710   3.717   0.266   0.995 -0.1330  0.0591  0.1865
 1194ANI     HC16711   3.573   0.226   1.198  0.5123 -1.5584  1.9041
 1194ANI     HC16712   3.533   0.012   1.277  3.3866  1.3992  3.2556
 1194ANI     HC16713   3.627  -0.195   1.154  0.4448 -1.2689 -3.9803
 1194ANI     HC16714   3.800  -0.154   0.978  1.3778  1.6157 -0.8468
 1194ANI     HN16715   3.801   0.013   0.784 -0.1916 -0.3562  0.4713
 1194ANI     HN16716   3.863   0.161   0.841 -0.1125  1.0235  2.5940
 1195ANI     CN16717   4.931   2.016   0.868  0.0264  0.2314 -0.1870
 1195ANI     CH16718   4.976   2.110   0.962  0.2630  0.4718 -0.5360
 1195ANI     CH16719   4.903   2.225   0.995 -0.4656 -0.1387  0.0061
 1195ANI     CH16720   4.784   2.249   0.925 -0.6217 -0.0785  0.2934
 1195ANI     CH16721   4.750   2.168   0.816 -0.1281 -0.0448  0.1127
 1195ANI     CH16722   4.813   2.045   0.799 -0.4535 -0.2566  0.4230
 1195ANI     NH16723   4.979   1.891   0.865  0.0074  0.2158  0.1396
 1195ANI     HC16724   5.061   2.093   1.028  0.4356  2.6067 -0.1677
 1195ANI     HC16725   4.935   2.284   1.079  2.5003  0.0158 -1.1781
 1195ANI     HC16726   4.724   2.333   0.956 -0.2551  0.3245 -0.1066
 1195ANI     HC16727   4.662   2.194   0.759 -0.7020 -0.0939  0.9636
 1195ANI     HC16728   4.777   1.972   0.728 -0.2873 -1.7766  1.8815
 1195ANI     HN16729   5.034   1.862   0.944 -2.4924 -2.0660  1.1189
 1195ANI     HN16730   4.910   1.818   0.853  1.1051 -0.7636 -0.3176
 1196ANI     CN16731   1.577   2.068   0.903 -0.0059  0.2599  0.3789
 1196ANI     CH16732   1.530   1.937   0.902  0.4102  0.1135  0.0315
 1196ANI     CH16733   1.432   1.893   0.812  0.5282  0.5382 -0.3049
 1196ANI     CH16734   1.385   1.985   0.718 -0.7943  0.0324 -0.1477
 1196ANI     CH16735   1.440   2.113   0.709 -0.8959  0.0895  0.0366
 1196ANI     CH16736   1.537   2.155   0.801  0.1338 -0.8402 -0.6195
 1196ANI     NH16737   1.681   2.101   0.981  0.7632 -0.8269 -0.1926
 1196ANI     HC16738   1.578   1.867   0.969 -2.3788 -1.6477  0.2895
 1196ANI     HC16739   1.413   1.787   0.798 -0.6177  0.5868  0.8455
 1196ANI     HC16740   1.308   1.955   0.648 -1.2981 -0.4684  0.6145
 1196ANI     HC16741   1.402   2.179   0.632  1.5358  2.1427  0.5148
 1196ANI     HC16742   1.586   2.251   0.790 -0.2525 -0.2312  2.3873
 1196ANI     HN16743   1.661   2.099   1.079 -0.3076  0.7252 -0.3660
 1196ANI     HN16744   1.714   2.194   0.961  2.8916 -1.8390 -1.6493
 1197ANI     CN16745   4.322   4.826   5.993 -0.3179  0.2307  0.3926
 1197ANI     CH16746   4.300   4.688   5.991  0.0118  0.1904 -0.8614
 1197ANI     CH16747   4.167   4.648   5.979  0.1657 -0.7188  0.3349
 1197ANI     CH16748   4.060   4.738   5.981  0.4582 -0.3495 -0.3684
 1197ANI     CH16749   4.084   4.875   6.001  0.0498 -0.2320 -0.6705
 1197ANI     CH16750   4.217   4.919   6.000 -0.1646  0.4366  0.0087
 1197ANI     NH16751   4.450   4.866   5.997  0.0919 -1.0458  0.2493
 1197ANI     HC16752   4.386   4.622   5.999 -0.8615 -0.7303  1.2660
 1197ANI     HC16753   4.153   4.542   5.962 -2.0853 -0.5543  0.9958
 1197ANI     HC16754   3.957   4.705   5.980 -0.9766  3.7736 -1.4273
 1197ANI     HC16755   4.009   4.952   6.012  0.2626 -0.0731 -0.3237
 1197ANI     HC16756   4.241   5.024   6.006  0.7383  0.1951  0.7572
 1197ANI     HN16757   4.451   4.961   6.032  1.2971 -0.7392 -0.5992
 1197ANI     HN16758   4.516   4.820   6.058  0.6086  2.0598  2.1561
 1198ANI     CN16759   0.673   4.151   1.870 -0.1545 -0.2438 -0.3558
 1198ANI     CH16760   0.773   4.154   1.772 -0.5075  0.5019 -0.6957
 1198ANI     CH16761   0.753   4.223   1.651  0.2894 -0.5379 -1.4261
 1198ANI     CH16762   0.638   4.301   1.641  0.4847  0.0019  0.3504
 1198ANI     CH16763   0.536   4.296   1.737  0.0208 -0.2290 -0.1552
 1198ANI     CH16764   0.558   4.229   1.858  0.3006  0.5283  0.2189
 1198ANI     NH16765   0.698   4.085   1.984 -0.3993 -0.2822 -0.3237
 1198ANI     HC16766   0.869   4.108   1.793 -0.8054 -0.1693 -0.7947
 1198ANI     HC16767   0.830   4.232   1.576  1.6507 -0.8156 -0.1003
 1198ANI     HC16768   0.627   4.360   1.551  1.6233 -0.3729 -0.0401
 1198ANI     HC16769   0.457   4.369   1.720  1.4313  1.2029 -0.6530
 1198ANI     HC16770   0.484   4.235   1.936 -1.3654  0.4893 -1.3035
 1198ANI     HN16771   0.755   4.002   1.973  0.2190 -0.2192  2.1328
 1198ANI     HN16772   0.633   4.079   2.060  0.5108 -0.8986  0.4268
 1199ANI     CN16773   5.117   1.660   4.281  0.3457 -0.0649 -0.6500
 1199ANI     CH16774   5.137   1.573   4.173  0.1692 -0.3454 -0.4592
 1199ANI     CH16775   5.047   1.556   4.067 -0.3710 -0.3505 -0.0043
 1199ANI     CH16776   4.935   1.640   4.070 -0.3873 -0.3761  0.1486
 1199ANI     CH16777   4.908   1.722   4.180 -0.2450  0.2205 -0.2587
 1199ANI     CH16778   4.997   1.733   4.287  0.0728 -0.5265 -0.4495
 1199ANI     NH16779   5.207   1.667   4.381 -0.6254  0.8081  0.1763
 1199ANI     HC16780   5.221   1.505   4.173 -0.0017 -0.6169  2.0790
 1199ANI     HC16781   5.076   1.473   4.005  1.3484 -0.0132  0.2963
 1199ANI     HC16782   4.872   1.645   3.983 -0.1001  1.0655  0.0083
 1199ANI     HC16783   4.813   1.774   4.181  0.6273  1.8231  0.2584
 1199ANI     HC16784   4.977   1.791   4.376  0.5623 -0.3656 -0.4387
 1199ANI     HN16785   5.169   1.666   4.474 -2.0568  1.3367 -0.3855
 1199ANI     HN16786   5.276   1.594   4.384 -1.3806  0.1103  1.1726
 1200ANI     CN16787   0.691   2.217   1.296 -0.2977 -0.4241 -0.4770
 1200ANI     CH16788   0.823   2.207   1.251  0.1524 -0.0789  0.7387
 1200ANI     CH16789   0.859   2.215   1.115 -0.5604 -0.7901  0.5037
 1200ANI     CH16790   0.759   2.247   1.023  0.1237 -1.0494 -0.3279
 1200ANI     CH16791   0.626   2.264   1.064  0.2609 -0.1665 -0.2332
 1200ANI     CH16792   0.594   2.248   1.200 -0.2927 -0.0037 -0.3442
 1200ANI     NH16793   0.657   2.210   1.425  0.0783 -0.2531 -0.3678
 1200ANI     HC16794   0.905   2.192   1.319 -0.8971 -1.0370  1.8209
 1200ANI     HC16795   0.964   2.208   1.092 -0.5772  2.5614 -0.8331
 1200ANI     HC16796   0.787   2.246   0.918  2.1426 -4.7324  0.1756
 1200ANI     HC16797   0.542   2.285   1.000 -0.9143  0.3467  1.4240
 1200ANI     HC16798   0.491   2.256   1.229  0.7002 -1.6708  4.0501
 1200ANI     HN16799   0.720   2.251   1.492 -0.0204  0.3717 -0.6591
 1200ANI     HN16800   0.570   2.255   1.450  0.0409 -0.0557 -0.8521
 1201ANI     CN16801   0.192   1.428   5.455 -0.3131  0.8908  0.5574
 1201ANI     CH16802   0.292   1.476   5.370 -0.0619 -0.4564  0.0830
 1201ANI     CH16803   0.427   1.457   5.400 -0.0202 -0.2479  0.0235
 1201ANI     CH16804   0.464   1.386   5.514  0.0284 -0.4123 -0.0940
 1201ANI     CH16805   0.361   1.339   5.597 -0.1063  0.2288  0.1033
 1201ANI     CH16806   0.224   1.354   5.570 -0.1029  0.3362  0.1479
 1201ANI     NH16807   0.063   1.456   5.434 -0.5693 -0.0331  0.8359
 1201ANI     HC16808   0.264   1.543   5.290 -2.2613 -0.1677  1.0622
 1201ANI     HC16809   0.508   1.495   5.339 -1.4808 -0.5330 -2.1433
 1201ANI     HC16810   0.566   1.357   5.532 -0.0022 -0.4183  0.0803
 1201ANI     HC16811   0.383   1.273   5.680  2.6692 -1.3682 -1.8167
 1201ANI     HC16812   0.145   1.311   5.629  1.1014 -0.5631  1.1325
 1201ANI     HN16813  -0.005   1.409   5.491 -2.7450  1.5885 -0.3282
 1201ANI     HN16814   0.025   1.478   5.343 -0.4394 -1.9038  0.3173
 1202ANI     CN16815   2.626   1.273   2.336  0.1472  0.0147  0.3642
 1202ANI     CH16816   2.738   1.217   2.399  0.2991 -0.5531 -0.3997
 1202ANI     CH16817   2.794   1.093   2.366  0.4362 -0.4066 -0.7146
 1202ANI     CH16818   2.719   1.011   2.282 -0.2082 -0.7225  0.1566
 1202ANI     CH16819   2.603   1.064   2.225 -0.0608 -0.2542  0.2973
 1202ANI     CH16820   2.552   1.193   2.249  0.3767 -0.0719  0.2492
 1202ANI     NH16821   2.576   1.390   2.377  0.6172  0.5130 -0.4713
 1202ANI     HC16822   2.797   1.286   2.458 -0.7491 -1.2928  1.5671
 1202ANI     HC16823   2.886   1.054   2.408 -0.9725 -1.0707  1.8965
 1202ANI     HC16824   2.753   0.908   2.274  1.8659 -0.1291  1.0771
 1202ANI     HC16825   2.544   0.999   2.163  0.8491 -0.8986  0.0917
 1202ANI     HC16826   2.461   1.230   2.204  1.0315  1.5342  0.2070
 1202ANI     HN16827   2.601   1.420   2.471 -0.1742 -0.4834  0.0597
 1202ANI     HN16828   2.475   1.387   2.376  0.6549 -2.8461 -0.0063
 1203ANI     CN16829   2.561   2.715   6.132  0.1492 -0.5187  0.2414
 1203ANI     CH16830   2.613   2.802   6.229  0.2809 -0.4303  0.0917
 1203ANI     CH16831   2.583   2.781   6.364  0.0005  0.3160  0.1473
 1203ANI     CH16832   2.506   2.668   6.396 -0.1483  0.2716 -0.3629
 1203ANI     CH16833   2.468   2.570   6.303  0.4651 -0.1406 -0.1812
 1203ANI     CH16834   2.490   2.600   6.168 -0.7100 -0.1898 -0.3862
 1203ANI     NH16835   2.579   2.735   6.001  0.0326  0.0409  0.3104
 1203ANI     HC16836   2.660   2.896   6.203 -1.0872  0.3981  0.5634
 1203ANI     HC16837   2.618   2.852   6.437  0.9525  0.0148 -0.0123
 1203ANI     HC16838   2.491   2.656   6.502 -0.0717  1.2411 -0.2432
 1203ANI     HC16839   2.412   2.482   6.334  2.2251 -1.7678 -1.4765
 1203ANI     HC16840   2.456   2.533   6.091  0.7639 -1.2440 -0.1403
 1203ANI     HN16841   2.609   2.829   5.978 -0.2919  0.0017 -0.2688
 1203ANI     HN16842   2.519   2.693   5.932  1.7720 -0.9598 -0.6363
 1204ANI     CN16843   2.092   1.449   1.883  0.0464 -0.0831  0.3179
 1204ANI     CH16844   2.124   1.397   2.009  0.0561  0.1022  0.3932
 1204ANI     CH16845   2.258   1.374   2.046  0.1297 -0.4668 -0.2094
 1204ANI     CH16846   2.358   1.408   1.955 -0.0989  0.4275 -0.1319
 1204ANI     CH16847   2.323   1.466   1.832  0.4287  0.7595 -0.1307
 1204ANI     CH16848   2.191   1.487   1.792  0.1288 -0.0853  0.4053
 1204ANI     NH16849   1.962   1.473   1.860  0.1044  0.3353  0.4117
 1204ANI     HC16850   2.045   1.375   2.080 -1.7248  0.4353 -1.4499
 1204ANI     HC16851   2.274   1.345   2.148 -1.4762  3.1252  1.1850
 1204ANI     HC16852   2.462   1.400   1.983  0.0179 -0.3798 -0.7797
 1204ANI     HC16853   2.396   1.495   1.758  1.1897 -0.0606  0.2916
 1204ANI     HC16854   2.172   1.544   1.702  1.4134 -1.5163 -0.8122
 1204ANI     HN16855   1.887   1.454   1.925 -1.4563 -2.1537 -1.9967
 1204ANI     HN16856   1.934   1.528   1.780  0.2468 -0.1901 -0.0014
 1205ANI     CN16857   4.910   5.017   4.676 -0.2180 -0.0802  0.3651
 1205ANI     CH16858   4.789   4.971   4.624 -0.2804 -0.1612  0.5820
 1205ANI     CH16859   4.680   4.943   4.708 -0.6278 -0.0283  0.1773
 1205ANI     CH16860   4.688   4.972   4.844 -0.2056  0.1007  0.1261
 1205ANI     CH16861   4.808   5.022   4.895 -0.0905 -0.0731  0.0255
 1205ANI     CH16862   4.915   5.055   4.810 -0.4639  1.1491  0.0254
 1205ANI     NH16863   5.020   5.023   4.599 -0.4719 -0.2068 -0.0132
 1205ANI     HC16864   4.776   4.945   4.520  0.0748  2.1270 -0.0586
 1205ANI     HC16865   4.595   4.892   4.666 -1.8054  0.3144  2.0945
 1205ANI     HC16866   4.601   4.949   4.904 -0.6604 -1.8179 -1.2116
 1205ANI     HC16867   4.813   5.036   5.002 -0.9320  0.6474 -0.0271
 1205ANI     HC16868   4.999   5.098   4.863 -0.1600  1.4886 -0.7228
 1205ANI     HN16869   4.997   4.994   4.505  1.1555  0.7003 -0.7039
 1205ANI     HN16870   5.061   5.115   4.597 -1.5827  0.2873 -0.3562
 1206ANI     CN16871   3.584   5.269   5.569  0.2105  0.1944  0.4642
 1206ANI     CH16872   3.458   5.310   5.615 -0.2185  0.2459 -0.7343
 1206ANI     CH16873   3.370   5.218   5.672  0.5968 -0.0219  0.1106
 1206ANI     CH16874   3.407   5.083   5.668  0.4173 -0.0812  0.3827
 1206ANI     CH16875   3.528   5.040   5.612  0.4200  0.4463 -0.0179
 1206ANI     CH16876   3.622   5.134   5.568  0.4554  0.2675 -0.3285
 1206ANI     NH16877   3.661   5.360   5.508  0.3362 -0.1017  0.1795
 1206ANI     HC16878   3.427   5.414   5.618 -0.7531  0.0661 -0.0524
 1206ANI     HC16879   3.280   5.249   5.723  0.0520  0.2519 -0.9957
 1206ANI     HC16880   3.333   5.009   5.697  0.5181 -0.0516  0.7149
 1206ANI     HC16881   3.554   4.935   5.617 -0.9714  0.0444 -0.8789
 1206ANI     HC16882   3.707   5.100   5.512  1.7426  0.5437  1.4182
 1206ANI     HN16883   3.703   5.340   5.418  0.3216  1.8744 -0.2940
 1206ANI     HN16884   3.612   5.449   5.497  0.7380 -0.0784 -1.5918
 1207ANI     CN16885   0.832   4.167   0.956 -0.1375  0.3767 -0.1221
 1207ANI     CH16886   0.704   4.223   0.967 -0.3746 -0.2351  0.2624
 1207ANI     CH16887   0.603   4.169   0.886 -0.2508  0.1524 -0.1506
 1207ANI     CH16888   0.626   4.065   0.796 -0.6220  0.1715 -0.2715
 1207ANI     CH16889   0.755   4.009   0.788 -0.5516  0.2469  0.2988
 1207ANI     CH16890   0.855   4.058   0.872 -0.5278 -0.2253  0.5425
 1207ANI     NH16891   0.933   4.216   1.030 -0.3558 -0.3392  0.6656
 1207ANI     HC16892   0.689   4.309   1.029 -0.5913  0.1125 -0.2667
 1207ANI     HC16893   0.499   4.195   0.898  0.3507  1.5378  2.4311
 1207ANI     HC16894   0.549   4.026   0.732  0.5412  0.9240 -2.1789
 1207ANI     HC16895   0.774   3.923   0.725 -0.5544 -1.1639  2.1995
 1207ANI     HC16896   0.953   4.013   0.857 -1.0907 -0.5886 -2.3342
 1207ANI     HN16897   0.898   4.307   1.058 -0.7925 -0.1540 -0.4176
 1207ANI     HN16898   1.022   4.226   0.984 -0.8945  1.1129 -0.1142
 1208ANI     CN16899   2.818   2.431   4.110  0.2153 -0.2524  0.1698
 1208ANI     CH16900   2.769   2.300   4.095  0.0674 -0.1637 -0.1085
 1208ANI     CH16901   2.711   2.264   3.972  0.3418  0.2677 -0.3682
 1208ANI     CH16902   2.722   2.350   3.863 -0.1530 -0.0553 -0.6742
 1208ANI     CH16903   2.774   2.479   3.877  0.1990 -0.3201  0.4985
 1208ANI     CH16904   2.829   2.517   4.000  0.1170  0.0752  0.4156
 1208ANI     NH16905   2.872   2.464   4.228 -0.0826 -0.1292  0.2707
 1208ANI     HC16906   2.762   2.234   4.180  1.1615  1.0155  0.9147
 1208ANI     HC16907   2.657   2.171   3.962  0.5684 -0.2138  2.4891
 1208ANI     HC16908   2.679   2.323   3.767 -1.7585 -1.1910  0.3553
 1208ANI     HC16909   2.752   2.552   3.801 -0.5503  0.2010  1.2121
 1208ANI     HC16910   2.860   2.620   4.008 -1.5064  0.5961  0.0786
 1208ANI     HN16911   2.904   2.559   4.215 -2.6693  1.2543  3.1493
 1208ANI     HN16912   2.962   2.420   4.220 -0.8568 -1.6513 -0.1471
 1209ANI     CN16913   5.170   2.498   3.718  0.2994  0.1319  0.1402
 1209ANI     CH16914   5.180   2.546   3.587  0.5406 -0.0606  0.0880
 1209ANI     CH16915   5.175   2.683   3.557 -1.3127 -0.1724 -0.2053
 1209ANI     CH16916   5.181   2.779   3.658 -0.0176 -0.3034 -0.1476
 1209ANI     CH16917   5.171   2.733   3.790 -0.0922  0.4694  0.1208
 1209ANI     CH16918   5.157   2.596   3.817  0.6287  0.3593 -0.0403
 1209ANI     NH16919   5.165   2.366   3.736  0.2346  0.0687 -0.3247
 1209ANI     HC16920   5.175   2.474   3.507  0.3238 -0.1011  0.1355
 1209ANI     HC16921   5.187   2.722   3.457  3.9291 -1.1172 -0.1207
 1209ANI     HC16922   5.179   2.882   3.626 -0.8887 -0.0590  0.6612
 1209ANI     HC16923   5.180   2.796   3.878  0.7107  0.4983  0.0283
 1209ANI     HC16924   5.128   2.565   3.916  1.7332 -2.4617 -0.5531
 1209ANI     HN16925   5.189   2.342   3.832  0.9623  1.5616 -0.1212
 1209ANI     HN16926   5.225   2.317   3.671  1.5795 -0.6567  1.3906
 1210ANI     CN16927   0.000   4.759   2.933 -0.0952  0.6442 -0.1899
 1210ANI     CH16928  -0.026   4.637   2.869  0.5997  0.4798 -0.1583
 1210ANI     CH16929  -0.153   4.618   2.815  0.5331  0.3000  0.0572
 1210ANI     CH16930  -0.256   4.712   2.823  0.5803  0.3906 -0.3704
 1210ANI     CH16931  -0.229   4.826   2.900 -0.0016  0.0546  0.3314
 1210ANI     CH16932  -0.102   4.853   2.951 -0.2870  0.2269  0.9758
 1210ANI     NH16933   0.110   4.782   3.006 -0.3285 -0.3083  0.4786
 1210ANI     HC16934   0.054   4.564   2.862 -0.6979 -0.7438 -2.5784
 1210ANI     HC16935  -0.180   4.529   2.759 -1.5928  0.2979  1.0439
 1210ANI     HC16936  -0.353   4.692   2.780  0.9420 -0.8045 -0.6522
 1210ANI     HC16937  -0.306   4.902   2.903 -1.2740 -1.1302 -1.2499
 1210ANI     HC16938  -0.090   4.946   3.005  1.4150  0.6581 -0.1035
 1210ANI     HN16939   0.185   4.730   2.963 -0.9686  0.6212 -1.8978
 1210ANI     HN16940   0.134   4.880   3.003  0.4858 -0.4693  1.6298
 1211ANI     CN16941   2.163   5.775   5.491 -0.4886  0.5722  0.0890
 1211ANI     CH16942   2.082   5.887   5.513 -0.9592  0.1802  0.3500
 1211ANI     CH16943   2.127   6.014   5.476  0.2109 -0.3193  0.0150
 1211ANI     CH16944   2.247   6.026   5.406  0.5092  0.3213  0.6212
 1211ANI     CH16945   2.321   5.912   5.372 -0.1786  0.0569  0.0012
 1211ANI     CH16946   2.282   5.785   5.418 -0.3894  0.1911  0.1953
 1211ANI     NH16947   2.124   5.653   5.529 -0.8285  0.6115 -0.1373
 1211ANI     HC16948   1.991   5.884   5.570 -1.0381  0.7457  0.2508
 1211ANI     HC16949   2.064   6.100   5.494 -1.3926 -1.0279 -2.0755
 1211ANI     HC16950   2.290   6.124   5.391  0.7473  0.2000  0.5025
 1211ANI     HC16951   2.416   5.927   5.324  0.2479 -1.1540  0.4515
 1211ANI     HC16952   2.337   5.694   5.397  1.0937  1.4946 -1.7823
 1211ANI     HN16953   2.025   5.651   5.508 -1.5600  0.0575  3.1077
 1211ANI     HN16954   2.158   5.588   5.460  2.5363  0.0048  1.9904
 1212ANI     CN16955   3.571   1.475   3.541  0.1649 -0.3449 -0.0879
 1212ANI     CH16956   3.663   1.541   3.458 -0.1046  0.1564  0.0091
 1212ANI     CH16957   3.630   1.639   3.364 -0.2294 -0.2204 -0.3422
 1212ANI     CH16958   3.494   1.659   3.338 -0.2716  0.7300  0.5957
 1212ANI     CH16959   3.400   1.591   3.417  0.1380 -0.1943  0.2875
 1212ANI     CH16960   3.435   1.496   3.514  0.1213 -0.4310  0.0648
 1212ANI     NH16961   3.618   1.404   3.645  0.7355  0.2481  0.0588
 1212ANI     HC16962   3.767   1.532   3.486  0.4827 -0.5664 -2.2957
 1212ANI     HC16963   3.705   1.701   3.319  0.2614 -1.0677 -0.6991
 1212ANI     HC16964   3.456   1.723   3.260  1.6806 -0.3952 -1.3115
 1212ANI     HC16965   3.293   1.602   3.405  0.2053  0.4063  0.2076
 1212ANI     HC16966   3.353   1.450   3.567  0.4487 -2.2338 -0.9665
 1212ANI     HN16967   3.553   1.338   3.685 -0.5625  1.3969 -0.1088
 1212ANI     HN16968   3.709   1.362   3.641  0.7904 -0.1296  3.6630
 1213ANI     CN16969   2.085   4.295   1.791  0.4780  0.7241  0.2378
 1213ANI     CH16970   2.166   4.200   1.854  0.0658  0.0128 -0.2879
 1213ANI     CH16971   2.165   4.068   1.808 -0.1172  0.2437 -0.9395
 1213ANI     CH16972   2.089   4.030   1.696 -0.4330 -0.6674 -0.4218
 1213ANI     CH16973   2.007   4.125   1.634 -0.0388  0.2931  0.5169
 1213ANI     CH16974   2.014   4.259   1.675  0.0636  0.2498  0.6357
 1213ANI     NH16975   2.068   4.417   1.842 -0.3294  0.6423  0.1679
 1213ANI     HC16976   2.220   4.215   1.947 -3.2030 -2.0405  2.0400
 1213ANI     HC16977   2.224   3.987   1.848 -1.6566 -1.3836 -1.8742
 1213ANI     HC16978   2.085   3.927   1.665 -2.3321 -0.5179 -0.7427
 1213ANI     HC16979   1.948   4.107   1.545  1.1289  0.0514 -0.2218
 1213ANI     HC16980   1.947   4.336   1.640  0.3625  0.7208  1.0844
 1213ANI     HN16981   2.008   4.474   1.784 -0.0096 -0.2870 -1.0935
 1213ANI     HN16982   2.158   4.463   1.845  0.8799 -1.5467 -1.3809
 1214ANI     CN16983   5.331   5.690   5.726  0.2435  0.3569  0.2606
 1214ANI     CH16984   5.414   5.587   5.772  0.2850  0.2645 -0.0206
 1214ANI     CH16985   5.551   5.593   5.744  0.3441 -0.3039  0.1507
 1214ANI     CH16986   5.603   5.702   5.673  0.1634 -0.1460  0.2600
 1214ANI     CH16987   5.516   5.795   5.616  0.4160  0.1858  0.4161
 1214ANI     CH16988   5.378   5.793   5.643  0.3857  0.2978  0.2681
 1214ANI     NH16989   5.204   5.703   5.768  0.1116  0.1120 -0.0626
 1214ANI     HC16990   5.382   5.508   5.838  1.7101 -0.8649 -0.6476
 1214ANI     HC16991   5.618   5.534   5.805 -0.1678  0.5417  1.5625
 1214ANI     HC16992   5.709   5.719   5.679  0.9639 -3.3076 -3.2426
 1214ANI     HC16993   5.550   5.879   5.559 -2.9140  1.1535 -0.2547
 1214ANI     HC16994   5.325   5.874   5.595  0.3603 -0.6058 -1.2526
 1214ANI     HN16995   5.196   5.682   5.866 -1.0099 -1.2233 -0.4361
 1214ANI     HN16996   5.177   5.798   5.750 -0.6644  0.2968  1.9701
 1215ANI     CN16997   4.137   1.122   4.313 -0.2799  0.2990  0.4520
 1215ANI     CH16998   4.015   1.188   4.297 -0.0711  0.5593 -0.0907
 1215ANI     CH16999   3.984   1.245   4.173 -0.4600 -0.1753 -0.3349
 1215ANI     CH17000   4.078   1.245   4.069  0.1440  0.3800  0.2140
 1215ANI     CH17001   4.200   1.178   4.083  0.0703  0.1160 -0.3919
 1215ANI     CH17002   4.230   1.120   4.208 -0.6291  0.8729  0.1301
 1215ANI     NH17003   4.165   1.070   4.433  0.3131 -0.0496  0.1659
 1215ANI     HC17004   3.941   1.180   4.375  1.3360  2.2255  1.4690
 1215ANI     HC17005   3.890   1.293   4.149 -1.0968 -1.5981 -0.7649
 1215ANI     HC17006   4.049   1.290   3.976  0.5889 -1.0978 -0.6518
 1215ANI     HC17007   4.278   1.178   4.008  1.7685  0.2466  1.3344
 1215ANI     HC17008   4.321   1.065   4.223 -1.1679 -0.6509 -1.8836
 1215ANI     HN17009   4.082   1.068   4.491 -0.1962 -0.7274 -0.5602
 1215ANI     HN17010   4.222   0.987   4.439 -1.0256 -0.9903  0.2493
 1216ANI     CN17011   0.228   3.245   2.041 -0.6230 -0.4697 -0.2652
 1216ANI     CH17012   0.173   3.237   2.169 -0.3160  0.2859 -0.0846
 1216ANI     CH17013   0.086   3.336   2.218  0.1608  0.8608 -0.3853
 1216ANI     CH17014   0.045   3.442   2.137 -0.3719  0.8175 -0.1740
 1216ANI     CH17015   0.104   3.452   2.011 -0.1400 -0.4064 -0.1678
 1216ANI     CH17016   0.190   3.354   1.961 -0.1331 -0.3302 -0.3075
 1216ANI     NH17017   0.313   3.152   1.996 -0.4176 -0.2659 -0.3004
 1216ANI     HC17018   0.197   3.159   2.240 -0.2243 -1.2371 -1.7646
 1216ANI     HC17019   0.039   3.330   2.315  1.7792  0.7940  0.4013
 1216ANI     HC17020  -0.012   3.522   2.182 -0.7965  1.6094 -2.0624
 1216ANI     HC17021   0.081   3.540   1.952  0.1436 -1.9763 -2.7409
 1216ANI     HC17022   0.226   3.368   1.860 -0.2185  0.0207 -0.2884
 1216ANI     HN17023   0.290   3.060   2.032  0.7769  0.5515  2.7669
 1216ANI     HN17024   0.285   3.157   1.900 -0.6288  2.4196 -0.1301
 1217ANI     CN17025   0.643   3.160   5.506 -0.0960 -0.3061 -0.0818
 1217ANI     CH17026   0.602   3.119   5.378  0.1767 -0.1144 -0.2303
 1217ANI     CH17027   0.577   3.217   5.282  0.4946  0.1227 -0.0745
 1217ANI     CH17028   0.587   3.353   5.311  0.0927  0.1860 -0.2321
 1217ANI     CH17029   0.631   3.396   5.437  0.6355  0.0704 -0.3853
 1217ANI     CH17030   0.658   3.296   5.532  0.4275 -0.2503 -0.6606
 1217ANI     NH17031   0.682   3.064   5.591  0.3565  0.5097  0.6316
 1217ANI     HC17032   0.599   3.014   5.352 -0.0606  0.2177 -1.5695
 1217ANI     HC17033   0.566   3.200   5.176 -0.0264 -1.4886  0.2267
 1217ANI     HC17034   0.566   3.423   5.231  0.3310  0.8723  0.2995
 1217ANI     HC17035   0.657   3.500   5.452 -1.9123  0.4205  1.8498
 1217ANI     HC17036   0.691   3.330   5.629 -1.4831  0.3774 -0.1877
 1217ANI     HN17037   0.654   2.968   5.578 -0.0888  0.6838  0.2737
 1217ANI     HN17038   0.702   3.075   5.689 -0.3925 -2.3138  1.1452
 1218ANI     CN17039   1.710   5.240   4.841 -0.1563 -0.4555 -0.2044
 1218ANI     CH17040   1.658   5.125   4.902 -0.3889 -0.2144  0.0561
 1218ANI     CH17041   1.742   5.019   4.938  0.4479  0.3277 -0.2861
 1218ANI     CH17042   1.881   5.034   4.925  0.5447 -0.0117  0.3227
 1218ANI     CH17043   1.931   5.153   4.871 -0.1083  0.0568 -0.1497
 1218ANI     CH17044   1.848   5.258   4.831 -0.1999  0.0890  0.1228
 1218ANI     NH17045   1.620   5.334   4.809  0.1367  0.0360  0.4013
 1218ANI     HC17046   1.553   5.121   4.929 -0.8664  1.3698 -1.4468
 1218ANI     HC17047   1.695   4.934   4.986  1.4652  1.0217  2.0316
 1218ANI     HC17048   1.946   4.964   4.974  0.7550 -0.4092 -0.5154
 1218ANI     HC17049   2.036   5.174   4.854 -0.1437 -0.8889 -1.5849
 1218ANI     HC17050   1.889   5.348   4.788  1.1286 -0.5323  0.0695
 1218ANI     HN17051   1.670   5.422   4.801  1.6766 -0.8843 -0.2093
 1218ANI     HN17052   1.531   5.345   4.856  0.3276  1.6763  0.4145
 1219ANI     CN17053   5.132   1.553   0.834 -0.1159  0.0201 -0.1953
 1219ANI     CH17054   5.009   1.568   0.768  0.1262  0.9328 -0.4436
 1219ANI     CH17055   4.981   1.504   0.646  0.0546 -0.2638  0.1878
 1219ANI     CH17056   5.080   1.427   0.584  0.1720 -0.4250  0.5716
 1219ANI     CH17057   5.200   1.405   0.653  0.5412  0.4306  0.2163
 1219ANI     CH17058   5.227   1.471   0.774  0.5923  0.6226  0.1003
 1219ANI     NH17059   5.147   1.617   0.951  0.2937 -0.5572  0.0725
 1219ANI     HC17060   4.937   1.628   0.821 -1.7740  0.3028 -2.2155
 1219ANI     HC17061   4.885   1.516   0.599 -0.5250 -3.1231  0.5482
 1219ANI     HC17062   5.054   1.374   0.494 -0.1908 -0.0849  0.4695
 1219ANI     HC17063   5.265   1.337   0.600  1.1321  0.8033  0.4677
 1219ANI     HC17064   5.326   1.455   0.814  0.7011  0.2463 -0.3062
 1219ANI     HN17065   5.204   1.700   0.936 -0.3035 -0.0014  0.8877
 1219ANI     HN17066   5.192   1.564   1.024  0.1728  0.4644  0.9065
 1220ANI     CN17067   5.696   3.502   6.195 -0.0476  0.3523 -0.4881
 1220ANI     CH17068   5.645   3.632   6.210 -0.7421  0.0348 -0.0747
 1220ANI     CH17069   5.533   3.672   6.135 -0.5978  0.6560  0.0346
 1220ANI     CH17070   5.480   3.581   6.043 -0.2819  0.0666  0.4261
 1220ANI     CH17071   5.533   3.453   6.022  0.1728  0.2872  0.2111
 1220ANI     CH17072   5.647   3.417   6.095  0.2269 -0.2353 -0.1260
 1220ANI     NH17073   5.804   3.468   6.266 -0.1986 -0.1903 -0.5175
 1220ANI     HC17074   5.701   3.702   6.269  2.9593  0.4569 -3.8642
 1220ANI     HC17075   5.501   3.774   6.150  0.3614  0.6775  2.2431
 1220ANI     HC17076   5.389   3.610   5.993 -0.7089 -1.5529  0.2469
 1220ANI     HC17077   5.494   3.385   5.947 -0.5634 -0.2690  1.0803
 1220ANI     HC17078   5.686   3.317   6.093 -0.6561 -0.5743 -0.6239
 1220ANI     HN17079   5.870   3.540   6.292  1.0937 -2.2087  1.9950
 1220ANI     HN17080   5.860   3.396   6.224 -0.5557 -0.0053 -1.3229
 1221ANI     CN17081   1.989   1.675   6.033  0.0064 -0.3362  0.1240
 1221ANI     CH17082   2.050   1.626   5.917  0.3872 -0.1690  0.2529
 1221ANI     CH17083   2.086   1.713   5.814  0.3532 -0.1009  0.2982
 1221ANI     CH17084   2.051   1.848   5.823 -0.0471 -0.1309 -0.6922
 1221ANI     CH17085   1.971   1.895   5.928  0.0002 -0.9135 -0.3085
 1221ANI     CH17086   1.952   1.811   6.039 -0.3125 -0.4163  0.0191
 1221ANI     NH17087   1.967   1.592   6.136 -0.3449 -0.3305  0.0573
 1221ANI     HC17088   2.091   1.526   5.906  3.1430  0.8890  0.6697
 1221ANI     HC17089   2.143   1.665   5.735 -0.9483 -0.2817 -0.5459
 1221ANI     HC17090   2.080   1.911   5.740  1.6619  1.1947  0.8566
 1221ANI     HC17091   1.934   1.996   5.934  2.3184 -0.0471  0.1811
 1221ANI     HC17092   1.893   1.857   6.116 -0.1975 -2.4631  1.3614
 1221ANI     HN17093   1.986   1.628   6.228 -0.2621 -1.0019  0.2983
 1221ANI     HN17094   2.030   1.514   6.128 -0.8269 -0.6796 -0.3400
 1222ANI     CN17095   1.508   4.347   2.592  0.1816 -0.3300 -0.8107
 1222ANI     CH17096   1.522   4.419   2.473  0.1605  0.3105 -0.4222
 1222ANI     CH17097   1.424   4.420   2.373  0.1203 -0.2989 -0.3868
 1222ANI     CH17098   1.305   4.349   2.396  0.0895 -0.0114  0.3734
 1222ANI     CH17099   1.281   4.294   2.522 -0.2899  0.2988  0.4400
 1222ANI     CH17100   1.386   4.281   2.614  0.1080  0.0573 -0.0437
 1222ANI     NH17101   1.615   4.328   2.671 -0.2394 -0.5601 -0.2893
 1222ANI     HC17102   1.616   4.465   2.446  0.1055  0.3492 -0.5497
 1222ANI     HC17103   1.441   4.474   2.282  0.1635  0.5290  0.1113
 1222ANI     HC17104   1.234   4.361   2.315  1.2946  0.6399 -0.6066
 1222ANI     HC17105   1.189   4.243   2.544  0.3723 -1.0096  0.2780
 1222ANI     HC17106   1.377   4.217   2.701  0.2979  0.7349  0.4824
 1222ANI     HN17107   1.693   4.388   2.648  2.0866 -3.4411 -0.1218
 1222ANI     HN17108   1.606   4.326   2.771 -1.0740  1.3400 -0.2839
 1223ANI     CN17109   5.226   0.581   2.085 -0.2063 -0.0669 -0.2680
 1223ANI     CH17110   5.136   0.503   2.157  0.4212 -0.5280  0.0217
 1223ANI     CH17111   5.002   0.544   2.167  0.6232  0.1685 -0.1957
 1223ANI     CH17112   4.966   0.664   2.103  0.1629  0.0682 -0.1254
 1223ANI     CH17113   5.053   0.735   2.020  0.2910 -0.5117 -0.4905
 1223ANI     CH17114   5.187   0.694   2.012  0.5018  0.1339 -0.3402
 1223ANI     NH17115   5.355   0.545   2.084 -0.2450 -0.2049 -0.1917
 1223ANI     HC17116   5.156   0.412   2.213 -1.5153  0.1340  1.8754
 1223ANI     HC17117   4.928   0.498   2.231  0.6739  1.5801  0.9015
 1223ANI     HC17118   4.867   0.705   2.118  1.3814  3.8720 -1.7879
 1223ANI     HC17119   5.017   0.818   1.961  0.0042 -1.7426 -2.0594
 1223ANI     HC17120   5.258   0.766   1.974  0.4447  0.8568  0.8696
 1223ANI     HN17121   5.411   0.628   2.093 -1.9676  1.3580 -3.1996
 1223ANI     HN17122   5.382   0.477   2.154  0.9575 -0.2589 -0.7023
 1224ANI     CN17123   5.958   5.488   2.877  0.2803  0.0734  0.4632
 1224ANI     CH17124   5.864   5.471   2.979  0.0721  0.6301  0.3611
 1224ANI     CH17125   5.883   5.391   3.092  0.5711  0.5092  0.1953
 1224ANI     CH17126   6.002   5.318   3.094  0.2446 -0.0206  0.1011
 1224ANI     CH17127   6.095   5.323   2.989 -0.1223 -0.6186 -0.2552
 1224ANI     CH17128   6.076   5.412   2.883  0.0063 -0.3977 -0.0929
 1224ANI     NH17129   5.922   5.565   2.774 -0.2915 -0.3389  0.3505
 1224ANI     HC17130   5.770   5.521   2.961 -0.8422 -1.5482 -1.0153
 1224ANI     HC17131   5.795   5.385   3.155  0.2244 -0.7341 -0.4027
 1224ANI     HC17132   6.016   5.255   3.180 -1.5104 -1.6366 -0.7446
 1224ANI     HC17133   6.177   5.253   2.999  0.0344 -0.0182  3.5417
 1224ANI     HC17134   6.147   5.409   2.801  1.6319  2.3209  1.1542
 1224ANI     HN17135   5.829   5.531   2.755 -1.0937  2.4735 -1.1179
 1224ANI     HN17136   5.973   5.545   2.689  1.3143  2.4749  0.5674
 1225ANI     CN17137   3.273   1.898   5.921 -0.7242 -0.2572 -0.0379
 1225ANI     CH17138   3.167   1.981   5.883 -0.0797  0.5166 -0.1750
 1225ANI     CH17139   3.104   2.063   5.977 -0.1804  0.0078  0.2032
 1225ANI     CH17140   3.150   2.065   6.109  0.3637  0.7132  0.0065
 1225ANI     CH17141   3.265   1.994   6.144 -0.1770 -0.1397  0.0864
 1225ANI     CH17142   3.326   1.910   6.050 -0.2326  0.2288 -0.2805
 1225ANI     NH17143   3.336   1.818   5.834 -0.6687 -0.3689  0.1042
 1225ANI     HC17144   3.124   1.965   5.785  0.7706  1.8391 -0.7723
 1225ANI     HC17145   3.015   2.119   5.952 -1.7656 -2.6271 -0.3315
 1225ANI     HC17146   3.101   2.121   6.188 -2.5249 -3.7745  1.6186
 1225ANI     HC17147   3.298   2.001   6.247  0.4199  0.1248 -0.1182
 1225ANI     HC17148   3.412   1.855   6.085 -1.0040 -1.0212 -0.3074
 1225ANI     HN17149   3.258   1.763   5.802 -0.1828 -0.5964 -0.6870
 1225ANI     HN17150   3.400   1.755   5.881 -0.8527 -0.0428  0.8009
 1226ANI     CN17151   6.150   4.073   3.740 -0.4778 -0.1677 -0.4325
 1226ANI     CH17152   6.040   4.130   3.804 -0.1630 -0.2488  0.1793
 1226ANI     CH17153   5.973   4.057   3.903 -0.3295 -0.0545  0.2107
 1226ANI     CH17154   6.029   3.939   3.953 -0.4568 -0.1722  0.0772
 1226ANI     CH17155   6.141   3.884   3.890 -0.2063  0.3544  0.0612
 1226ANI     CH17156   6.201   3.950   3.782  0.2013  0.3526  0.2839
 1226ANI     NH17157   6.208   4.132   3.634  0.2461 -0.0982 -0.0051
 1226ANI     HC17158   6.008   4.227   3.769 -0.8914 -0.1514  1.0943
 1226ANI     HC17159   5.887   4.105   3.946 -0.9522 -2.6902  2.0321
 1226ANI     HC17160   5.981   3.896   4.040  0.2515 -0.2643  0.4218
 1226ANI     HC17161   6.184   3.794   3.931  1.4968 -0.0240 -2.4491
 1226ANI     HC17162   6.287   3.896   3.744  1.4389  2.1092  0.5530
 1226ANI     HN17163   6.284   4.074   3.602  0.9301 -0.9951  3.1351
 1226ANI     HN17164   6.240   4.224   3.659 -0.2715 -0.4558  2.0447
 1227ANI     CN17165   4.847   5.745   4.778 -0.5132 -0.0259  0.1366
 1227ANI     CH17166   4.855   5.696   4.647  0.6897  0.2748  0.0981
 1227ANI     CH17167   4.740   5.661   4.577  0.5052 -0.4936  0.7783
 1227ANI     CH17168   4.615   5.682   4.638  0.1625  0.3437 -0.1853
 1227ANI     CH17169   4.606   5.745   4.763  0.6091 -0.5389  0.3016
 1227ANI     CH17170   4.722   5.776   4.834 -0.0415  0.2698  1.0304
 1227ANI     NH17171   4.957   5.782   4.845 -0.5928 -0.1927  0.3588
 1227ANI     HC17172   4.951   5.670   4.603  0.5882 -0.0677  0.0779
 1227ANI     HC17173   4.743   5.620   4.477 -2.9733 -1.4935  0.9974
 1227ANI     HC17174   4.526   5.653   4.586 -0.7729 -1.0033  2.0641
 1227ANI     HC17175   4.507   5.767   4.802 -0.8467 -0.8391 -2.9832
 1227ANI     HC17176   4.711   5.828   4.928 -0.9315 -0.7307  1.5020
 1227ANI     HN17177   5.040   5.730   4.821 -0.2216 -0.0239  1.2523
 1227ANI     HN17178   4.947   5.808   4.942  1.3373  1.1022  0.2447
 1228ANI     CN17179   5.585   3.563   2.552  0.2956 -0.3886  0.6235
 1228ANI     CH17180   5.490   3.608   2.644 -0.1099  0.3460 -0.1531
 1228ANI     CH17181   5.432   3.519   2.735  0.5940  0.1791  0.1267
 1228ANI     CH17182   5.467   3.384   2.721  0.1983  0.1012 -0.0963
 1228ANI     CH17183   5.550   3.336   2.620 -0.0515  0.0446 -0.2754
 1228ANI     CH17184   5.613   3.427   2.535 -0.3337 -0.3340 -0.8990
 1228ANI     NH17185   5.655   3.654   2.482 -0.1091 -0.5165  0.0497
 1228ANI     HC17186   5.466   3.713   2.656  0.3025  0.6734 -2.0217
 1228ANI     HC17187   5.361   3.543   2.813  0.0308 -2.1452  0.3681
 1228ANI     HC17188   5.424   3.318   2.795 -0.6272 -0.5137 -1.1075
 1228ANI     HC17189   5.582   3.233   2.626 -1.0677 -0.3442 -1.2628
 1228ANI     HC17190   5.688   3.387   2.468 -1.4535 -4.5751  0.2469
 1228ANI     HN17191   5.735   3.680   2.539  1.3749  1.1892 -2.6893
 1228ANI     HN17192   5.688   3.614   2.395 -1.5048  1.3182 -1.3414
 1229ANI     CN17193   3.254   4.074   3.110 -0.6569  0.3844  0.0300
 1229ANI     CH17194   3.214   4.020   2.987  0.3025 -0.3598  0.0372
 1229ANI     CH17195   3.090   3.955   2.975 -0.0728  0.3296  0.1894
 1229ANI     CH17196   3.018   3.923   3.090 -0.1900  0.0238  0.0298
 1229ANI     CH17197   3.062   3.969   3.215 -0.4164  0.4578 -0.0501
 1229ANI     CH17198   3.177   4.049   3.224 -0.0446 -0.1196  0.3358
 1229ANI     NH17199   3.371   4.140   3.115 -0.1006 -0.6088  0.2612
 1229ANI     HC17200   3.280   4.026   2.902  1.6943 -2.0936  0.9437
 1229ANI     HC17201   3.061   3.905   2.884  1.1319 -0.9804  0.5121
 1229ANI     HC17202   2.932   3.858   3.082 -0.4432 -0.0413  2.7320
 1229ANI     HC17203   3.009   3.942   3.305  2.7420 -1.6685  1.3001
 1229ANI     HC17204   3.204   4.089   3.321 -0.4127 -2.6449  1.5259
 1229ANI     HN17205   3.406   4.116   3.207 -1.9667 -1.7612  0.7033
 1229ANI     HN17206   3.439   4.108   3.048  0.1005  0.0536  0.1470
 1230ANI     CN17207   1.026   1.687   6.018 -0.1806 -1.0340 -0.2878
 1230ANI     CH17208   0.974   1.774   5.922  0.1054 -0.2897  0.2267
 1230ANI     CH17209   0.838   1.808   5.924  0.3009  0.5082  0.2560
 1230ANI     CH17210   0.752   1.730   6.003 -0.0938  0.4788 -0.1988
 1230ANI     CH17211   0.801   1.631   6.089 -0.6710  0.0861 -0.3191
 1230ANI     CH17212   0.939   1.605   6.090 -0.7367 -0.2563 -0.0723
 1230ANI     NH17213   1.157   1.660   6.023 -0.0156 -0.0941  0.5410
 1230ANI     HC17214   1.039   1.833   5.859  0.4502  0.2212  1.0500
 1230ANI     HC17215   0.797   1.867   5.844  0.0293  0.9444  0.7117
 1230ANI     HC17216   0.646   1.751   5.998 -0.4254 -1.1940 -0.3651
 1230ANI     HC17217   0.744   1.569   6.157  1.1618  0.3987  1.5528
 1230ANI     HC17218   0.971   1.518   6.146 -1.9181 -0.4691  0.2786
 1230ANI     HN17219   1.189   1.645   6.118  1.6863  0.9951  0.1722
 1230ANI     HN17220   1.208   1.741   5.989 -1.6138 -0.4907 -3.0250
 1231ANI     CN17221   2.701   5.782   0.501  0.2926 -0.1970 -0.2014
 1231ANI     CH17222   2.837   5.772   0.535  0.3713  0.6529 -0.2647
 1231ANI     CH17223   2.913   5.884   0.569  0.3736  0.5929 -0.0753
 1231ANI     CH17224   2.852   6.010   0.569  0.0351  0.4276 -0.5952
 1231ANI     CH17225   2.716   6.024   0.537 -0.0307 -0.2457 -0.6000
 1231ANI     CH17226   2.643   5.909   0.504 -0.2725 -0.4696  0.6901
 1231ANI     NH17227   2.622   5.685   0.453  0.0314  0.0467 -0.2659
 1231ANI     HC17228   2.875   5.672   0.545 -2.6298 -0.3783  1.6855
 1231ANI     HC17229   3.015   5.867   0.598  0.2596  0.0455 -0.0002
 1231ANI     HC17230   2.914   6.098   0.578  1.9160 -0.3884 -4.4845
 1231ANI     HC17231   2.667   6.120   0.531  2.1023  0.8292 -1.3746
 1231ANI     HC17232   2.536   5.918   0.491 -0.1987  0.0840  0.4594
 1231ANI     HN17233   2.620   5.606   0.517 -1.2265 -0.7613 -1.2621
 1231ANI     HN17234   2.532   5.716   0.419  0.3728  1.2385 -0.0885
 1232ANI     CN17235   4.336   2.202   1.065  0.2183 -0.3725 -0.2124
 1232ANI     CH17236   4.319   2.299   0.965  0.2993 -0.2000 -0.0587
 1232ANI     CH17237   4.348   2.430   1.004 -0.2902 -0.1199  0.1098
 1232ANI     CH17238   4.398   2.460   1.131  0.8616 -0.1618 -0.3299
 1232ANI     CH17239   4.418   2.362   1.230 -0.3450 -0.0983 -0.0178
 1232ANI     CH17240   4.392   2.230   1.190  0.5033 -0.1499 -0.3908
 1232ANI     NH17241   4.309   2.077   1.025  0.4560 -0.4317 -0.1869
 1232ANI     HC17242   4.283   2.265   0.869 -0.2005  0.6935 -0.1932
 1232ANI     HC17243   4.339   2.515   0.937 -1.7029 -2.0707 -2.2447
 1232ANI     HC17244   4.407   2.563   1.160 -2.1406  0.7509 -2.3930
 1232ANI     HC17245   4.451   2.393   1.328 -0.2285 -1.4746  0.3814
 1232ANI     HC17246   4.430   2.159   1.262 -2.1389 -0.0841  1.1226
 1232ANI     HN17247   4.284   2.065   0.928 -1.1358 -1.5436  0.3470
 1232ANI     HN17248   4.387   2.014   1.037  1.8130  1.1494 -0.3862
 1233ANI     CN17249   6.013   0.875   2.727  0.7689 -0.2664 -0.4399
 1233ANI     CH17250   5.951   0.866   2.852  0.8466 -0.2144 -0.3976
 1233ANI     CH17251   5.940   0.973   2.942  0.4228 -0.2316 -0.4259
 1233ANI     CH17252   5.996   1.093   2.898  0.5922 -0.1404  0.0307
 1233ANI     CH17253   6.056   1.108   2.773 -0.1221 -0.3206 -0.3374
 1233ANI     CH17254   6.062   0.999   2.685  0.8750 -0.2725 -0.3338
 1233ANI     NH17255   6.017   0.764   2.653 -0.7570 -0.7627  0.2028
 1233ANI     HC17256   5.915   0.769   2.882  0.2586 -0.4035 -1.6887
 1233ANI     HC17257   5.911   0.960   3.045  1.0307 -0.7836 -0.3138
 1233ANI     HC17258   5.992   1.180   2.963 -0.5310 -0.5063  0.4621
 1233ANI     HC17259   6.088   1.206   2.739 -0.7792 -0.2154 -0.6587
 1233ANI     HC17260   6.117   1.006   2.592  1.4708 -0.2550  0.0180
 1233ANI     HN17261   5.959   0.688   2.685  0.4934 -0.7284  2.6545
 1233ANI     HN17262   5.988   0.784   2.558  1.2145 -0.4572 -0.3485
 1234ANI     CN17263   5.754   4.048   5.422  0.0075  0.1976  0.3261
 1234ANI     CH17264   5.814   3.922   5.421 -0.5713 -0.0731 -0.1507
 1234ANI     CH17265   5.753   3.819   5.493  0.3246 -0.4121  0.1322
 1234ANI     CH17266   5.627   3.839   5.552  0.7280  0.3852  0.7347
 1234ANI     CH17267   5.570   3.966   5.558 -0.5168 -0.1151 -0.2951
 1234ANI     CH17268   5.637   4.072   5.496 -0.1433 -0.0766  0.1750
 1234ANI     NH17269   5.805   4.148   5.348  0.3644 -0.1333  0.1251
 1234ANI     HC17270   5.904   3.912   5.362 -0.3273  1.2034 -0.0019
 1234ANI     HC17271   5.792   3.719   5.482 -0.7020 -1.0465  1.9540
 1234ANI     HC17272   5.570   3.753   5.586  0.3835  0.4432  0.3063
 1234ANI     HC17273   5.468   3.983   5.589 -1.2527 -4.3580 -0.1663
 1234ANI     HC17274   5.598   4.170   5.517 -0.0663 -0.2935  1.3813
 1234ANI     HN17275   5.839   4.127   5.256 -0.7180  0.5822 -0.4493
 1234ANI     HN17276   5.732   4.214   5.324 -0.8389 -1.6327 -0.4478
 1235ANI     CN17277   1.555   1.432   0.805 -0.4598  0.5022  0.3158
 1235ANI     CH17278   1.612   1.370   0.917  0.3073 -0.0486 -0.3753
 1235ANI     CH17279   1.563   1.243   0.951 -0.2876  0.0325 -0.9188
 1235ANI     CH17280   1.463   1.176   0.878 -0.5757 -0.6970  0.1438
 1235ANI     CH17281   1.407   1.244   0.770 -0.1736 -0.0674  0.3297
 1235ANI     CH17282   1.456   1.369   0.729 -0.0531 -0.1239  0.3032
 1235ANI     NH17283   1.604   1.550   0.763  0.2085  0.0722 -0.1259
 1235ANI     HC17284   1.685   1.425   0.974  0.9509  0.9840 -2.1537
 1235ANI     HC17285   1.612   1.175   1.019 -0.2306 -1.5596 -2.5105
 1235ANI     HC17286   1.441   1.074   0.907  1.7531 -0.8009  1.7808
 1235ANI     HC17287   1.325   1.203   0.712  1.3712 -0.7058 -1.4401
 1235ANI     HC17288   1.425   1.421   0.639  0.1423 -0.1592  0.2159
 1235ANI     HN17289   1.698   1.565   0.796  0.2177 -0.0951 -0.0736
 1235ANI     HN17290   1.597   1.560   0.663  1.5475 -1.4090 -0.3879
 1236ANI     CN17291   4.331   0.418   4.478  0.1674  0.0598 -0.1968
 1236ANI     CH17292   4.322   0.527   4.390  0.0602 -0.3564 -0.7023
 1236ANI     CH17293   4.210   0.611   4.398 -0.1162 -0.6133 -0.4032
 1236ANI     CH17294   4.106   0.589   4.488 -0.3184 -0.2322 -0.5405
 1236ANI     CH17295   4.113   0.478   4.573 -0.5243 -0.1983 -0.4776
 1236ANI     CH17296   4.231   0.401   4.573 -0.1896  0.3106 -0.5267
 1236ANI     NH17297   4.445   0.347   4.476  0.1295  0.0026 -0.3194
 1236ANI     HC17298   4.399   0.549   4.318 -0.6057 -0.3021 -1.4004
 1236ANI     HC17299   4.205   0.702   4.339  0.9100  1.0423  1.9928
 1236ANI     HC17300   4.015   0.647   4.485 -0.6976 -0.8825 -2.1083
 1236ANI     HC17301   4.040   0.449   4.647 -1.0902 -1.4339 -1.4908
 1236ANI     HC17302   4.231   0.323   4.648  0.8571  0.9678  0.1647
 1236ANI     HN17303   4.523   0.410   4.479  0.0809  0.0981 -0.9413
 1236ANI     HN17304   4.447   0.276   4.548  0.1128 -1.9494 -2.1727
 1237ANI     CN17305   5.987   3.030   3.523 -0.2141 -0.3281 -0.5691
 1237ANI     CH17306   5.931   2.990   3.401 -0.4222 -1.1785 -0.1992
 1237ANI     CH17307   6.009   2.916   3.312  0.1633 -0.5669 -0.1973
 1237ANI     CH17308   6.139   2.881   3.351  0.0645 -0.6141  0.0823
 1237ANI     CH17309   6.192   2.917   3.476  0.7053 -0.1339 -0.3235
 1237ANI     CH17310   6.116   2.995   3.564 -0.2097 -0.5290 -0.7520
 1237ANI     NH17311   5.913   3.095   3.614  0.6424 -0.2831  0.0996
 1237ANI     HC17312   5.831   3.024   3.380  1.0020  1.8653 -2.4634
 1237ANI     HC17313   5.980   2.880   3.214 -1.3045 -0.6813  0.2803
 1237ANI     HC17314   6.207   2.821   3.293  2.1082  0.1888  1.5939
 1237ANI     HC17315   6.294   2.888   3.493  0.5597 -0.3044  0.2617
 1237ANI     HC17316   6.145   3.016   3.666 -0.0142 -0.4407 -0.8246
 1237ANI     HN17317   5.874   3.178   3.570 -0.8708 -0.4119  1.1789
 1237ANI     HN17318   5.979   3.118   3.687 -0.7196 -2.0920  1.9191
 1238ANI     CN17319   5.805   4.948   4.944 -0.5441  0.7365 -0.3086
 1238ANI     CH17320   5.931   5.000   4.911 -0.0036 -0.1709  0.2817
 1238ANI     CH17321   6.001   5.081   5.001 -0.1134  0.6717 -0.3720
 1238ANI     CH17322   5.949   5.099   5.130 -0.0736 -0.3080 -0.2113
 1238ANI     CH17323   5.831   5.033   5.167  0.1891 -0.9213 -0.4735
 1238ANI     CH17324   5.761   4.953   5.076 -0.7196 -0.2926 -0.3274
 1238ANI     NH17325   5.742   4.872   4.854  0.6421 -0.6404  0.0031
 1238ANI     HC17326   5.973   4.992   4.812 -1.9408  1.5315 -0.7322
 1238ANI     HC17327   6.094   5.132   4.982 -0.3274  1.2258  0.0503
 1238ANI     HC17328   5.994   5.159   5.208  0.9201 -0.1105 -0.9322
 1238ANI     HC17329   5.785   5.047   5.263  0.6997  0.0280 -0.3654
 1238ANI     HC17330   5.678   4.893   5.112  0.1419 -0.4560  1.4513
 1238ANI     HN17331   5.643   4.854   4.863  0.5044  0.1752  0.0939
 1238ANI     HN17332   5.757   4.901   4.758  0.7446 -0.5002  0.0624
 1239ANI     CN17333   1.439   3.804   5.266 -0.1414  0.4080  0.0542
 1239ANI     CH17334   1.546   3.861   5.197  0.1054 -0.6295 -0.4439
 1239ANI     CH17335   1.673   3.804   5.211  0.1026 -0.5172  0.0448
 1239ANI     CH17336   1.698   3.697   5.298  0.4181 -0.1709  0.3812
 1239ANI     CH17337   1.588   3.639   5.361 -0.1521  0.0652 -0.3900
 1239ANI     CH17338   1.459   3.692   5.347 -0.1212  0.1710 -0.2744
 1239ANI     NH17339   1.316   3.858   5.256 -0.1499  0.3676 -0.0692
 1239ANI     HC17340   1.540   3.945   5.128  1.4500 -0.0636  0.1050
 1239ANI     HC17341   1.754   3.844   5.151 -0.1878 -1.8784 -1.2844
 1239ANI     HC17342   1.801   3.665   5.304  0.8660  0.8386 -1.5279
 1239ANI     HC17343   1.599   3.548   5.418 -0.9215  1.5722  2.2875
 1239ANI     HC17344   1.376   3.645   5.399  0.9467  0.7879  2.0744
 1239ANI     HN17345   1.325   3.954   5.228 -1.2339  1.3003  2.6654
 1239ANI     HN17346   1.269   3.840   5.344 -2.0657 -1.9864 -1.5066
 1240ANI     CN17347   0.676   3.652   4.779  0.1582 -0.3414 -0.4160
 1240ANI     CH17348   0.745   3.571   4.871  0.3224 -0.4985 -0.6757
 1240ANI     CH17349   0.673   3.489   4.958 -0.0455  0.7357  0.2006
 1240ANI     CH17350   0.534   3.475   4.946  0.0805 -0.2981 -0.0923
 1240ANI     CH17351   0.467   3.552   4.850  0.2935 -0.2108 -0.1703
 1240ANI     CH17352   0.536   3.644   4.770  0.0734  0.3526  0.2813
 1240ANI     NH17353   0.745   3.737   4.703 -0.1903  0.1187 -0.2199
 1240ANI     HC17354   0.853   3.573   4.876  0.2300 -1.2605  2.0355
 1240ANI     HC17355   0.728   3.438   5.036 -2.8509  2.2499  3.3108
 1240ANI     HC17356   0.485   3.403   5.010  0.7314 -0.5414  0.1418
 1240ANI     HC17357   0.360   3.543   4.851  0.4885 -2.9709  0.7250
 1240ANI     HC17358   0.491   3.703   4.692  1.0877  0.4183 -0.2652
 1240ANI     HN17359   0.701   3.818   4.662  2.2460  0.9092 -1.3915
 1240ANI     HN17360   0.843   3.752   4.724 -0.3669 -1.5259  1.8843
 1241ANI     CN17361   5.880   2.938   1.845 -0.1298 -0.3254  0.4376
 1241ANI     CH17362   5.988   2.914   1.759  0.0561  0.4328  0.4485
 1241ANI     CH17363   6.115   2.964   1.789  0.1513  0.2202  0.4016
 1241ANI     CH17364   6.130   3.046   1.902  0.4706 -0.0806  0.5795
 1241ANI     CH17365   6.024   3.064   1.991 -0.1543  0.4513 -0.2654
 1241ANI     CH17366   5.895   3.016   1.961 -0.1511  0.2315  0.0671
 1241ANI     NH17367   5.766   2.880   1.809  0.0825 -0.4993  0.0468
 1241ANI     HC17368   5.978   2.860   1.666  2.4927  0.9433 -0.1383
 1241ANI     HC17369   6.198   2.931   1.728 -1.3370 -2.7130 -0.1052
 1241ANI     HC17370   6.228   3.083   1.928 -0.1392  4.8380 -3.3309
 1241ANI     HC17371   6.045   3.119   2.081  0.3785 -0.5346  0.2165
 1241ANI     HC17372   5.813   3.037   2.027  0.4190  1.1922  0.4849
 1241ANI     HN17373   5.764   2.854   1.711  2.2302  1.1140 -0.4585
 1241ANI     HN17374   5.679   2.930   1.818  0.4417  0.3095 -0.9237
 1242ANI     CN17375   1.266   4.229   0.689  0.2492 -0.2306  0.1547
 1242ANI     CH17376   1.296   4.294   0.570  0.0911 -0.1691  0.1482
 1242ANI     CH17377   1.224   4.278   0.451 -0.1138  0.4419  0.1871
 1242ANI     CH17378   1.111   4.197   0.465  0.1171  0.0418 -0.2382
 1242ANI     CH17379   1.076   4.124   0.579  0.1636  0.3926  0.0004
 1242ANI     CH17380   1.159   4.138   0.691  0.5007 -0.5337 -0.1294
 1242ANI     NH17381   1.344   4.254   0.796  0.2490 -0.4855  0.2154
 1242ANI     HC17382   1.378   4.365   0.575  1.2968 -1.6171  1.3149
 1242ANI     HC17383   1.261   4.330   0.364  2.0972 -1.0317  0.1806
 1242ANI     HC17384   1.050   4.188   0.376  0.0766 -0.1558 -0.1917
 1242ANI     HC17385   0.990   4.059   0.574  0.8335 -0.4796 -0.2246
 1242ANI     HC17386   1.153   4.071   0.775  0.0610  2.8866  2.7103
 1242ANI     HN17387   1.334   4.182   0.866  0.9184 -0.5026  0.2945
 1242ANI     HN17388   1.441   4.278   0.784 -0.4299  4.0403  2.6669
 1243ANI     CN17389   2.195   3.734   0.661 -0.0996  0.4189  0.3412
 1243ANI     CH17390   2.095   3.689   0.747 -0.1942 -0.1024 -0.0370
 1243ANI     CH17391   1.963   3.679   0.703 -0.2702  0.2450  0.1040
 1243ANI     CH17392   1.924   3.722   0.576  0.2650  0.8936  0.1605
 1243ANI     CH17393   2.026   3.765   0.490  0.3277  0.4793  0.0304
 1243ANI     CH17394   2.161   3.767   0.529  0.2687  0.4086  0.2420
 1243ANI     NH17395   2.320   3.746   0.709 -0.0340  0.5096  0.1532
 1243ANI     HC17396   2.118   3.659   0.848  0.2763 -0.4281 -0.2429
 1243ANI     HC17397   1.889   3.632   0.767  0.8577 -3.0878 -0.9197
 1243ANI     HC17398   1.820   3.732   0.547  0.5847 -0.7762 -1.5966
 1243ANI     HC17399   2.000   3.802   0.392 -1.2293  0.7592  0.5436
 1243ANI     HC17400   2.236   3.793   0.456 -0.8387  1.1835 -0.6266
 1243ANI     HN17401   2.321   3.711   0.804  2.5376 -2.0145 -0.7333
 1243ANI     HN17402   2.360   3.838   0.720 -0.8375  0.8444  0.3476
 1244ANI     CN17403   3.571   4.445   2.197  0.1046 -0.6245  0.3393
 1244ANI     CH17404   3.448   4.469   2.260 -0.0158 -0.3905  0.0141
 1244ANI     CH17405   3.330   4.474   2.186 -0.2143 -0.6644  0.3103
 1244ANI     CH17406   3.338   4.464   2.046 -0.3418 -0.0531  0.2598
 1244ANI     CH17407   3.461   4.444   1.982 -0.3807 -0.2275  0.2414
 1244ANI     CH17408   3.577   4.431   2.058 -0.3926 -0.1648  0.2703
 1244ANI     NH17409   3.683   4.431   2.270  0.4051 -0.0438 -0.0099
 1244ANI     HC17410   3.435   4.483   2.366 -0.4146  1.3450 -0.2530
 1244ANI     HC17411   3.234   4.482   2.236  0.9228  0.0810  2.3881
 1244ANI     HC17412   3.249   4.470   1.985  0.0682  0.1676 -0.3193
 1244ANI     HC17413   3.473   4.430   1.876  1.5509  0.8039  0.3040
 1244ANI     HC17414   3.677   4.413   2.021 -0.5499  0.8794 -0.6840
 1244ANI     HN17415   3.748   4.501   2.236  0.5924 -0.5795 -0.7682
 1244ANI     HN17416   3.678   4.458   2.367  3.3142  0.8586 -0.0643
 1245ANI     CN17417   0.245   1.714   3.905  0.0124 -0.0706 -0.8223
 1245ANI     CH17418   0.133   1.668   3.975  0.5810 -0.9798 -0.5054
 1245ANI     CH17419   0.151   1.564   4.068 -0.1936 -1.0629 -0.4424
 1245ANI     CH17420   0.279   1.511   4.089  0.2631  0.0556 -0.3827
 1245ANI     CH17421   0.388   1.559   4.015  0.6720  0.3411  0.4051
 1245ANI     CH17422   0.375   1.666   3.927 -0.0873  0.1303  0.2636
 1245ANI     NH17423   0.221   1.813   3.818  0.4590  0.4348 -0.3829
 1245ANI     HC17424   0.033   1.707   3.964  0.6720 -0.3866  0.6966
 1245ANI     HC17425   0.065   1.530   4.123 -0.8867 -1.1317 -1.5530
 1245ANI     HC17426   0.298   1.425   4.151 -4.5821 -1.9350 -1.4537
 1245ANI     HC17427   0.487   1.521   4.038 -0.0146 -0.7732  1.6592
 1245ANI     HC17428   0.455   1.698   3.863 -0.0439 -0.2136  0.1443
 1245ANI     HN17429   0.305   1.812   3.763  1.7194  0.2542  1.5065
 1245ANI     HN17430   0.142   1.786   3.761  0.7212 -1.3970  0.0752
 1246ANI     CN17431   4.225   2.446   6.110  0.0093  0.0593 -0.1946
 1246ANI     CH17432   4.228   2.542   6.008 -0.2866  0.3005  0.0254
 1246ANI     CH17433   4.186   2.672   6.042 -0.2942  0.3568 -0.1981
 1246ANI     CH17434   4.155   2.713   6.172  0.5032 -0.0517  0.1258
 1246ANI     CH17435   4.150   2.617   6.274  0.0103 -0.0458  0.1118
 1246ANI     CH17436   4.179   2.486   6.235 -0.0359  0.0371 -0.2050
 1246ANI     NH17437   4.253   2.318   6.082 -0.1794 -0.0001 -0.1080
 1246ANI     HC17438   4.264   2.522   5.908 -2.9288  2.8482 -1.4969
 1246ANI     HC17439   4.209   2.755   5.977  0.2570 -1.1137 -1.9484
 1246ANI     HC17440   4.130   2.817   6.178 -1.4358 -0.4413 -0.7995
 1246ANI     HC17441   4.120   2.649   6.373 -1.8722  1.4320 -0.9184
 1246ANI     HC17442   4.173   2.409   6.311  3.1013  0.2614  0.3495
 1246ANI     HN17443   4.228   2.238   6.138  2.0604 -0.7379 -0.1054
 1246ANI     HN17444   4.257   2.290   5.985 -0.0276 -1.7577  0.3863
 1247ANI     CN17445   5.105   3.077   3.434 -0.0841  0.0661  0.3584
 1247ANI     CH17446   4.987   3.045   3.504 -0.4793 -0.2936 -0.4680
 1247ANI     CH17447   4.913   3.136   3.579 -0.0663  0.0267 -0.4485
 1247ANI     CH17448   4.958   3.269   3.580  0.4710 -0.1611  0.8296
 1247ANI     CH17449   5.073   3.305   3.510 -0.2296  0.0513 -0.2182
 1247ANI     CH17450   5.150   3.209   3.443  0.2658 -0.0652  0.5178
 1247ANI     NH17451   5.173   2.989   3.360 -0.6705  0.1520 -0.2903
 1247ANI     HC17452   4.953   2.943   3.500 -0.1276 -0.3912 -1.1590
 1247ANI     HC17453   4.818   3.104   3.620 -0.4976  2.5316  0.6081
 1247ANI     HC17454   4.886   3.334   3.627  0.0615  0.1730 -0.2493
 1247ANI     HC17455   5.095   3.411   3.502  0.7659 -0.1851 -0.6594
 1247ANI     HC17456   5.237   3.239   3.387  0.3629 -1.6149 -0.1913
 1247ANI     HN17457   5.186   3.025   3.266  0.6224  2.1987  0.6383
 1247ANI     HN17458   5.133   2.897   3.352 -1.9836  0.3022  3.6089
 1248ANI     CN17459   3.549   0.435   4.542 -0.1142  0.0910  0.3890
 1248ANI     CH17460   3.679   0.438   4.489 -0.2192 -0.0655  0.1183
 1248ANI     CH17461   3.774   0.343   4.530 -0.1531 -0.2500 -0.4635
 1248ANI     CH17462   3.733   0.248   4.624 -0.3819  0.2850 -0.0161
 1248ANI     CH17463   3.607   0.248   4.685 -0.2259  0.1557  0.3053
 1248ANI     CH17464   3.514   0.344   4.642 -0.4803 -0.2534 -0.0515
 1248ANI     NH17465   3.462   0.529   4.503 -0.3131 -0.2098  0.1096
 1248ANI     HC17466   3.722   0.507   4.417  2.3642 -0.4970  1.1769
 1248ANI     HC17467   3.868   0.342   4.477 -0.6083  0.8879 -1.3256
 1248ANI     HC17468   3.803   0.173   4.658  0.6439  1.1547 -0.2112
 1248ANI     HC17469   3.592   0.166   4.754 -1.3696 -0.2004 -0.3618
 1248ANI     HC17470   3.411   0.337   4.670 -0.4492  1.3019  0.4713
 1248ANI     HN17471   3.369   0.503   4.532 -1.8741  2.6528 -2.0707
 1248ANI     HN17472   3.466   0.529   4.402 -0.4372 -0.9480  0.1005
 1249ANI     CN17473   2.559   2.075   3.476  0.2640 -0.4414  0.0696
 1249ANI     CH17474   2.520   2.003   3.362  0.2312 -0.0188 -0.1874
 1249ANI     CH17475   2.428   1.899   3.374 -0.1278  0.3140 -0.0283
 1249ANI     CH17476   2.380   1.858   3.499  0.2254  0.4154  0.1402
 1249ANI     CH17477   2.411   1.938   3.610 -0.3660  0.3598  0.3481
 1249ANI     CH17478   2.501   2.045   3.600 -0.5797  0.4985 -0.0862
 1249ANI     NH17479   2.630   2.188   3.464 -0.9246  0.3348  0.1925
 1249ANI     HC17480   2.554   2.045   3.268 -2.4079  2.1890 -0.2165
 1249ANI     HC17481   2.407   1.846   3.282 -0.1751  0.9326 -0.3792
 1249ANI     HC17482   2.324   1.767   3.510 -0.4772  0.9323  0.8711
 1249ANI     HC17483   2.375   1.917   3.710  1.8252 -2.1181  0.6730
 1249ANI     HC17484   2.518   2.104   3.689  0.4898  1.4092 -0.8813
 1249ANI     HN17485   2.632   2.207   3.365 -2.0903 -0.1301  0.0775
 1249ANI     HN17486   2.581   2.264   3.509  1.1345  0.5751  2.0795
 1250ANI     CN17487   0.747   2.311   4.116 -0.2608 -0.4564  0.0823
 1250ANI     CH17488   0.877   2.292   4.164 -0.1339  0.1273 -0.0300
 1250ANI     CH17489   0.899   2.265   4.299 -0.5057  0.5208  0.1096
 1250ANI     CH17490   0.791   2.246   4.387 -0.1535 -0.3903  0.3533
 1250ANI     CH17491   0.659   2.263   4.343 -0.0343  0.1803  0.2119
 1250ANI     CH17492   0.643   2.299   4.209 -0.2344 -0.1194  0.1577
 1250ANI     NH17493   0.731   2.355   3.990  0.0874 -0.4618  0.0374
 1250ANI     HC17494   0.964   2.303   4.101  1.5488  0.1818  2.2429
 1250ANI     HC17495   1.004   2.263   4.322 -0.8765  0.6403  1.9018
 1250ANI     HC17496   0.810   2.220   4.490  0.0127 -0.3729  0.3282
 1250ANI     HC17497   0.579   2.246   4.413 -1.7329 -1.4892 -2.0796
 1250ANI     HC17498   0.544   2.326   4.175  1.2350  2.8756 -1.9128
 1250ANI     HN17499   0.650   2.324   3.938  0.4339 -0.7098 -0.3583
 1250ANI     HN17500   0.815   2.373   3.936  0.0358  0.2633  0.1923
 1251ANI     CN17501   0.802   2.736   1.512 -0.4224 -0.2146 -0.0352
 1251ANI     CH17502   0.664   2.730   1.537 -0.4147  0.2640  0.1221
 1251ANI     CH17503   0.583   2.657   1.449 -0.1400  0.3996 -0.2454
 1251ANI     CH17504   0.633   2.596   1.334 -0.2894 -0.5859  0.2033
 1251ANI     CH17505   0.773   2.593   1.323 -0.2654  0.1602  0.2963
 1251ANI     CH17506   0.860   2.658   1.411  0.0649 -0.3090  0.3177
 1251ANI     NH17507   0.874   2.811   1.595 -0.1234 -0.7092  0.1548
 1251ANI     HC17508   0.622   2.798   1.610 -0.9839  1.2858 -1.1508
 1251ANI     HC17509   0.477   2.660   1.471 -0.3512  0.6233 -1.2861
 1251ANI     HC17510   0.564   2.540   1.273 -0.6823 -2.4789  2.3278
 1251ANI     HC17511   0.817   2.550   1.234 -0.0887  0.0395  0.4429
 1251ANI     HC17512   0.967   2.668   1.401 -0.0518  0.1988 -0.5173
 1251ANI     HN17513   0.819   2.893   1.616  1.9855  1.7133 -3.2489
 1251ANI     HN17514   0.966   2.828   1.558  0.1634  1.7500  1.8397
 1252ANI     CN17515   0.671   0.291   4.801 -0.0064 -0.1814  0.0543
 1252ANI     CH17516   0.691   0.153   4.793 -0.4120 -0.2539  0.2757
 1252ANI     CH17517   0.820   0.106   4.822 -0.1140  0.3405 -0.0760
 1252ANI     CH17518   0.930   0.187   4.850  0.2245 -0.0888 -0.1542
 1252ANI     CH17519   0.909   0.326   4.842 -0.0579 -0.0949  0.4652
 1252ANI     CH17520   0.780   0.376   4.821  0.0769 -0.1492 -0.5200
 1252ANI     NH17521   0.548   0.343   4.786 -0.1947 -0.6608 -0.0606
 1252ANI     HC17522   0.608   0.084   4.788  0.7226 -1.9695  3.6164
 1252ANI     HC17523   0.820  -0.002   4.817 -0.3037  0.3600 -0.6172
 1252ANI     HC17524   1.024   0.144   4.879 -0.0834  1.3619  3.1833
 1252ANI     HC17525   0.989   0.397   4.855  0.0541 -0.3133  1.0041
 1252ANI     HC17526   0.766   0.483   4.824  5.5651  0.7209 -0.4668
 1252ANI     HN17527   0.548   0.443   4.772 -0.0085 -0.2448  2.7043
 1252ANI     HN17528   0.494   0.342   4.871 -0.0314 -0.1506  0.0496
 1253ANI     CN17529   0.535   2.152   5.116 -0.3805  0.1601 -0.1772
 1253ANI     CH17530   0.425   2.221   5.064 -0.2907 -0.3906 -1.1042
 1253ANI     CH17531   0.347   2.298   5.151  0.7965 -0.6417  0.1034
 1253ANI     CH17532   0.381   2.309   5.287 -0.2511 -0.1317  0.3296
 1253ANI     CH17533   0.491   2.239   5.338  0.0936  0.0453 -0.1674
 1253ANI     CH17534   0.567   2.158   5.252 -0.0416  0.0060 -0.2505
 1253ANI     NH17535   0.632   2.098   5.042 -0.1467 -0.1721  0.3630
 1253ANI     HC17536   0.400   2.195   4.962 -1.1339 -2.9802 -0.2630
 1253ANI     HC17537   0.259   2.345   5.110  0.9533  1.1689  1.7480
 1253ANI     HC17538   0.326   2.378   5.348  0.2272  0.8483 -0.3435
 1253ANI     HC17539   0.538   2.249   5.435  3.1464  0.8601 -1.6811
 1253ANI     HC17540   0.649   2.111   5.305  0.0079  0.1273 -0.2159
 1253ANI     HN17541   0.728   2.120   5.066 -0.3468 -1.9606  3.0007
 1253ANI     HN17542   0.606   2.109   4.945 -0.2658  0.5779  0.4800
 1254ANI     CN17543   3.935   1.917   5.096 -0.1555 -0.5220 -0.4791
 1254ANI     CH17544   4.013   2.009   5.025 -0.3180 -0.0870 -0.0990
 1254ANI     CH17545   4.150   2.020   5.052 -0.5131  0.9776  0.4697
 1254ANI     CH17546   4.211   1.933   5.143 -0.8179  0.3820  0.1097
 1254ANI     CH17547   4.134   1.841   5.216 -0.4763  0.1068  0.1265
 1254ANI     CH17548   3.996   1.836   5.192 -0.3701 -0.5567 -0.3698
 1254ANI     NH17549   3.801   1.918   5.092 -0.1640  0.1538 -0.0616
 1254ANI     HC17550   3.973   2.088   4.962 -0.7124 -1.7601 -2.0129
 1254ANI     HC17551   4.210   2.102   5.015 -1.0257  1.3263  0.4140
 1254ANI     HC17552   4.315   1.947   5.169 -0.9816 -2.2430  2.4776
 1254ANI     HC17553   4.176   1.781   5.295 -0.0388  0.2475  0.0075
 1254ANI     HC17554   3.938   1.771   5.255  1.2233 -1.0441  0.6150
 1254ANI     HN17555   3.760   1.832   5.059 -3.0119  1.1105  0.8472
 1254ANI     HN17556   3.764   1.982   5.023  3.0482  0.8358 -1.2018
 1255ANI     CN17557   3.502   6.160   6.206 -0.3813  0.2972  0.8802
 1255ANI     CH17558   3.414   6.254   6.151 -0.2592  0.1164  0.3696
 1255ANI     CH17559   3.287   6.219   6.103 -0.1658 -0.2275  0.3786
 1255ANI     CH17560   3.245   6.086   6.116 -0.2404 -0.2633 -0.2057
 1255ANI     CH17561   3.330   5.989   6.171  0.1587  0.1919 -0.0241
 1255ANI     CH17562   3.460   6.027   6.209 -0.0558  0.1904  0.6983
 1255ANI     NH17563   3.627   6.197   6.237 -0.1917  0.0314  0.4366
 1255ANI     HC17564   3.443   6.358   6.150  1.8066 -0.4135  1.8606
 1255ANI     HC17565   3.223   6.297   6.066  0.7601 -0.3176 -1.4875
 1255ANI     HC17566   3.145   6.059   6.086 -0.2354 -2.3203  1.5266
 1255ANI     HC17567   3.293   5.888   6.175 -3.8707  1.5322 -1.5789
 1255ANI     HC17568   3.516   5.942   6.247  0.3823 -0.7977 -2.0634
 1255ANI     HN17569   3.690   6.127   6.202 -1.0193 -0.9416  0.8764
 1255ANI     HN17570   3.653   6.285   6.194 -0.2231 -0.2795 -0.2155
 1256ANI     CN17571   3.558   0.346   1.442  0.0774  0.2194  0.5763
 1256ANI     CH17572   3.694   0.371   1.418  0.0423 -0.3212 -0.1839
 1256ANI     CH17573   3.730   0.463   1.319 -0.1061  0.2170  0.2645
 1256ANI     CH17574   3.636   0.551   1.264  0.2541  0.3821 -0.0865
 1256ANI     CH17575   3.502   0.535   1.303  0.3282 -0.4786 -0.1723
 1256ANI     CH17576   3.463   0.436   1.393  0.0606  0.0489  0.3000
 1256ANI     NH17577   3.522   0.244   1.522  0.2997 -0.1508  0.2037
 1256ANI     HC17578   3.764   0.297   1.455  3.0545  1.9913 -1.0826
 1256ANI     HC17579   3.827   0.477   1.275 -0.7877 -1.4789 -1.8784
 1256ANI     HC17580   3.666   0.633   1.201  1.6343 -0.9073 -1.1336
 1256ANI     HC17581   3.421   0.588   1.254  0.9289 -1.6368 -2.5015
 1256ANI     HC17582   3.358   0.418   1.412 -0.0260 -0.6159 -0.7633
 1256ANI     HN17583   3.423   0.237   1.504  0.5296 -0.4687 -0.9846
 1256ANI     HN17584   3.563   0.153   1.503  1.0138  0.5403 -1.7342
 1257ANI     CN17585   2.083   1.843   1.963 -0.1532  0.2442  0.7039
 1257ANI     CH17586   2.068   1.975   1.920 -0.3137  0.0375  0.1181
 1257ANI     CH17587   2.181   2.054   1.895  0.0350 -0.3018  0.6111
 1257ANI     CH17588   2.309   1.997   1.896  0.1538 -0.0353  0.5195
 1257ANI     CH17589   2.326   1.865   1.938  0.1226  0.0688  0.8558
 1257ANI     CH17590   2.213   1.790   1.969 -0.1118  0.3397  0.6524
 1257ANI     NH17591   1.975   1.772   2.000  0.0800 -0.3900  0.1809
 1257ANI     HC17592   1.974   2.027   1.911 -0.1616  0.5401  1.3282
 1257ANI     HC17593   2.163   2.154   1.861 -1.1347 -1.1955 -1.4516
 1257ANI     HC17594   2.394   2.060   1.873 -0.6080  0.2373 -1.7403
 1257ANI     HC17595   2.422   1.817   1.956  0.8314  0.9908 -0.3794
 1257ANI     HC17596   2.212   1.691   2.014 -0.5793 -0.8843 -1.9475
 1257ANI     HN17597   1.896   1.812   1.949  0.5856  2.7939  1.7530
 1257ANI     HN17598   1.977   1.676   1.968 -1.1340 -0.4438  0.2312
 1258ANI     CN17599   1.239   2.528   2.796  0.0902  0.1445 -0.2449
 1258ANI     CH17600   1.300   2.494   2.918 -0.1100 -0.3898 -0.2957
 1258ANI     CH17601   1.337   2.361   2.940 -0.3765 -0.4552 -0.2469
 1258ANI     CH17602   1.330   2.270   2.834 -0.8898 -0.6103 -0.0838
 1258ANI     CH17603   1.278   2.304   2.709 -0.2804 -0.6321 -0.3429
 1258ANI     CH17604   1.231   2.435   2.693 -0.0973 -0.4815  0.3333
 1258ANI     NH17605   1.201   2.654   2.769 -0.1218  0.1642  0.1380
 1258ANI     HC17606   1.297   2.556   3.006  0.1314 -0.0346 -0.5316
 1258ANI     HC17607   1.370   2.339   3.041 -2.1176 -0.4331  0.3593
 1258ANI     HC17608   1.359   2.166   2.848 -1.1277 -0.6476  0.1332
 1258ANI     HC17609   1.267   2.230   2.631 -0.3340 -0.3806 -0.5763
 1258ANI     HC17610   1.204   2.464   2.592  0.8377 -0.1315  0.1818
 1258ANI     HN17611   1.174   2.703   2.853 -2.3944 -2.0077  0.6989
 1258ANI     HN17612   1.145   2.668   2.687 -1.2833 -0.9480  0.7162
 1259ANI     CN17613   4.908   2.885   1.232 -0.4067 -0.0519 -0.2507
 1259ANI     CH17614   4.921   2.754   1.279  0.1867  0.0011 -0.2591
 1259ANI     CH17615   4.901   2.656   1.181 -0.0116 -0.5019  0.2856
 1259ANI     CH17616   4.868   2.681   1.047  0.1388  0.4012  0.4153
 1259ANI     CH17617   4.853   2.814   1.007 -0.4815  0.2632  0.1884
 1259ANI     CH17618   4.879   2.916   1.099 -0.0653  0.5066 -0.1981
 1259ANI     NH17619   4.920   2.981   1.325 -0.1248 -0.1723 -0.1601
 1259ANI     HC17620   4.946   2.707   1.373  0.6297 -0.6471 -0.6980
 1259ANI     HC17621   4.922   2.552   1.204 -2.5853 -0.8598  1.1894
 1259ANI     HC17622   4.852   2.599   0.978 -0.9553  0.1459  0.9625
 1259ANI     HC17623   4.824   2.842   0.907  0.5393  1.3588  0.1860
 1259ANI     HC17624   4.875   3.019   1.067 -0.4959  0.1870 -1.1868
 1259ANI     HN17625   4.858   2.966   1.403  1.3625 -0.7584  0.9164
 1259ANI     HN17626   4.912   3.078   1.295 -0.6695  0.3123  1.4868
 1260ANI     CN17627   0.127   3.056   5.085  0.2657 -0.3112  0.0237
 1260ANI     CH17628   0.149   3.105   5.215 -0.1025 -0.4110  0.1264
 1260ANI     CH17629   0.166   3.242   5.239 -0.1355 -0.3151 -0.3823
 1260ANI     CH17630   0.162   3.332   5.133 -0.5458  0.1218  0.0014
 1260ANI     CH17631   0.148   3.283   5.002 -0.3813 -0.0055  0.0311
 1260ANI     CH17632   0.131   3.146   4.978  0.0732 -0.0911  0.2001
 1260ANI     NH17633   0.110   2.924   5.074 -0.0189 -0.2822  0.1263
 1260ANI     HC17634   0.145   3.037   5.299  1.2584 -0.4298  0.1998
 1260ANI     HC17635   0.175   3.272   5.343 -0.2305  0.6333 -0.6495
 1260ANI     HC17636   0.181   3.437   5.149  0.9951 -0.3537  1.4033
 1260ANI     HC17637   0.160   3.352   4.920  0.0910 -1.0289 -0.7672
 1260ANI     HC17638   0.136   3.103   4.879  1.3970  0.1687  0.1361
 1260ANI     HN17639   0.151   2.863   5.143  0.6098 -0.4857 -0.4282
 1260ANI     HN17640   0.122   2.879   4.985 -1.5542  0.9381 -0.7112
 1261ANI     CN17641   6.208   3.090   4.612 -0.3197  0.0660 -0.0694
 1261ANI     CH17642   6.146   2.974   4.565 -0.1957  0.0264 -0.1357
 1261ANI     CH17643   6.158   2.943   4.429  0.0567  0.3198 -0.1788
 1261ANI     CH17644   6.230   3.028   4.343  0.4454  0.0425 -0.1302
 1261ANI     CH17645   6.289   3.141   4.398  0.0365  0.1747  0.0406
 1261ANI     CH17646   6.293   3.171   4.535 -0.1272  0.0077  0.0800
 1261ANI     NH17647   6.193   3.125   4.741 -0.2749 -0.1767  0.0008
 1261ANI     HC17648   6.092   2.903   4.626 -0.6420 -1.7235 -2.5171
 1261ANI     HC17649   6.115   2.852   4.390 -0.4629  0.8792 -0.9324
 1261ANI     HC17650   6.234   2.999   4.239 -2.8160  1.2640 -0.6721
 1261ANI     HC17651   6.338   3.216   4.337  0.8118 -0.4043 -0.0524
 1261ANI     HC17652   6.317   3.267   4.579 -2.3520  0.2589  0.8185
 1261ANI     HN17653   6.206   3.225   4.749 -0.8170 -0.1590  0.6980
 1261ANI     HN17654   6.098   3.102   4.765 -0.8203  1.7464 -0.2431
 1262ANI     CN17655   2.034   6.214   0.795 -0.1945 -0.1598  0.6916
 1262ANI     CH17656   2.131   6.166   0.884  0.7647  0.7339  0.1453
 1262ANI     CH17657   2.150   6.217   1.013  0.1437  0.2229  0.4416
 1262ANI     CH17658   2.067   6.325   1.049  0.0306  0.0686  0.6439
 1262ANI     CH17659   1.969   6.376   0.964  0.2689 -0.3663  0.1049
 1262ANI     CH17660   1.958   6.324   0.834 -0.1342  0.1595 -0.0722
 1262ANI     NH17661   2.004   6.158   0.676  0.3335  0.4515  0.2646
 1262ANI     HC17662   2.189   6.079   0.860  2.2192  1.7229  0.0110
 1262ANI     HC17663   2.219   6.164   1.077  0.1932  1.0255  1.0734
 1262ANI     HC17664   2.087   6.368   1.146 -1.4713  1.5175  0.3168
 1262ANI     HC17665   1.928   6.462   1.015 -1.1493 -1.9882  1.7892
 1262ANI     HC17666   1.887   6.372   0.768 -1.8980 -2.0466  0.1698
 1262ANI     HN17667   1.906   6.134   0.675  0.2683  0.7693 -1.8868
 1262ANI     HN17668   2.051   6.077   0.639  0.8152  2.0930 -2.8090
 1263ANI     CN17669   2.629   5.262   5.745 -0.2890 -0.1659  0.7239
 1263ANI     CH17670   2.496   5.299   5.769 -0.4082 -0.0273 -0.1244
 1263ANI     CH17671   2.451   5.339   5.896 -0.1423  0.4027 -0.1649
 1263ANI     CH17672   2.546   5.354   5.998  0.2013  0.4358 -0.4875
 1263ANI     CH17673   2.679   5.316   5.975  0.2844  0.3193  0.1743
 1263ANI     CH17674   2.719   5.262   5.852  0.1812 -0.1105  0.3271
 1263ANI     NH17675   2.670   5.226   5.622  0.0048 -0.7526  0.9909
 1263ANI     HC17676   2.433   5.273   5.685  0.5390 -0.6843 -0.6375
 1263ANI     HC17677   2.354   5.372   5.928 -1.2113 -0.9113 -1.9386
 1263ANI     HC17678   2.509   5.392   6.092  0.1146 -1.8956  0.4543
 1263ANI     HC17679   2.743   5.321   6.061 -0.8949  0.7412  1.0433
 1263ANI     HC17680   2.821   5.226   5.845  1.1397  2.1845  1.8536
 1263ANI     HN17681   2.593   5.197   5.563 -2.7304  2.0243  2.9806
 1263ANI     HN17682   2.746   5.161   5.612  0.8453  0.1697  1.2983
 1264ANI     CN17683   1.298   2.779   5.512 -0.0118  0.3227 -0.4958
 1264ANI     CH17684   1.345   2.858   5.406  0.6328 -0.0910 -0.5199
 1264ANI     CH17685   1.262   2.956   5.350 -0.0173 -0.1938  0.2557
 1264ANI     CH17686   1.132   2.965   5.401 -0.2811  0.1407 -0.4709
 1264ANI     CH17687   1.081   2.878   5.498  0.0676 -0.6387 -0.9872
 1264ANI     CH17688   1.163   2.776   5.549  0.0098 -0.4372 -0.4867
 1264ANI     NH17689   1.388   2.699   5.570 -0.4576  0.1152 -0.0815
 1264ANI     HC17690   1.448   2.854   5.375  0.4090 -0.3784 -1.2266
 1264ANI     HC17691   1.292   3.023   5.271 -0.1809  0.4203  0.7070
 1264ANI     HC17692   1.063   3.040   5.364 -0.2230  0.8707  0.8491
 1264ANI     HC17693   0.979   2.885   5.533  1.3648  0.0219  3.0360
 1264ANI     HC17694   1.131   2.700   5.619 -1.6862  2.0612  1.5116
 1264ANI     HN17695   1.472   2.689   5.515 -1.9273 -2.2661 -1.9873
 1264ANI     HN17696   1.353   2.609   5.599 -1.9396  0.2556 -1.4079
 1265ANI     CN17697   1.229   1.507   3.319  0.0980  0.3133  0.2523
 1265ANI     CH17698   1.196   1.383   3.264 -0.5244  0.5523  0.0755
 1265ANI     CH17699   1.144   1.288   3.352 -0.2331  0.3132 -0.0073
 1265ANI     CH17700   1.115   1.320   3.485 -0.3309 -0.6819  0.2151
 1265ANI     CH17701   1.143   1.447   3.537 -0.3105 -0.4868 -0.2693
 1265ANI     CH17702   1.193   1.543   3.449 -0.1623 -0.0569  0.2837
 1265ANI     NH17703   1.294   1.592   3.238  0.7647  0.4808  0.9609
 1265ANI     HC17704   1.213   1.372   3.157  1.3750 -2.6082  0.6128
 1265ANI     HC17705   1.133   1.188   3.313  0.9427  0.9690 -2.0751
 1265ANI     HC17706   1.075   1.254   3.561  2.0417 -1.1000  1.1272
 1265ANI     HC17707   1.140   1.456   3.645 -1.4345 -0.9528 -0.2547
 1265ANI     HC17708   1.227   1.636   3.493  2.6486 -1.6172  1.5010
 1265ANI     HN17709   1.347   1.666   3.282  0.6258  1.1998 -0.0518
 1265ANI     HN17710   1.352   1.543   3.172  1.1039 -0.6478  2.0852
 1266ANI     CN17711   6.274   0.524   2.933  0.2659  0.0222  0.3193
 1266ANI     CH17712   6.174   0.427   2.953  0.1467  0.0950  0.0718
 1266ANI     CH17713   6.205   0.302   3.006 -0.5479  0.0290  0.3343
 1266ANI     CH17714   6.337   0.258   3.024 -0.2631  0.3806 -0.8555
 1266ANI     CH17715   6.438   0.350   2.994 -0.0003  0.0967 -0.8433
 1266ANI     CH17716   6.404   0.481   2.960  0.5794  0.2493 -0.8358
 1266ANI     NH17717   6.241   0.652   2.915  0.0618 -0.2052 -0.9262
 1266ANI     HC17718   6.073   0.452   2.923 -0.6320  0.2354  2.6372
 1266ANI     HC17719   6.123   0.239   3.037 -1.5946  1.3342  0.2607
 1266ANI     HC17720   6.359   0.156   3.053 -1.0543  0.3769 -0.2485
 1266ANI     HC17721   6.541   0.321   3.007  1.0349  2.5178 -3.1613
 1266ANI     HC17722   6.480   0.559   2.958 -1.2178  2.0616 -0.0406
 1266ANI     HN17723   6.305   0.695   2.849 -0.9190  1.4352 -0.8503
 1266ANI     HN17724   6.145   0.670   2.888 -0.3276  0.1110  0.6572
 1267ANI     CN17725   2.506   2.606   0.851 -0.1913 -0.1113  0.6267
 1267ANI     CH17726   2.441   2.716   0.793  0.1386 -0.1644  0.1518
 1267ANI     CH17727   2.314   2.751   0.839  0.3452  0.7526  0.0306
 1267ANI     CH17728   2.247   2.670   0.932  0.0904  0.6133 -0.2714
 1267ANI     CH17729   2.310   2.557   0.986 -0.5935  0.2955 -0.1442
 1267ANI     CH17730   2.443   2.532   0.951 -0.5709 -0.2249  0.3036
 1267ANI     NH17731   2.634   2.578   0.822 -0.2576 -0.0829  0.2983
 1267ANI     HC17732   2.490   2.764   0.710 -1.8619 -0.0140 -0.9670
 1267ANI     HC17733   2.264   2.839   0.801 -1.1245 -0.8425 -1.8115
 1267ANI     HC17734   2.147   2.700   0.960  0.2640  0.3785  0.6084
 1267ANI     HC17735   2.262   2.501   1.065 -0.8520 -1.0513 -1.2545
 1267ANI     HC17736   2.475   2.445   1.005  1.0407  0.9292  1.2622
 1267ANI     HN17737   2.663   2.613   0.732 -2.3839 -0.9063 -0.7376
 1267ANI     HN17738   2.653   2.479   0.819  0.0354 -0.0585  1.0403
 1268ANI     CN17739   1.250   0.259   6.079 -0.3855 -0.1472  0.2053
 1268ANI     CH17740   1.167   0.304   5.975 -0.1972  0.3308  0.2584
 1268ANI     CH17741   1.109   0.207   5.892  0.3478 -0.1819  0.4690
 1268ANI     CH17742   1.140   0.071   5.901  0.1519 -0.3374 -0.9837
 1268ANI     CH17743   1.226   0.029   6.004 -0.7595 -0.2555 -0.1792
 1268ANI     CH17744   1.278   0.123   6.093 -0.7823 -0.2688 -0.1525
 1268ANI     NH17745   1.299   0.341   6.172  0.1304 -0.4698  0.2196
 1268ANI     HC17746   1.143   0.408   5.963 -0.8070  0.2268  0.5268
 1268ANI     HC17747   1.036   0.235   5.817  0.9210  1.9834  0.6789
 1268ANI     HC17748   1.079   0.003   5.844 -0.5807 -0.7372  0.2383
 1268ANI     HC17749   1.247  -0.077   6.012 -1.6331 -0.3680  0.7446
 1268ANI     HC17750   1.348   0.089   6.168 -1.8375 -0.9334  0.5366
 1268ANI     HN17751   1.255   0.432   6.177  0.6541 -0.2129  0.2185
 1268ANI     HN17752   1.284   0.307   6.266  0.0716 -2.3459 -0.4608
 1269ANI     CN17753   0.012   3.634   4.329  0.3097  0.2402  0.1336
 1269ANI     CH17754   0.008   3.509   4.266  0.7081  0.3530 -0.1179
 1269ANI     CH17755  -0.115   3.456   4.225  0.3725  0.4919  0.6996
 1269ANI     CH17756  -0.232   3.523   4.263  0.0876  0.2980  0.1659
 1269ANI     CH17757  -0.228   3.646   4.329  0.7420  0.5656 -0.3642
 1269ANI     CH17758  -0.105   3.705   4.358  0.5675  0.5205  0.4867
 1269ANI     NH17759   0.134   3.688   4.343  0.2334  0.3299  0.4616
 1269ANI     HC17760   0.100   3.454   4.251  0.4084  0.1650 -1.3025
 1269ANI     HC17761  -0.114   3.358   4.179 -0.1519  0.3613  0.9678
 1269ANI     HC17762  -0.323   3.466   4.253  0.8875 -0.5821 -2.5522
 1269ANI     HC17763  -0.321   3.686   4.368  0.1396  1.2405 -2.3866
 1269ANI     HC17764  -0.104   3.801   4.407 -1.1265  0.7515  0.0977
 1269ANI     HN17765   0.109   3.772   4.392 -2.8771 -1.8178  2.7415
 1269ANI     HN17766   0.198   3.631   4.396  0.7691  0.3743 -0.1327
 1270ANI     CN17767   0.531   1.699   5.013 -0.4502 -0.1347 -0.4511
 1270ANI     CH17768   0.502   1.567   5.052  0.1085 -0.0684  0.1920
 1270ANI     CH17769   0.588   1.466   5.009 -0.3146 -0.4090  0.1418
 1270ANI     CH17770   0.701   1.493   4.930 -0.3261 -0.0202  0.2565
 1270ANI     CH17771   0.738   1.624   4.898  0.7972 -0.1741  0.9097
 1270ANI     CH17772   0.650   1.723   4.944 -0.2500 -0.5549 -0.2567
 1270ANI     NH17773   0.448   1.800   5.041 -0.2053 -0.0784  0.0622
 1270ANI     HC17774   0.406   1.549   5.098 -0.4763  0.8456 -0.6328
 1270ANI     HC17775   0.563   1.365   5.037 -1.7934  0.3704  1.7500
 1270ANI     HC17776   0.766   1.421   4.883 -2.2777 -0.1837 -2.3060
 1270ANI     HC17777   0.822   1.646   4.835 -0.0965 -2.2013 -1.0642
 1270ANI     HC17778   0.682   1.824   4.919 -1.9368  0.3466  1.1622
 1270ANI     HN17779   0.497   1.887   5.026  2.2582 -1.6964 -1.5220
 1270ANI     HN17780   0.422   1.792   5.139 -1.6435 -1.5459 -0.4147
 1271ANI     CN17781   1.961   3.283   1.493  0.2450 -0.2688  0.0074
 1271ANI     CH17782   1.837   3.231   1.455  0.1805  0.1549 -0.3705
 1271ANI     CH17783   1.746   3.193   1.555  0.0014  1.0235 -0.2021
 1271ANI     CH17784   1.775   3.214   1.690 -0.1384 -0.2323  0.0304
 1271ANI     CH17785   1.903   3.255   1.728 -0.2323 -0.1302  0.2422
 1271ANI     CH17786   1.994   3.293   1.629 -0.1484 -0.6161  0.1314
 1271ANI     NH17787   2.048   3.330   1.403  0.2365 -0.5924 -0.1690
 1271ANI     HC17788   1.820   3.207   1.351 -1.0329  1.6644 -0.5405
 1271ANI     HC17789   1.651   3.149   1.531  0.9948 -0.5998 -1.3148
 1271ANI     HC17790   1.701   3.194   1.767 -0.8714  2.5362  0.1134
 1271ANI     HC17791   1.933   3.277   1.829 -1.2551  0.7841  0.3573
 1271ANI     HC17792   2.087   3.340   1.658 -0.8199  2.3782 -2.3006
 1271ANI     HN17793   2.074   3.419   1.443  2.4004 -0.9068 -0.7906
 1271ANI     HN17794   2.020   3.349   1.308  2.3550  1.0307 -0.5142
 1272ANI     CN17795   5.573   2.657   5.707  0.1885  0.2086 -0.0842
 1272ANI     CH17796   5.460   2.714   5.768 -0.0703 -0.1269 -0.2481
 1272ANI     CH17797   5.472   2.750   5.903 -0.0473 -0.3272 -0.1952
 1272ANI     CH17798   5.595   2.737   5.968  0.2890  0.3662 -0.6841
 1272ANI     CH17799   5.707   2.683   5.904  0.3409 -0.6539  0.2598
 1272ANI     CH17800   5.693   2.634   5.774  0.3483  0.6124 -0.2251
 1272ANI     NH17801   5.547   2.620   5.580 -0.2672  0.0066  0.0657
 1272ANI     HC17802   5.363   2.726   5.723 -0.1310 -1.3257 -0.4648
 1272ANI     HC17803   5.387   2.787   5.958  0.1113  0.4063 -0.4356
 1272ANI     HC17804   5.600   2.779   6.067  0.2242  0.9111 -0.9115
 1272ANI     HC17805   5.804   2.667   5.949  0.9077  2.3022  0.1759
 1272ANI     HC17806   5.770   2.572   5.728  0.5441  1.7902 -1.5179
 1272ANI     HN17807   5.477   2.668   5.526 -0.6338  1.1063  1.4892
 1272ANI     HN17808   5.633   2.604   5.529  1.3911  1.1899  2.3378
 1273ANI     CN17809   3.641   4.692   2.490  0.1586 -0.1217 -0.3601
 1273ANI     CH17810   3.650   4.766   2.371  0.1298  0.4417 -0.0125
 1273ANI     CH17811   3.541   4.847   2.338  0.1177  0.4753  0.1103
 1273ANI     CH17812   3.419   4.843   2.406  0.2550  0.1825  0.3408
 1273ANI     CH17813   3.411   4.757   2.517 -0.0524 -0.7463 -0.3862
 1273ANI     CH17814   3.522   4.684   2.562  0.1960 -0.3349 -0.3199
 1273ANI     NH17815   3.741   4.609   2.525 -0.1107 -0.3206 -0.0624
 1273ANI     HC17816   3.735   4.774   2.305 -0.5987  1.6233 -0.8063
 1273ANI     HC17817   3.556   4.906   2.249 -2.1176  0.5384 -0.2596
 1273ANI     HC17818   3.335   4.903   2.374  0.2800 -0.6414 -1.3270
 1273ANI     HC17819   3.317   4.745   2.568  0.2427  2.3481  1.0416
 1273ANI     HC17820   3.504   4.629   2.653 -1.9550 -1.0847 -1.1618
 1273ANI     HN17821   3.826   4.643   2.484  0.4619  1.3220  2.4171
 1273ANI     HN17822   3.748   4.586   2.623 -2.4749 -2.1120 -0.2437
 1274ANI     CN17823   5.819   2.395   0.953  0.0554  0.0576 -0.1790
 1274ANI     CH17824   5.746   2.373   0.835 -0.0010  0.4449 -0.2176
 1274ANI     CH17825   5.613   2.415   0.824  0.0092  0.4074 -0.4968
 1274ANI     CH17826   5.546   2.473   0.932  0.4473 -0.2880  0.1548
 1274ANI     CH17827   5.618   2.503   1.048 -0.1568  0.1197  0.4285
 1274ANI     CH17828   5.752   2.464   1.055 -0.1627 -0.0339 -0.2587
 1274ANI     NH17829   5.952   2.380   0.948 -0.0246 -0.7039 -0.1000
 1274ANI     HC17830   5.797   2.326   0.753  0.5438  1.0243 -0.2200
 1274ANI     HC17831   5.554   2.391   0.737 -0.8717  0.6186  0.0413
 1274ANI     HC17832   5.438   2.480   0.936  0.4316  0.1297 -0.9176
 1274ANI     HC17833   5.567   2.549   1.131 -0.4203 -0.4269  0.5720
 1274ANI     HC17834   5.802   2.491   1.147  0.9873  1.7603 -1.3937
 1274ANI     HN17835   5.994   2.350   0.862 -0.7553  0.1912 -0.7785
 1274ANI     HN17836   5.998   2.465   0.978 -0.3265 -0.2777 -0.8429
 1275ANI     CN17837   0.325   5.835   3.554  0.4755 -0.0696 -0.5725
 1275ANI     CH17838   0.421   5.896   3.637 -0.0124  0.5566 -0.4659
 1275ANI     CH17839   0.449   6.033   3.636  0.2622  0.5007 -0.4034
 1275ANI     CH17840   0.373   6.115   3.553 -0.2398  0.5422  0.0910
 1275ANI     CH17841   0.277   6.056   3.470  0.5123 -0.3310 -0.1682
 1275ANI     CH17842   0.249   5.919   3.471  0.1467 -0.2613 -0.4641
 1275ANI     NH17843   0.312   5.702   3.549 -0.8747  0.0629 -0.5793
 1275ANI     HC17844   0.474   5.832   3.706  1.7650  0.5093 -1.8454
 1275ANI     HC17845   0.522   6.077   3.703 -1.6354  2.1111  0.6487
 1275ANI     HC17846   0.377   6.222   3.564 -1.6514  0.4874  1.2131
 1275ANI     HC17847   0.218   6.120   3.406 -0.6222  0.2297  1.4108
 1275ANI     HC17848   0.167   5.882   3.412 -0.4727 -0.9700  0.8219
 1275ANI     HN17849   0.257   5.662   3.474  0.4952 -2.0969 -0.4574
 1275ANI     HN17850   0.373   5.639   3.599  1.1255  1.7909 -0.8060
 1276ANI     CN17851   5.057   0.558   1.391 -0.6821  0.0975  0.5307
 1276ANI     CH17852   5.110   0.682   1.355  0.2497 -0.5408 -0.3146
 1276ANI     CH17853   5.028   0.769   1.282  0.0047 -0.6352 -0.1525
 1276ANI     CH17854   4.895   0.737   1.256 -0.1752  0.4743 -0.6388
 1276ANI     CH17855   4.849   0.608   1.288 -0.5487  0.9173  0.6423
 1276ANI     CH17856   4.931   0.513   1.350 -0.3817  0.2538 -0.5734
 1276ANI     NH17857   5.141   0.467   1.443 -0.3441 -0.0733 -0.2971
 1276ANI     HC17858   5.211   0.708   1.384 -0.2055  0.7348  0.1500
 1276ANI     HC17859   5.066   0.865   1.249  0.2172  0.0176  1.9050
 1276ANI     HC17860   4.833   0.811   1.207 -3.5346 -1.7199  0.0716
 1276ANI     HC17861   4.751   0.576   1.257  0.0601  0.8253 -1.3125
 1276ANI     HC17862   4.888   0.417   1.374  0.9269 -0.0360  0.6394
 1276ANI     HN17863   5.192   0.512   1.518 -2.4398  3.2758 -0.7243
 1276ANI     HN17864   5.098   0.382   1.476  0.4902  1.1362  4.3394
 1277ANI     CN17865   2.795   0.055   3.988 -0.5580 -0.0491  0.0722
 1277ANI     CH17866   2.885  -0.045   4.026 -1.0280 -0.4610  0.1131
 1277ANI     CH17867   2.928  -0.063   4.158 -0.0270 -0.1198 -0.1602
 1277ANI     CH17868   2.880   0.022   4.258 -0.1776 -0.5614  0.1449
 1277ANI     CH17869   2.785   0.117   4.221  0.0494 -0.5657 -0.4487
 1277ANI     CH17870   2.745   0.139   4.088 -0.6100  0.1628 -0.1309
 1277ANI     NH17871   2.756   0.070   3.861 -0.2933  0.4641  0.0517
 1277ANI     HC17872   2.914  -0.114   3.948  1.6611 -0.0496  0.6830
 1277ANI     HC17873   2.994  -0.146   4.178 -0.5862 -0.3327  0.8612
 1277ANI     HC17874   2.918   0.020   4.359 -0.1136  2.2545  0.1931
 1277ANI     HC17875   2.742   0.179   4.298  3.9344  0.0398  1.3181
 1277ANI     HC17876   2.676   0.216   4.057 -1.4973 -0.7347 -0.4024
 1277ANI     HN17877   2.658   0.089   3.847 -0.4790 -1.2871 -1.2562
 1277ANI     HN17878   2.761  -0.020   3.816  0.5019  1.4631 -1.9497
 1278ANI     CN17879   1.153   2.859   0.081  0.0188 -0.0021  0.4207
 1278ANI     CH17880   1.105   2.874  -0.050  0.1070 -0.0923  0.3783
 1278ANI     CH17881   0.982   2.940  -0.061  0.3082  0.2320  0.0665
 1278ANI     CH17882   0.905   2.986   0.046 -0.3310 -0.5467 -0.0524
 1278ANI     CH17883   0.953   2.962   0.176  0.0367 -0.3815 -0.1573
 1278ANI     CH17884   1.078   2.901   0.191  0.2087  0.1328  0.4979
 1278ANI     NH17885   1.278   2.813   0.090 -0.2505 -0.6676  0.7558
 1278ANI     HC17886   1.162   2.833  -0.132 -0.5993  0.7564 -0.5411
 1278ANI     HC17887   0.943   2.944  -0.162  0.8613  0.4388 -0.1434
 1278ANI     HC17888   0.807   3.026   0.026  0.0623 -0.0123 -0.9320
 1278ANI     HC17889   0.897   2.994   0.262 -0.2424  1.7052 -1.0871
 1278ANI     HC17890   1.113   2.885   0.292 -0.2955  0.2935  0.6968
 1278ANI     HN17891   1.332   2.877   0.034  1.7056 -1.7668  1.3329
 1278ANI     HN17892   1.316   2.839   0.180 -1.6767  1.4906  0.7666
 1279ANI     CN17893   5.309   3.788   4.808  0.0693  0.0775  0.0560
 1279ANI     CH17894   5.221   3.836   4.710 -0.2196  0.1768  0.3627
 1279ANI     CH17895   5.239   3.798   4.577 -0.3567  0.4891  0.2555
 1279ANI     CH17896   5.346   3.713   4.546 -0.1117  0.6768  0.5787
 1279ANI     CH17897   5.435   3.669   4.644  0.7419  0.1767 -0.4130
 1279ANI     CH17898   5.420   3.708   4.777  0.0321  0.2423 -0.5121
 1279ANI     NH17899   5.294   3.816   4.938 -0.3771  0.5496 -0.0944
 1279ANI     HC17900   5.143   3.906   4.736 -1.2239 -0.9143  0.3047
 1279ANI     HC17901   5.181   3.832   4.492  0.5563  0.9800 -0.1818
 1279ANI     HC17902   5.351   3.687   4.441 -1.0094  0.8295  0.4938
 1279ANI     HC17903   5.506   3.592   4.614 -0.3591 -0.5092 -1.3041
 1279ANI     HC17904   5.488   3.680   4.856 -0.3658  1.3632  0.2393
 1279ANI     HN17905   5.256   3.909   4.951 -1.8024 -0.2271  1.4193
 1279ANI     HN17906   5.385   3.808   4.982 -0.7198  1.3304  0.7909
 1280ANI     CN17907   6.086   1.417   0.493 -0.3575  0.2630  0.2267
 1280ANI     CH17908   6.055   1.284   0.524  0.4796 -0.0123 -0.1031
 1280ANI     CH17909   5.920   1.249   0.538  0.4407  0.3439  0.4518
 1280ANI     CH17910   5.819   1.343   0.519 -0.1504 -0.4711 -0.4883
 1280ANI     CH17911   5.856   1.475   0.489 -0.2052 -0.3787 -0.1462
 1280ANI     CH17912   5.989   1.516   0.476 -0.3644  0.2643  0.2676
 1280ANI     NH17913   6.213   1.462   0.496 -0.3700  0.3404 -0.3525
 1280ANI     HC17914   6.137   1.215   0.536 -1.9640 -3.1538 -0.9188
 1280ANI     HC17915   5.889   1.149   0.565 -1.0167  0.4335 -0.8139
 1280ANI     HC17916   5.718   1.308   0.508  0.1785 -2.0299  1.2633
 1280ANI     HC17917   5.777   1.540   0.454  1.6032  0.6948 -2.3697
 1280ANI     HC17918   6.018   1.620   0.465  4.5817 -0.8012  1.6513
 1280ANI     HN17919   6.236   1.441   0.592 -1.9569  1.4191  0.2867
 1280ANI     HN17920   6.202   1.561   0.483  1.3881  0.4931 -0.7427
 1281ANI     CN17921   3.439   3.914   1.299 -0.6785  0.1770 -0.7203
 1281ANI     CH17922   3.311   3.923   1.355 -0.4306 -0.6893 -0.0233
 1281ANI     CH17923   3.257   3.818   1.431 -0.0254 -0.8252  0.0766
 1281ANI     CH17924   3.331   3.700   1.446  0.5974 -0.4042  0.3435
 1281ANI     CH17925   3.461   3.691   1.394  0.5460 -0.0290  0.1502
 1281ANI     CH17926   3.513   3.797   1.319 -0.4315  0.4936  0.2092
 1281ANI     NH17927   3.497   4.010   1.226 -0.0738  0.2019 -0.2060
 1281ANI     HC17928   3.250   4.010   1.340  0.3112 -0.2507 -0.5181
 1281ANI     HC17929   3.164   3.831   1.483  0.8624  0.1922  1.4309
 1281ANI     HC17930   3.292   3.619   1.507  1.1040 -1.1070 -0.2470
 1281ANI     HC17931   3.525   3.604   1.395 -0.4690 -0.7913 -0.3054
 1281ANI     HC17932   3.611   3.788   1.277  0.1021 -0.4469  1.6038
 1281ANI     HN17933   3.433   4.087   1.212  0.2475  0.3750 -0.7560
 1281ANI     HN17934   3.524   3.973   1.136  0.2852 -0.3380  0.1226
 1282ANI     CN17935   4.480   4.201   5.126 -0.0123  0.7452  0.0842
 1282ANI     CH17936   4.342   4.223   5.131 -0.1040  0.3160 -0.4594
 1282ANI     CH17937   4.255   4.133   5.068  0.0394 -0.0309 -0.1613
 1282ANI     CH17938   4.305   4.019   5.004  0.3662 -0.2300  0.4421
 1282ANI     CH17939   4.443   3.995   5.005  0.3318 -0.4193  0.8137
 1282ANI     CH17940   4.531   4.084   5.069 -0.1777  0.7758 -0.1280
 1282ANI     NH17941   4.565   4.284   5.187  0.4817  0.4511 -0.1931
 1282ANI     HC17942   4.297   4.312   5.172 -2.4220 -0.7497 -0.6199
 1282ANI     HC17943   4.150   4.155   5.062 -0.7347 -2.0326  3.9896
 1282ANI     HC17944   4.239   3.951   4.953  0.8479  1.3096 -2.3090
 1282ANI     HC17945   4.492   3.915   4.952  0.6801 -0.7107  1.5722
 1282ANI     HC17946   4.637   4.062   5.068 -0.8321 -2.6615  0.0858
 1282ANI     HN17947   4.632   4.236   5.244  0.3883 -0.5148 -0.8983
 1282ANI     HN17948   4.506   4.340   5.248  0.7880 -0.6728  1.1641
 1283ANI     CN17949   4.082   2.202   2.606 -0.0372 -0.3652 -0.0159
 1283ANI     CH17950   4.217   2.181   2.633 -0.0298 -0.0821  0.1751
 1283ANI     CH17951   4.276   2.239   2.746  0.3658  0.3943 -0.2747
 1283ANI     CH17952   4.196   2.320   2.828 -0.1435 -0.0228 -0.3547
 1283ANI     CH17953   4.058   2.333   2.805 -0.1317  0.0937 -0.3600
 1283ANI     CH17954   4.000   2.279   2.690 -0.1128 -0.2184 -0.2244
 1283ANI     NH17955   4.034   2.157   2.489  0.2493 -0.0681 -0.2498
 1283ANI     HC17956   4.276   2.127   2.560  0.7259  0.6210  0.2616
 1283ANI     HC17957   4.383   2.228   2.756  0.5882  2.0211 -0.6466
 1283ANI     HC17958   4.238   2.371   2.914 -1.1233 -2.3640  1.5442
 1283ANI     HC17959   4.009   2.396   2.878 -0.1062  1.3797 -1.4372
 1283ANI     HC17960   3.893   2.286   2.678 -0.2680 -1.0837  0.6508
 1283ANI     HN17961   4.103   2.146   2.417 -1.7191 -4.1823 -1.6947
 1283ANI     HN17962   3.962   2.218   2.453  0.7724  1.1511  0.7390
 1284ANI     CN17963   4.965   0.179   1.630  0.2759  0.4202 -0.5468
 1284ANI     CH17964   4.896   0.283   1.694  0.0153 -0.0743 -0.0254
 1284ANI     CH17965   4.959   0.358   1.794 -0.4365  0.0940  0.1323
 1284ANI     CH17966   5.095   0.336   1.817 -0.2411  0.4378 -0.6977
 1284ANI     CH17967   5.167   0.242   1.741 -0.3772 -0.4844  0.3132
 1284ANI     CH17968   5.103   0.161   1.647  0.2295  0.0527 -0.5641
 1284ANI     NH17969   4.898   0.101   1.544 -0.1376  0.3256 -0.1370
 1284ANI     HC17970   4.789   0.291   1.684 -0.1108 -1.9111 -0.4125
 1284ANI     HC17971   4.904   0.424   1.859  0.9377 -1.2860  2.7738
 1284ANI     HC17972   5.137   0.402   1.891 -0.4008 -0.7443  0.4505
 1284ANI     HC17973   5.274   0.238   1.755 -0.3549  2.1025  1.2299
 1284ANI     HC17974   5.158   0.084   1.596 -0.1353  0.0345 -0.9328
 1284ANI     HN17975   4.962   0.042   1.494 -0.4441 -0.5181  0.4527
 1284ANI     HN17976   4.829   0.052   1.599 -0.5141  2.0368  0.9896
 1285ANI     CN17977   3.722   2.734   2.855  0.1866 -0.0005  0.2542
 1285ANI     CH17978   3.837   2.655   2.848  0.5000  0.4447  0.3096
 1285ANI     CH17979   3.938   2.694   2.760  0.2743 -0.1594 -0.2300
 1285ANI     CH17980   3.921   2.801   2.671 -0.0763 -0.0340 -0.0116
 1285ANI     CH17981   3.800   2.871   2.673  0.0052  0.1145 -0.2792
 1285ANI     CH17982   3.698   2.836   2.762  0.3779 -0.1411  0.0508
 1285ANI     NH17983   3.636   2.699   2.951  0.2439 -0.2686  0.2066
 1285ANI     HC17984   3.862   2.585   2.927  0.0733 -2.0881 -1.7018
 1285ANI     HC17985   4.027   2.633   2.757 -1.0206 -2.0472 -1.1635
 1285ANI     HC17986   3.998   2.836   2.604 -1.5284  0.4501 -1.4394
 1285ANI     HC17987   3.781   2.956   2.609 -2.1744 -1.2439 -1.5056
 1285ANI     HC17988   3.602   2.885   2.757  0.3864 -0.0079  1.0903
 1285ANI     HN17989   3.552   2.743   2.918  0.3976 -0.0995  0.0407
 1285ANI     HN17990   3.602   2.604   2.937  1.2312 -0.4120 -1.3262
 1286ANI     CN17991   5.664   4.346   5.127 -0.0840 -0.1320 -0.2065
 1286ANI     CH17992   5.696   4.229   5.057  0.5736 -0.0321 -0.0758
 1286ANI     CH17993   5.777   4.240   4.944  0.6382  0.0351 -0.0226
 1286ANI     CH17994   5.816   4.365   4.896  0.1681  0.4018  0.5480
 1286ANI     CH17995   5.777   4.481   4.964 -0.6022  0.2395  0.3799
 1286ANI     CH17996   5.708   4.472   5.085  0.1508  0.1259  0.8050
 1286ANI     NH17997   5.605   4.339   5.247 -0.2143  1.0788 -0.1973
 1286ANI     HC17998   5.658   4.131   5.081 -0.5132  0.2225 -0.7192
 1286ANI     HC17999   5.803   4.152   4.886 -1.9074  0.4798 -1.9384
 1286ANI     HC18000   5.875   4.375   4.806 -0.2952  3.0447  0.5031
 1286ANI     HC18001   5.794   4.580   4.925 -0.1994 -0.0835 -0.2692
 1286ANI     HC18002   5.681   4.565   5.134 -1.2408 -0.0101  0.3228
 1286ANI     HN18003   5.587   4.431   5.287 -0.7014  0.3707  1.2724
 1286ANI     HN18004   5.516   4.292   5.247  0.3177  0.0590 -0.8387
 1287ANI     CN18005   3.993   4.536   3.248  0.1012  0.4462  0.1794
 1287ANI     CH18006   4.006   4.528   3.387  0.1478  0.2002  0.1621
 1287ANI     CH18007   3.896   4.555   3.469  0.0143  0.7810 -0.1984
 1287ANI     CH18008   3.774   4.589   3.410 -0.4422 -0.1646  0.1874
 1287ANI     CH18009   3.760   4.598   3.271  0.3692  0.2400  0.1334
 1287ANI     CH18010   3.870   4.566   3.189  0.0640 -0.2341 -0.0896
 1287ANI     NH18011   4.095   4.498   3.169  0.0690  0.0566  0.3261
 1287ANI     HC18012   4.095   4.488   3.432  0.3072 -0.8234 -1.0419
 1287ANI     HC18013   3.909   4.533   3.574  1.8110  0.3781 -0.4792
 1287ANI     HC18014   3.692   4.611   3.477 -1.0481 -1.3804 -0.1276
 1287ANI     HC18015   3.668   4.639   3.233  0.7504  1.4990  0.5462
 1287ANI     HC18016   3.867   4.566   3.081 -1.5593 -0.4676 -0.0567
 1287ANI     HN18017   4.107   4.558   3.089  2.0972  0.1742  0.6971
 1287ANI     HN18018   4.187   4.489   3.209 -0.3476  0.4850  1.3929
 1288ANI     CN18019   0.366   4.255   5.629 -0.1758 -0.4319  0.1333
 1288ANI     CH18020   0.322   4.281   5.759 -0.2596 -0.3932  0.0970
 1288ANI     CH18021   0.219   4.373   5.779 -0.4267 -0.5561 -0.0204
 1288ANI     CH18022   0.167   4.435   5.664 -0.5904 -0.9007 -0.1345
 1288ANI     CH18023   0.210   4.409   5.533  0.5644  0.2636  0.0042
 1288ANI     CH18024   0.313   4.316   5.514  0.1391 -0.2285  0.0967
 1288ANI     NH18025   0.456   4.159   5.607 -0.0173 -0.3063  0.2399
 1288ANI     HC18026   0.365   4.234   5.847 -1.3569  0.0643  0.8828
 1288ANI     HC18027   0.186   4.394   5.879  1.0590  1.1539  0.1299
 1288ANI     HC18028   0.083   4.500   5.683 -1.1328 -1.7768  0.4716
 1288ANI     HC18029   0.157   4.456   5.452 -0.7010 -0.3966  0.4284
 1288ANI     HC18030   0.358   4.298   5.418  0.5650 -1.6961  0.5544
 1288ANI     HN18031   0.470   4.132   5.511 -2.8417 -1.0336 -0.0020
 1288ANI     HN18032   0.443   4.070   5.652 -0.0552 -2.6157 -4.0710
 1289ANI     CN18033   2.364   5.591   0.148  0.1846 -0.0861  0.3201
 1289ANI     CH18034   2.375   5.730   0.139 -0.3877 -0.0568  0.0163
 1289ANI     CH18035   2.338   5.803   0.025  0.4156  0.0463 -0.1845
 1289ANI     CH18036   2.261   5.737  -0.072 -0.3224  0.3735  0.1695
 1289ANI     CH18037   2.229   5.603  -0.052  1.0004  0.0159 -0.0162
 1289ANI     CH18038   2.287   5.527   0.050  0.4647 -0.1697  0.1569
 1289ANI     NH18039   2.414   5.514   0.246 -0.1583 -0.4881  0.1797
 1289ANI     HC18040   2.426   5.791   0.213  0.9664 -2.2551  0.9371
 1289ANI     HC18041   2.349   5.910   0.032  0.0092  0.0504  0.4876
 1289ANI     HC18042   2.231   5.788  -0.162 -2.0353  1.3222  1.2599
 1289ANI     HC18043   2.165   5.562  -0.129  0.3214  3.3646 -1.3264
 1289ANI     HC18044   2.278   5.419   0.053  0.4113 -0.1448  0.9578
 1289ANI     HN18045   2.389   5.417   0.240 -1.4684 -0.1608  0.1171
 1289ANI     HN18046   2.514   5.519   0.255 -0.3069  0.6892  1.2884
 1290ANI     CN18047   2.365   4.254   3.303 -0.5492  0.0817  0.1679
 1290ANI     CH18048   2.287   4.365   3.270  0.1263  0.4818 -0.0833
 1290ANI     CH18049   2.245   4.382   3.137  0.0056  0.0202 -0.1052
 1290ANI     CH18050   2.277   4.295   3.033  0.2927 -0.3534  0.2935
 1290ANI     CH18051   2.351   4.183   3.070  0.2625 -0.3922  0.2359
 1290ANI     CH18052   2.395   4.162   3.202  0.2123  0.1396  0.3376
 1290ANI     NH18053   2.426   4.244   3.421 -0.0708 -0.0347 -0.0879
 1290ANI     HC18054   2.273   4.438   3.348 -0.2635 -0.2101  0.4888
 1290ANI     HC18055   2.189   4.470   3.108 -0.1778 -0.1363 -0.2312
 1290ANI     HC18056   2.249   4.302   2.929 -2.1608  0.6046  0.9964
 1290ANI     HC18057   2.371   4.108   2.994 -0.4945 -1.0781  0.7058
 1290ANI     HC18058   2.444   4.070   3.229  0.6690  0.5775  1.0054
 1290ANI     HN18059   2.422   4.336   3.464 -0.2349  0.4274 -1.0899
 1290ANI     HN18060   2.516   4.199   3.422 -0.6797 -1.3271 -1.5984
 1291ANI     CN18061   3.960   5.684   1.194  0.2153  0.2123  0.3992
 1291ANI     CH18062   4.067   5.770   1.164 -0.0160  0.3814  0.0572
 1291ANI     CH18063   4.175   5.782   1.253 -0.0136 -0.4079  0.1663
 1291ANI     CH18064   4.188   5.703   1.367  0.1150 -0.3340  0.2030
 1291ANI     CH18065   4.084   5.610   1.386  0.4254 -0.7573 -0.1501
 1291ANI     CH18066   3.973   5.596   1.302  0.3665 -0.4171 -0.1303
 1291ANI     NH18067   3.859   5.683   1.107  0.4377 -0.1376  0.1463
 1291ANI     HC18068   4.059   5.829   1.074  1.7801  1.8364  0.7942
 1291ANI     HC18069   4.249   5.852   1.216 -0.0338 -1.0443 -1.1007
 1291ANI     HC18070   4.277   5.706   1.428  0.4838  1.7249 -0.4052
 1291ANI     HC18071   4.088   5.548   1.474 -1.4242 -1.6818 -0.6908
 1291ANI     HC18072   3.900   5.520   1.324 -2.0571  1.0571 -2.7362
 1291ANI     HN18073   3.791   5.609   1.121  1.1781 -0.8782 -0.0956
 1291ANI     HN18074   3.879   5.691   1.008 -1.1755  0.8303 -0.1133
 1292ANI     CN18075   5.023   0.493   0.840 -0.8247 -0.5686  0.3540
 1292ANI     CH18076   4.925   0.455   0.747 -0.1037 -0.0264 -0.6388
 1292ANI     CH18077   4.939   0.333   0.680  0.5933 -0.0575 -0.4416
 1292ANI     CH18078   5.047   0.246   0.702  0.3575 -0.2524 -0.0572
 1292ANI     CH18079   5.144   0.280   0.797  0.8984 -0.2399 -0.6110
 1292ANI     CH18080   5.131   0.407   0.856 -0.5573 -0.4102 -0.5354
 1292ANI     NH18081   5.002   0.604   0.912  0.3115 -0.2584  0.2182
 1292ANI     HC18082   4.832   0.507   0.732 -0.6597 -1.0359 -0.7181
 1292ANI     HC18083   4.863   0.311   0.607 -2.0421  2.1633  1.5374
 1292ANI     HC18084   5.054   0.154   0.646 -1.5944 -0.6214  0.2520
 1292ANI     HC18085   5.227   0.216   0.820  2.2971  2.2303  1.5548
 1292ANI     HC18086   5.205   0.427   0.933 -1.4123  0.3145  0.1002
 1292ANI     HN18087   4.906   0.636   0.920 -0.0439 -1.5203  1.3293
 1292ANI     HN18088   5.034   0.599   1.008  3.0122 -0.3846 -0.6658
 1293ANI     CN18089   4.355   3.300   2.873  0.0526  0.1038 -0.5520
 1293ANI     CH18090   4.440   3.192   2.902 -0.3413 -0.0871 -0.0975
 1293ANI     CH18091   4.428   3.070   2.836  0.4690 -0.0760 -0.2692
 1293ANI     CH18092   4.331   3.060   2.735 -0.0505 -0.0812  0.2322
 1293ANI     CH18093   4.254   3.169   2.694  0.1107 -0.2023 -0.3986
 1293ANI     CH18094   4.268   3.290   2.764 -0.1411 -0.1877 -0.3703
 1293ANI     NH18095   4.359   3.417   2.938 -0.8836  0.0046 -0.3157
 1293ANI     HC18096   4.504   3.202   2.989 -2.4376 -0.7634  1.5495
 1293ANI     HC18097   4.495   2.990   2.864  2.3662  1.0374 -1.4954
 1293ANI     HC18098   4.311   2.965   2.689  0.1864  0.3439 -0.7561
 1293ANI     HC18099   4.185   3.159   2.611 -1.4500  1.2160  0.6799
 1293ANI     HC18100   4.214   3.374   2.722  2.1816  1.0568 -0.9480
 1293ANI     HN18101   4.277   3.472   2.959  0.7185  1.9770  0.9628
 1293ANI     HN18102   4.416   3.421   3.021  0.3407  0.8379 -1.1736
 1294ANI     CN18103   0.959   6.139   1.592  0.2085  0.0347  0.2645
 1294ANI     CH18104   0.904   6.215   1.696  0.0856  0.3770 -0.0496
 1294ANI     CH18105   0.808   6.157   1.780  0.1260  0.0883 -0.2003
 1294ANI     CH18106   0.760   6.029   1.752  0.1662  0.0816 -0.2381
 1294ANI     CH18107   0.811   5.955   1.645 -0.0437 -0.1091 -0.2067
 1294ANI     CH18108   0.913   6.009   1.566 -0.1785  0.2519 -0.1335
 1294ANI     NH18109   1.049   6.191   1.507  0.5302 -0.1268  0.5051
 1294ANI     HC18110   0.937   6.316   1.716 -3.3654  1.4731  0.2976
 1294ANI     HC18111   0.773   6.221   1.860  2.5810  1.2804  0.0006
 1294ANI     HC18112   0.675   5.992   1.808  0.5705  2.1270  1.8000
 1294ANI     HC18113   0.762   5.861   1.621 -0.4295 -0.3467  1.4236
 1294ANI     HC18114   0.942   5.961   1.474 -2.2963 -0.0890 -0.6515
 1294ANI     HN18115   1.048   6.137   1.422 -1.3893  0.4368  0.1511
 1294ANI     HN18116   1.033   6.289   1.489  0.7203 -0.0472  0.7727
 1295ANI     CN18117   1.342   5.847   3.487  0.2581  0.0553  0.0456
 1295ANI     CH18118   1.459   5.775   3.463  0.0025 -0.2546 -0.2667
 1295ANI     CH18119   1.584   5.836   3.482 -0.2566  0.1124  0.2488
 1295ANI     CH18120   1.596   5.967   3.528  0.1012  0.0529  0.3213
 1295ANI     CH18121   1.476   6.034   3.557  0.3049  0.0380  1.2302
 1295ANI     CH18122   1.350   5.977   3.539  0.4447  0.1720 -0.2722
 1295ANI     NH18123   1.224   5.790   3.458  0.3276 -0.1248  0.1127
 1295ANI     HC18124   1.448   5.675   3.422 -1.2427 -0.4869  0.6141
 1295ANI     HC18125   1.676   5.786   3.457 -0.6145  1.0063 -3.0506
 1295ANI     HC18126   1.695   6.010   3.532  0.5695 -0.9603 -0.2432
 1295ANI     HC18127   1.497   6.137   3.582  1.8834  0.5802 -2.0188
 1295ANI     HC18128   1.264   6.042   3.550  0.4764 -0.1618  2.1998
 1295ANI     HN18129   1.224   5.712   3.521  0.8016 -0.4746 -0.3251
 1295ANI     HN18130   1.142   5.849   3.468  0.9913  0.9907 -0.8022
 1296ANI     CN18131   4.844   0.075   4.828 -0.6328 -0.0960  0.1793
 1296ANI     CH18132   4.738   0.106   4.742 -0.4149 -0.1084 -0.0999
 1296ANI     CH18133   4.674   0.006   4.667 -0.1461 -0.4717  0.1507
 1296ANI     CH18134   4.722  -0.125   4.682  0.0371 -0.4482 -0.2130
 1296ANI     CH18135   4.825  -0.158   4.770 -0.1143 -0.1744  0.0699
 1296ANI     CH18136   4.884  -0.058   4.848 -0.4438 -0.0434  0.1515
 1296ANI     NH18137   4.894   0.171   4.907 -0.7055 -0.1702  0.3148
 1296ANI     HC18138   4.709   0.209   4.731 -1.5523 -0.3358  0.6707
 1296ANI     HC18139   4.589   0.034   4.606  0.3597  1.2650  0.2062
 1296ANI     HC18140   4.673  -0.209   4.636 -0.1499 -1.3588  1.6141
 1296ANI     HC18141   4.862  -0.258   4.786 -2.4355 -0.9834  0.4900
 1296ANI     HC18142   4.961  -0.078   4.921  1.0112  1.2054 -0.9831
 1296ANI     HN18143   4.943   0.238   4.850 -1.1377  0.9794  1.2665
 1296ANI     HN18144   4.962   0.145   4.977 -0.0215 -0.8189 -0.5775
 1297ANI     CN18145   6.033   2.450   5.901  0.2041  0.1386 -0.4781
 1297ANI     CH18146   5.926   2.387   5.964  0.4906  0.2623  0.1320
 1297ANI     CH18147   5.895   2.252   5.942 -0.1109  0.4841 -0.3924
 1297ANI     CH18148   5.971   2.177   5.852  0.1934 -0.2656  0.4866
 1297ANI     CH18149   6.080   2.236   5.787  0.1619 -0.6140  0.1134
 1297ANI     CH18150   6.107   2.371   5.812  0.1870 -0.6337  0.1932
 1297ANI     NH18151   6.075   2.574   5.931  0.1084  0.1311 -0.3132
 1297ANI     HC18152   5.865   2.451   6.027 -2.1819 -2.2028  0.1695
 1297ANI     HC18153   5.818   2.207   6.003 -1.1661  4.2729  1.2398
 1297ANI     HC18154   5.946   2.074   5.830 -1.9925  0.0043  1.5082
 1297ANI     HC18155   6.137   2.185   5.711  0.6905  0.7572 -0.4164
 1297ANI     HC18156   6.183   2.418   5.751  1.3360 -0.4163  1.7562
 1297ANI     HN18157   6.023   2.607   6.011 -0.4038  0.6494 -0.8558
 1297ANI     HN18158   6.174   2.579   5.954  0.8046  0.4766 -3.1399
 1298ANI     CN18159   5.706   5.161   0.411  0.2944 -0.4626 -0.2292
 1298ANI     CH18160   5.701   5.203   0.544  0.1084  0.2319 -0.4512
 1298ANI     CH18161   5.654   5.118   0.645 -0.3707  0.2768 -0.6353
 1298ANI     CH18162   5.614   4.988   0.611  0.4734 -0.3159  0.5957
 1298ANI     CH18163   5.601   4.949   0.478 -0.0298 -0.1106  0.5806
 1298ANI     CH18164   5.655   5.034   0.380 -0.3195 -0.3259  0.2311
 1298ANI     NH18165   5.751   5.242   0.314  0.5322  0.1291  0.3678
 1298ANI     HC18166   5.743   5.298   0.575 -1.9428  0.5243  1.5628
 1298ANI     HC18167   5.661   5.150   0.748  3.4470  2.0991 -1.3486
 1298ANI     HC18168   5.582   4.921   0.689 -0.6339 -0.6537 -0.1473
 1298ANI     HC18169   5.560   4.852   0.455  2.0165 -1.4824  2.4488
 1298ANI     HC18170   5.645   5.008   0.276 -2.2729 -0.0652  0.3231
 1298ANI     HN18171   5.812   5.311   0.355 -0.4644  0.9132  0.5603
 1298ANI     HN18172   5.785   5.190   0.234  0.7286 -1.4966  1.4827
 1299ANI     CN18173   6.040   5.263   6.260  0.1053 -0.7085 -0.2979
 1299ANI     CH18174   6.175   5.277   6.224  0.0701  0.6565  0.0731
 1299ANI     CH18175   6.203   5.348   6.106  0.0757  0.5342  0.0015
 1299ANI     CH18176   6.099   5.392   6.023  0.1722  0.3739 -0.2039
 1299ANI     CH18177   5.964   5.368   6.050  0.4095 -0.3244  0.3747
 1299ANI     CH18178   5.939   5.311   6.176 -0.2080 -0.6757  0.0980
 1299ANI     NH18179   6.002   5.217   6.380  0.0504  0.3029  0.0777
 1299ANI     HC18180   6.254   5.250   6.292  0.0070  3.2859  1.2798
 1299ANI     HC18181   6.308   5.370   6.092  0.2005 -0.1273 -0.1221
 1299ANI     HC18182   6.124   5.424   5.923 -0.9153 -0.7525 -0.8506
 1299ANI     HC18183   5.886   5.397   5.981  3.0841  2.1679 -1.6989
 1299ANI     HC18184   5.833   5.301   6.195 -0.1388 -1.2663  0.1587
 1299ANI     HN18185   6.069   5.145   6.401 -2.5663 -1.1250  3.8502
 1299ANI     HN18186   6.021   5.288   6.449  2.1163 -1.8952  1.8371
 1300ANI     CN18187   0.973   4.462   4.173 -0.4146  0.2750  0.1482
 1300ANI     CH18188   1.032   4.487   4.297 -0.1310 -0.2899  0.1302
 1300ANI     CH18189   1.169   4.462   4.311  0.0169  0.3378 -0.1739
 1300ANI     CH18190   1.245   4.419   4.202  0.1046  0.3003 -0.0978
 1300ANI     CH18191   1.183   4.399   4.078  0.0051 -0.9688  0.1531
 1300ANI     CH18192   1.044   4.409   4.064  0.0531  0.2223  0.4748
 1300ANI     NH18193   0.843   4.490   4.158 -0.6927 -1.1002 -0.1239
 1300ANI     HC18194   0.979   4.534   4.379 -2.6672 -0.4010 -1.3941
 1300ANI     HC18195   1.215   4.489   4.406 -0.1943 -1.3279  0.4159
 1300ANI     HC18196   1.350   4.407   4.223  0.5311  2.9799 -0.4440
 1300ANI     HC18197   1.245   4.374   3.994 -1.3018 -0.2674 -1.0406
 1300ANI     HC18198   1.000   4.379   3.970  1.6107 -0.6232  0.0091
 1300ANI     HN18199   0.781   4.453   4.228 -3.7285  1.5728 -1.2732
 1300ANI     HN18200   0.824   4.456   4.065 -1.1636 -0.5404 -0.2298
 1301ANI     CN18201   5.273   0.933   0.881 -0.0684  0.0712 -0.4477
 1301ANI     CH18202   5.140   0.947   0.923  0.0786 -0.0528  0.0692
 1301ANI     CH18203   5.091   1.069   0.970 -0.1998 -0.2119  0.1913
 1301ANI     CH18204   5.177   1.175   1.001 -0.5296 -0.0569  0.5872
 1301ANI     CH18205   5.313   1.154   0.974 -0.7136 -0.4568 -0.0614
 1301ANI     CH18206   5.360   1.040   0.910  0.0349 -0.0806 -0.1933
 1301ANI     NH18207   5.312   0.835   0.799 -0.1213 -0.4413  0.1334
 1301ANI     HC18208   5.073   0.865   0.903 -0.0039 -0.0832  0.4775
 1301ANI     HC18209   4.984   1.080   0.982 -0.1117 -1.0237  1.8083
 1301ANI     HC18210   5.149   1.272   1.038 -4.6385 -1.3212  0.9836
 1301ANI     HC18211   5.381   1.231   1.008 -0.8570  0.2843 -1.4521
 1301ANI     HC18212   5.464   1.041   0.879  0.6662 -0.6359  1.8087
 1301ANI     HN18213   5.410   0.828   0.773 -0.9253 -3.4262 -2.3537
 1301ANI     HN18214   5.261   0.824   0.712 -1.7396  1.8314  0.7583
 1302ANI     CN18215   2.930   2.222   5.470 -0.1386  0.3761  0.1991
 1302ANI     CH18216   2.980   2.325   5.389 -0.1392  0.1233 -0.1233
 1302ANI     CH18217   2.923   2.345   5.263  0.1009 -0.0392 -0.2590
 1302ANI     CH18218   2.805   2.278   5.228  0.0323 -0.0650  0.0223
 1302ANI     CH18219   2.759   2.169   5.304 -0.1066  0.1972  0.3147
 1302ANI     CH18220   2.823   2.143   5.425  0.6347 -0.4428 -0.2100
 1302ANI     NH18221   2.989   2.204   5.589  0.0048  0.3290  0.1212
 1302ANI     HC18222   3.068   2.378   5.421 -0.4277  1.5165 -1.5637
 1302ANI     HC18223   2.976   2.420   5.206  1.5112  1.1259  2.5344
 1302ANI     HC18224   2.753   2.299   5.136 -0.3861 -1.0293  0.0255
 1302ANI     HC18225   2.671   2.122   5.261 -1.4739  3.3529 -0.5252
 1302ANI     HC18226   2.783   2.065   5.488  0.1649  0.8719  1.1436
 1302ANI     HN18227   3.006   2.109   5.620  0.2683  0.4903  0.4597
 1302ANI     HN18228   3.079   2.250   5.595  0.5412 -0.4481 -1.5333
 1303ANI     CN18229   0.836   5.298   0.094  0.2369 -0.2668  0.0447
 1303ANI     CH18230   0.766   5.214   0.183 -0.3016  0.2428  0.1097
 1303ANI     CH18231   0.660   5.136   0.136 -0.0681 -0.0663  0.0968
 1303ANI     CH18232   0.616   5.164   0.007 -0.2267  0.0476  0.1761
 1303ANI     CH18233   0.681   5.246  -0.085 -0.1871 -0.6434 -0.4176
 1303ANI     CH18234   0.792   5.316  -0.037 -0.2114 -0.9502  0.0935
 1303ANI     NH18235   0.951   5.355   0.134  0.3760 -0.1402 -0.5415
 1303ANI     HC18236   0.809   5.202   0.281 -2.3954  0.4345  1.0760
 1303ANI     HC18237   0.606   5.069   0.202  0.0625  0.8248  1.1183
 1303ANI     HC18238   0.533   5.107  -0.034  0.1450 -0.9542  0.7863
 1303ANI     HC18239   0.643   5.270  -0.183  0.8807 -1.4813 -1.0610
 1303ANI     HC18240   0.843   5.390  -0.099 -2.2115  0.7932  0.4769
 1303ANI     HN18241   1.016   5.353   0.056  1.7714  2.7007  0.4828
 1303ANI     HN18242   0.998   5.316   0.214 -0.0894 -0.5429 -0.4592
 1304ANI     CN18243   2.874   2.552   1.989  0.4994 -0.2867  0.3851
 1304ANI     CH18244   2.812   2.447   1.920  0.3748  0.0244  0.0203
 1304ANI     CH18245   2.756   2.338   1.988  0.4612  0.0357  0.1095
 1304ANI     CH18246   2.760   2.333   2.128  0.1601  0.2992  0.1287
 1304ANI     CH18247   2.820   2.438   2.198  0.3188  0.3486 -0.0794
 1304ANI     CH18248   2.871   2.549   2.129  1.5977  0.0839  0.4220
 1304ANI     NH18249   2.909   2.661   1.919 -0.7100 -0.1288  0.0118
 1304ANI     HC18250   2.800   2.447   1.813 -2.2680 -1.7209  0.2621
 1304ANI     HC18251   2.705   2.265   1.927  0.4139  1.3747 -1.4769
 1304ANI     HC18252   2.717   2.249   2.180  0.6257 -0.8101 -1.2395
 1304ANI     HC18253   2.829   2.431   2.306 -1.1959  0.7576  0.0887
 1304ANI     HC18254   2.912   2.623   2.196  1.8540  0.6986 -0.4170
 1304ANI     HN18255   2.872   2.666   1.826  3.1961  3.4716 -1.5209
 1304ANI     HN18256   2.893   2.742   1.978 -0.7459  0.2696 -0.5399
 1305ANI     CN18257   3.406   1.837   4.438 -0.1296  0.1219  0.1776
 1305ANI     CH18258   3.483   1.909   4.346  0.0198 -0.0378  0.1773
 1305ANI     CH18259   3.450   1.917   4.211  0.2586  0.0653  0.1252
 1305ANI     CH18260   3.343   1.841   4.163  0.6964 -0.4419 -0.0536
 1305ANI     CH18261   3.275   1.758   4.253  0.3243  0.4679  0.5149
 1305ANI     CH18262   3.301   1.757   4.390 -0.2490  0.0168  0.6202
 1305ANI     NH18263   3.435   1.838   4.568  0.3604 -0.2574  0.0697
 1305ANI     HC18264   3.568   1.967   4.381 -0.7437  1.0023  0.3397
 1305ANI     HC18265   3.497   1.987   4.143 -1.4541  0.0750 -1.0677
 1305ANI     HC18266   3.303   1.843   4.062 -1.3430  1.2276  0.7534
 1305ANI     HC18267   3.197   1.688   4.227 -0.2547  1.4887 -0.5389
 1305ANI     HC18268   3.246   1.688   4.453  0.0414 -0.7285  0.0695
 1305ANI     HN18269   3.536   1.841   4.569  0.3275  0.9291 -0.4731
 1305ANI     HN18270   3.408   1.749   4.608 -0.7544 -0.0670 -0.2687
 1306ANI     CN18271   4.321   6.008   4.087 -0.1394 -0.0473  0.2255
 1306ANI     CH18272   4.350   6.142   4.117  0.0889 -0.1651  0.5323
 1306ANI     CH18273   4.248   6.237   4.127  0.2323 -0.0237  0.6516
 1306ANI     CH18274   4.115   6.196   4.115  0.0984  0.6740 -0.3460
 1306ANI     CH18275   4.084   6.069   4.066  0.7407  0.2759  0.2826
 1306ANI     CH18276   4.187   5.974   4.065  0.1020 -0.4057 -0.7019
 1306ANI     NH18277   4.419   5.917   4.077 -0.0746  0.1114 -0.6652
 1306ANI     HC18278   4.451   6.180   4.123 -0.9810  2.5073  2.6797
 1306ANI     HC18279   4.276   6.336   4.161  2.0994  0.6197 -2.5546
 1306ANI     HC18280   4.043   6.276   4.129  2.9765  3.3862 -0.6504
 1306ANI     HC18281   3.983   6.039   4.045 -0.0267  3.4046 -0.6048
 1306ANI     HC18282   4.163   5.870   4.049  1.1273 -0.9309  1.0352
 1306ANI     HN18283   4.431   5.905   3.978  0.6265 -2.0998 -0.3371
 1306ANI     HN18284   4.507   5.953   4.111  0.6146 -2.9842  1.0694
 1307ANI     CN18285   1.883   1.716   0.817  0.1834 -0.0688  0.3419
 1307ANI     CH18286   1.935   1.603   0.753  0.0329  0.2457 -0.3393
 1307ANI     CH18287   1.982   1.496   0.830  0.2353  0.3525 -0.3136
 1307ANI     CH18288   1.989   1.507   0.969 -0.6527 -0.0761 -0.2312
 1307ANI     CH18289   1.936   1.619   1.035  0.1961 -0.0505  0.4152
 1307ANI     CH18290   1.874   1.717   0.957 -0.0340 -0.2614  0.3304
 1307ANI     NH18291   1.845   1.825   0.750 -0.0003 -0.4658 -0.2045
 1307ANI     HC18292   1.943   1.597   0.645 -1.4309  1.4289 -0.5233
 1307ANI     HC18293   2.024   1.407   0.785  1.0647  0.7514 -0.3416
 1307ANI     HC18294   2.038   1.428   1.024  1.3600  1.0437 -0.3784
 1307ANI     HC18295   1.932   1.623   1.143  0.6823 -0.0690  0.4353
 1307ANI     HC18296   1.830   1.795   1.017 -0.8846  0.4465 -1.1921
 1307ANI     HN18297   1.778   1.879   0.803  0.4726 -1.1009  1.0439
 1307ANI     HN18298   1.815   1.813   0.654 -0.5105 -0.4689 -0.0481
 1308ANI     CN18299   0.815   4.719   4.925 -0.3075  0.0082 -0.3960
 1308ANI     CH18300   0.679   4.686   4.920 -0.2465 -0.2408 -0.3991
 1308ANI     CH18301   0.585   4.787   4.900  0.1186  0.3641  0.9111
 1308ANI     CH18302   0.622   4.922   4.891  0.1747  0.3438  0.8333
 1308ANI     CH18303   0.758   4.955   4.889  0.2037  0.1838 -0.0250
 1308ANI     CH18304   0.851   4.854   4.917  0.0116 -0.0712 -0.3064
 1308ANI     NH18305   0.908   4.628   4.956 -0.4724 -0.1720 -0.4297
 1308ANI     HC18306   0.650   4.582   4.934 -0.7591  0.1083  1.2926
 1308ANI     HC18307   0.483   4.754   4.910  0.9746 -2.5756  0.1340
 1308ANI     HC18308   0.545   4.998   4.885  1.5537  1.5681 -2.9913
 1308ANI     HC18309   0.799   5.054   4.873 -0.3713  1.1609  3.9137
 1308ANI     HC18310   0.957   4.877   4.917 -0.0277  0.3661  2.9690
 1308ANI     HN18311   0.891   4.544   4.903  0.2538  0.6355 -1.9744
 1308ANI     HN18312   1.002   4.658   4.934 -0.3086 -0.2216  0.1885
 1309ANI     CN18313   3.370   5.116   3.306  0.0819  0.2553  0.1028
 1309ANI     CH18314   3.497   5.074   3.263  0.1185 -0.5226  0.9441
 1309ANI     CH18315   3.522   4.941   3.228 -0.0045 -0.3820  0.3221
 1309ANI     CH18316   3.416   4.849   3.233 -0.0467 -0.3065  0.7822
 1309ANI     CH18317   3.287   4.888   3.269 -0.1217  0.3449 -0.1713
 1309ANI     CH18318   3.265   5.023   3.302  0.1504  0.1431  0.8656
 1309ANI     NH18319   3.350   5.243   3.341  0.0236  0.3691 -0.3374
 1309ANI     HC18320   3.579   5.144   3.262 -0.5358  0.2554  0.8636
 1309ANI     HC18321   3.614   4.899   3.190 -0.3057 -0.5456 -0.2351
 1309ANI     HC18322   3.431   4.746   3.204  2.1345  0.8612 -2.5563
 1309ANI     HC18323   3.202   4.822   3.269  0.3316 -0.2620  1.4519
 1309ANI     HC18324   3.164   5.057   3.318 -0.4119 -0.5172 -1.1530
 1309ANI     HN18325   3.420   5.297   3.391  0.1301  1.0055 -1.1676
 1309ANI     HN18326   3.260   5.263   3.382  0.1334 -0.3311  0.2420
 1310ANI     CN18327   5.581   4.681   3.035 -0.4863  0.7160  0.0360
 1310ANI     CH18328   5.552   4.611   3.152  0.1811  0.0939 -0.1660
 1310ANI     CH18329   5.446   4.519   3.153  0.5733 -0.3605 -0.0558
 1310ANI     CH18330   5.367   4.511   3.038  0.3327  0.0579  0.0805
 1310ANI     CH18331   5.404   4.571   2.916 -0.1036 -0.6512 -0.4044
 1310ANI     CH18332   5.511   4.661   2.915 -0.8501  0.2554  0.3247
 1310ANI     NH18333   5.678   4.774   3.034  0.1495  0.0560 -0.5373
 1310ANI     HC18334   5.600   4.635   3.246 -0.8742  3.1843 -0.3786
 1310ANI     HC18335   5.417   4.461   3.239  2.9476  0.9915  1.7024
 1310ANI     HC18336   5.276   4.453   3.035 -0.1609  0.3707  5.2515
 1310ANI     HC18337   5.345   4.544   2.830  2.1061 -1.1287 -1.8207
 1310ANI     HC18338   5.536   4.706   2.820 -0.3161 -0.0126  0.3325
 1310ANI     HN18339   5.683   4.828   2.949  1.0873 -0.7029 -0.9742
 1310ANI     HN18340   5.681   4.838   3.112 -1.4335 -1.8931  1.1694
 1311ANI     CN18341   1.384   2.884   4.799 -0.2872 -0.8919 -0.3451
 1311ANI     CH18342   1.448   2.863   4.922 -0.2331 -0.0247 -0.2223
 1311ANI     CH18343   1.366   2.849   5.035 -0.5089 -0.0904 -0.4312
 1311ANI     CH18344   1.227   2.856   5.025 -0.5300 -0.3179 -0.2951
 1311ANI     CH18345   1.165   2.879   4.901 -0.2476 -0.6173 -0.4931
 1311ANI     CH18346   1.246   2.902   4.789 -0.2132 -0.3600 -0.4160
 1311ANI     NH18347   1.466   2.899   4.694  0.2610 -0.4510  0.1407
 1311ANI     HC18348   1.556   2.852   4.924 -0.0337  1.7433 -0.6661
 1311ANI     HC18349   1.412   2.843   5.132 -1.8145 -0.4000  0.1779
 1311ANI     HC18350   1.164   2.845   5.112 -1.7142 -1.6162 -1.2739
 1311ANI     HC18351   1.058   2.881   4.890 -0.3052 -0.4396  0.0609
 1311ANI     HC18352   1.198   2.916   4.694 -1.2337  1.5725  0.3476
 1311ANI     HN18353   1.555   2.942   4.718 -0.3084  0.4543  0.6958
 1311ANI     HN18354   1.425   2.930   4.607 -0.0206 -3.3281 -0.7925
 1312ANI     CN18355   0.694   2.444   0.362 -0.2173  0.4143 -0.5955
 1312ANI     CH18356   0.737   2.315   0.397 -0.1687  0.5229 -0.2462
 1312ANI     CH18357   0.646   2.226   0.453  0.1208  0.0677 -0.4997
 1312ANI     CH18358   0.511   2.257   0.469  0.2625  0.2249  0.3919
 1312ANI     CH18359   0.467   2.384   0.431 -0.0172  0.3282  1.0493
 1312ANI     CH18360   0.560   2.477   0.382 -0.2398 -0.0118 -0.0360
 1312ANI     NH18361   0.785   2.531   0.316  0.8311 -0.2720  0.1642
 1312ANI     HC18362   0.842   2.289   0.397 -0.0751  0.8163  2.1912
 1312ANI     HC18363   0.681   2.131   0.492 -1.0722 -0.0170  0.4096
 1312ANI     HC18364   0.441   2.181   0.503  0.7877 -0.6930 -0.5695
 1312ANI     HC18365   0.362   2.410   0.438  0.0611  0.0496  3.7725
 1312ANI     HC18366   0.528   2.578   0.360  1.3616  0.3540 -0.7144
 1312ANI     HN18367   0.851   2.474   0.265 -0.8184 -0.0254 -2.2934
 1312ANI     HN18368   0.750   2.580   0.235 -1.3995 -1.1456  0.5901
 1313ANI     CN18369   3.275   5.543   2.001  0.2282  0.1099  0.9496
 1313ANI     CH18370   3.174   5.473   2.068  0.1600 -0.6786  0.0261
 1313ANI     CH18371   3.047   5.527   2.086  0.3799 -0.2078  0.1697
 1313ANI     CH18372   3.027   5.656   2.035  0.2319 -0.4418 -0.3670
 1313ANI     CH18373   3.121   5.728   1.961 -0.1769 -0.1454 -0.6064
 1313ANI     CH18374   3.245   5.665   1.940  0.0076 -0.1689  0.5004
 1313ANI     NH18375   3.391   5.483   1.970 -0.0414  0.1182 -0.0917
 1313ANI     HC18376   3.185   5.380   2.123 -1.0652 -0.4418  0.6858
 1313ANI     HC18377   2.968   5.471   2.134 -0.8189 -0.4592 -2.0081
 1313ANI     HC18378   2.929   5.694   2.059 -0.4118 -1.5094 -1.2213
 1313ANI     HC18379   3.096   5.823   1.916 -0.6123 -0.0216 -0.1021
 1313ANI     HC18380   3.323   5.720   1.890  0.5501  0.9380  2.5252
 1313ANI     HN18381   3.465   5.551   1.963  0.2346 -0.2408 -0.6463
 1313ANI     HN18382   3.416   5.404   2.027  0.5851  0.0454 -0.4674
 1314ANI     CN18383   5.741   4.593   5.707 -0.5124 -0.1456 -0.3403
 1314ANI     CH18384   5.791   4.516   5.601  0.5135 -0.2280  0.2012
 1314ANI     CH18385   5.821   4.583   5.482 -0.3808 -0.0234  0.0853
 1314ANI     CH18386   5.812   4.722   5.470  0.3504  0.0623  0.4443
 1314ANI     CH18387   5.752   4.794   5.574  0.1437 -0.0153  0.3799
 1314ANI     CH18388   5.715   4.729   5.692 -0.2402 -0.0274  0.2530
 1314ANI     NH18389   5.718   4.529   5.823  0.2346  0.3655  0.0907
 1314ANI     HC18390   5.801   4.410   5.619  1.3880 -0.0838  0.6077
 1314ANI     HC18391   5.850   4.531   5.392 -1.2397 -1.0258  0.3762
 1314ANI     HC18392   5.830   4.775   5.377  0.6229 -2.4788 -0.9833
 1314ANI     HC18393   5.739   4.901   5.566 -0.0397  0.3045  4.1298
 1314ANI     HC18394   5.672   4.781   5.777 -0.9156 -0.3859  0.1338
 1314ANI     HN18395   5.766   4.441   5.831  3.5072  1.8557 -1.9324
 1314ANI     HN18396   5.625   4.529   5.861  0.2118  0.7640  0.0299
 1315ANI     CN18397   3.322   4.722   0.043  0.5716 -0.1445 -0.4935
 1315ANI     CH18398   3.253   4.839   0.012  0.5348  0.0304  0.2477
 1315ANI     CH18399   3.307   4.965   0.044  0.2444  0.1375  0.3199
 1315ANI     CH18400   3.429   4.966   0.113  0.5373  0.5763 -0.2063
 1315ANI     CH18401   3.501   4.850   0.144  0.0748  0.3310 -0.0474
 1315ANI     CH18402   3.440   4.727   0.118 -0.0160  0.2794  0.4069
 1315ANI     NH18403   3.278   4.602   0.003  0.2735 -0.0993 -0.2964
 1315ANI     HC18404   3.157   4.823  -0.035 -0.7913  0.1643  2.7938
 1315ANI     HC18405   3.257   5.060   0.029  1.7595  1.0880  1.2606
 1315ANI     HC18406   3.483   5.053   0.146  1.0468  0.4648 -0.7235
 1315ANI     HC18407   3.600   4.862   0.186  0.1094  1.7402 -0.5009
 1315ANI     HC18408   3.486   4.639   0.162 -0.6793 -0.5814 -0.6024
 1315ANI     HN18409   3.288   4.523   0.065 -0.1353 -1.2324 -1.6427
 1315ANI     HN18410   3.179   4.603  -0.017  0.1448 -1.2794  0.2258
 1316ANI     CN18411   1.151   5.920   0.597  0.1757 -0.2421  0.4425
 1316ANI     CH18412   1.193   6.050   0.626 -0.3189 -0.0545  0.3260
 1316ANI     CH18413   1.111   6.136   0.700  0.4366  0.7545  0.2387
 1316ANI     CH18414   0.979   6.097   0.728  0.5687  0.1502  0.0252
 1316ANI     CH18415   0.935   5.968   0.695  0.2286  0.2781 -0.0099
 1316ANI     CH18416   1.018   5.883   0.623 -0.1980  0.3522 -0.5969
 1316ANI     NH18417   1.226   5.832   0.529  0.7698  0.6681 -0.0917
 1316ANI     HC18418   1.291   6.086   0.598 -1.3874  1.8367 -1.0649
 1316ANI     HC18419   1.152   6.227   0.741  0.2511  0.5850  0.8075
 1316ANI     HC18420   0.922   6.164   0.790 -0.3321  0.1121 -0.7559
 1316ANI     HC18421   0.834   5.932   0.708  0.3537 -0.3194 -0.6775
 1316ANI     HC18422   0.970   5.789   0.597  1.0328  0.1704 -2.3297
 1316ANI     HN18423   1.181   5.804   0.443  2.2961  1.5230 -1.1697
 1316ANI     HN18424   1.316   5.869   0.503  1.0517 -1.3027 -2.0637
 1317ANI     CN18425   1.768   0.212   1.850  0.4697 -0.1858 -0.0970
 1317ANI     CH18426   1.754   0.307   1.748 -0.3029 -0.5261 -0.3096
 1317ANI     CH18427   1.632   0.330   1.684 -0.1842 -0.7538 -0.6216
 1317ANI     CH18428   1.519   0.262   1.732 -0.0225 -0.7710 -0.2655
 1317ANI     CH18429   1.530   0.168   1.835  0.4433 -0.1188  0.2924
 1317ANI     CH18430   1.653   0.146   1.896  0.4753  0.0762  0.2955
 1317ANI     NH18431   1.884   0.196   1.915  0.3681  0.0212  0.1400
 1317ANI     HC18432   1.841   0.359   1.710 -0.6338 -0.9896 -1.7542
 1317ANI     HC18433   1.623   0.403   1.605 -0.6445 -1.4182 -1.1844
 1317ANI     HC18434   1.422   0.284   1.690  0.1005 -3.7586 -2.2798
 1317ANI     HC18435   1.446   0.113   1.877  0.7929  1.5372  3.2610
 1317ANI     HC18436   1.664   0.080   1.981  1.5940  0.1095  0.1876
 1317ANI     HN18437   1.948   0.272   1.894  0.2370  0.3398  0.8906
 1317ANI     HN18438   1.868   0.197   2.015 -1.7100 -0.6196 -0.1592
 1318ANI     CN18439   0.327   3.037   3.595 -0.3820 -0.0443 -0.3298
 1318ANI     CH18440   0.218   3.095   3.661 -0.4048 -0.4909  0.0269
 1318ANI     CH18441   0.139   3.189   3.594  0.5404  0.0149 -0.3835
 1318ANI     CH18442   0.175   3.223   3.463  0.5174  0.8053 -0.1930
 1318ANI     CH18443   0.277   3.157   3.393 -0.1508 -0.4056 -0.0565
 1318ANI     CH18444   0.356   3.063   3.460  0.5731  0.1774 -0.0840
 1318ANI     NH18445   0.403   2.945   3.656 -0.0106  0.5995  0.1895
 1318ANI     HC18446   0.203   3.080   3.767 -1.5801  1.0592  0.0966
 1318ANI     HC18447   0.058   3.244   3.640 -0.3944 -1.6657 -0.0055
 1318ANI     HC18448   0.114   3.288   3.402  0.7945  0.5968 -0.6929
 1318ANI     HC18449   0.291   3.172   3.287 -1.9798  0.7826 -0.1578
 1318ANI     HC18450   0.429   3.004   3.408 -0.4987 -1.3176  0.0949
 1318ANI     HN18451   0.403   2.949   3.756 -1.9515  1.5490  0.1669
 1318ANI     HN18452   0.499   2.945   3.624  0.1803  3.1184  0.6514
 1319ANI     CN18453   1.815   3.949   4.777 -0.3122  0.0400 -0.4803
 1319ANI     CH18454   1.743   4.006   4.882  0.4777  0.2173 -0.0312
 1319ANI     CH18455   1.814   4.079   4.978  0.1169  0.0932  0.3319
 1319ANI     CH18456   1.953   4.094   4.971  0.0993  0.1643  0.1372
 1319ANI     CH18457   2.017   4.050   4.854 -0.3415  0.8696 -0.3767
 1319ANI     CH18458   1.954   3.964   4.764 -0.2549  0.1524  0.2424
 1319ANI     NH18459   1.742   3.877   4.690  0.3115 -0.7396 -0.3704
 1319ANI     HC18460   1.636   4.012   4.898  0.2744  0.0708 -1.3181
 1319ANI     HC18461   1.764   4.130   5.059 -1.3233  0.0421 -0.5173
 1319ANI     HC18462   2.018   4.139   5.044 -0.5022 -1.1561  1.5073
 1319ANI     HC18463   2.124   4.068   4.846 -0.5546  2.3223 -0.1136
 1319ANI     HC18464   2.009   3.914   4.686 -1.1578  1.9814 -1.6293
 1319ANI     HN18465   1.793   3.831   4.616 -0.3123 -0.4662 -0.9713
 1319ANI     HN18466   1.656   3.917   4.656 -0.7188  1.5284  4.4002
 1320ANI     CN18467   0.891   1.402   2.428 -0.0888  0.4579  0.6374
 1320ANI     CH18468   0.972   1.358   2.534 -0.3277  0.1498  0.6943
 1320ANI     CH18469   1.085   1.434   2.571 -0.1135 -0.0494  0.4515
 1320ANI     CH18470   1.121   1.545   2.494 -0.3262  0.4677  1.0969
 1320ANI     CH18471   1.045   1.590   2.385  0.4761  0.2711  0.4580
 1320ANI     CH18472   0.927   1.520   2.361  0.2470  0.5070  0.8984
 1320ANI     NH18473   0.781   1.332   2.397  0.2653  0.0427  0.3108
 1320ANI     HC18474   0.949   1.265   2.582 -1.5774  1.3589  2.5142
 1320ANI     HC18475   1.143   1.398   2.654 -0.7175 -1.6577  0.2013
 1320ANI     HC18476   1.216   1.594   2.511 -0.3544  0.5767  0.9431
 1320ANI     HC18477   1.079   1.679   2.334  0.2102 -0.9096 -1.8733
 1320ANI     HC18478   0.868   1.557   2.278  0.6446 -0.3365  0.2290
 1320ANI     HN18479   0.708   1.372   2.340  1.7071  0.7896 -1.0716
 1320ANI     HN18480   0.739   1.264   2.458  0.3326 -1.8856 -1.7156
 1321ANI     CN18481   5.379   2.461   2.597  0.2150 -0.9648  0.7154
 1321ANI     CH18482   5.477   2.516   2.680  0.1618  0.2769 -0.0396
 1321ANI     CH18483   5.611   2.528   2.639  0.1348 -0.4247 -0.3327
 1321ANI     CH18484   5.650   2.476   2.515  0.2271 -0.1350 -0.4243
 1321ANI     CH18485   5.555   2.417   2.432  0.1765 -0.3672 -0.2009
 1321ANI     CH18486   5.421   2.414   2.472  0.3466  0.0014  0.3986
 1321ANI     NH18487   5.249   2.461   2.630  0.0603  0.4381  0.1410
 1321ANI     HC18488   5.455   2.550   2.780  0.7126 -0.3808  0.3131
 1321ANI     HC18489   5.691   2.563   2.702 -1.1289  0.4178  0.8282
 1321ANI     HC18490   5.754   2.457   2.492  0.5168  0.0981  0.6884
 1321ANI     HC18491   5.598   2.373   2.343  1.7969 -0.8595  0.8186
 1321ANI     HC18492   5.356   2.372   2.397  0.6295 -2.1288  1.3359
 1321ANI     HN18493   5.200   2.384   2.588  0.1201  0.2194  0.4723
 1321ANI     HN18494   5.225   2.490   2.724  0.2631 -0.4238  0.4660
 1322ANI     CN18495   3.382   3.292   1.002 -0.5502 -0.3587 -0.2673
 1322ANI     CH18496   3.471   3.203   1.062 -0.0478  0.2108 -0.1583
 1322ANI     CH18497   3.471   3.179   1.200  0.6809  0.5289 -0.0998
 1322ANI     CH18498   3.391   3.261   1.281  0.0405 -0.0875 -0.1025
 1322ANI     CH18499   3.308   3.358   1.225 -0.4330 -0.5286 -0.1722
 1322ANI     CH18500   3.303   3.372   1.086 -0.5810 -0.4972 -0.1640
 1322ANI     NH18501   3.375   3.302   0.869  0.3171 -0.0779 -0.2934
 1322ANI     HC18502   3.530   3.148   0.990 -1.0406 -2.1419  0.7611
 1322ANI     HC18503   3.533   3.102   1.243  0.2914 -0.5077 -1.3571
 1322ANI     HC18504   3.379   3.245   1.387 -1.3644  0.4179 -0.1790
 1322ANI     HC18505   3.251   3.427   1.286  1.1808 -1.3256  2.3076
 1322ANI     HC18506   3.243   3.449   1.040  0.9653  0.8348 -0.0158
 1322ANI     HN18507   3.386   3.209   0.830  0.4641  0.2861 -1.1390
 1322ANI     HN18508   3.279   3.322   0.845 -0.0044 -0.2278  0.8434
 1323ANI     CN18509   2.238   1.623   4.288 -0.4362  0.2101 -0.0777
 1323ANI     CH18510   2.264   1.639   4.151 -0.3518 -0.1297 -0.1007
 1323ANI     CH18511   2.208   1.742   4.075  0.3746  0.1655 -0.2455
 1323ANI     CH18512   2.121   1.831   4.140  0.4630  0.1469 -0.1024
 1323ANI     CH18513   2.084   1.813   4.274  0.1417  0.2232 -0.1821
 1323ANI     CH18514   2.145   1.710   4.346  0.0705  0.5072  0.2870
 1323ANI     NH18515   2.278   1.518   4.362  0.1045  0.1326 -0.4804
 1323ANI     HC18516   2.331   1.568   4.104  1.9983  0.9646  1.5182
 1323ANI     HC18517   2.218   1.748   3.968  0.2338  0.8692 -0.2233
 1323ANI     HC18518   2.080   1.909   4.078  0.3308 -0.6230 -1.0067
 1323ANI     HC18519   2.012   1.879   4.321 -2.2309 -1.4899 -1.2805
 1323ANI     HC18520   2.113   1.692   4.448 -1.9407 -2.0653 -0.7527
 1323ANI     HN18521   2.300   1.440   4.302  2.5122  2.0500 -2.2508
 1323ANI     HN18522   2.197   1.494   4.416  1.9527  0.8661  2.7103
 1324ANI     CN18523   0.180   3.913   3.423  0.0851  0.2858  0.0990
 1324ANI     CH18524   0.194   4.044   3.374 -0.2171  0.0697 -0.5706
 1324ANI     CH18525   0.228   4.064   3.240  0.3190  0.5183 -0.3712
 1324ANI     CH18526   0.244   3.955   3.154 -0.0273 -0.0211  0.2377
 1324ANI     CH18527   0.215   3.825   3.198 -0.0230 -0.0968  0.0222
 1324ANI     CH18528   0.189   3.806   3.334  0.3633  0.2695  0.1490
 1324ANI     NH18529   0.156   3.894   3.554  0.5825  0.4585  0.2146
 1324ANI     HC18530   0.197   4.133   3.435 -0.2980  0.0568 -0.5448
 1324ANI     HC18531   0.242   4.163   3.200  0.8169 -0.0101 -1.5383
 1324ANI     HC18532   0.273   3.974   3.051  0.0671 -3.5769 -0.4561
 1324ANI     HC18533   0.213   3.739   3.133  0.0317 -0.4835  0.5245
 1324ANI     HC18534   0.172   3.703   3.364  0.9837 -0.0269 -0.4864
 1324ANI     HN18535   0.180   3.798   3.573  0.4511  0.7153  1.7517
 1324ANI     HN18536   0.222   3.940   3.615 -0.2146  2.8717 -0.6594
 1325ANI     CN18537   1.049   4.463   3.123 -0.0119 -0.0114 -0.2210
 1325ANI     CH18538   1.170   4.508   3.070 -0.1092 -0.0192 -0.4485
 1325ANI     CH18539   1.201   4.481   2.936  0.2444  0.2228 -0.4166
 1325ANI     CH18540   1.118   4.398   2.860 -0.3005  0.4653 -0.0871
 1325ANI     CH18541   1.000   4.346   2.916 -0.0926 -0.6627 -0.6763
 1325ANI     CH18542   0.964   4.383   3.046  0.5688 -0.2577 -0.6059
 1325ANI     NH18543   1.018   4.489   3.251 -0.0782  0.4108 -0.3233
 1325ANI     HC18544   1.256   4.545   3.125 -0.0572  0.7807 -1.0584
 1325ANI     HC18545   1.297   4.506   2.892  1.0845 -1.9598  0.0887
 1325ANI     HC18546   1.142   4.381   2.756  0.2013 -0.1229  0.1231
 1325ANI     HC18547   0.926   4.288   2.863 -2.0456  1.3583 -0.2513
 1325ANI     HC18548   0.880   4.335   3.093  0.8831 -0.5815 -0.3745
 1325ANI     HN18549   1.100   4.479   3.308  0.1463 -1.6416 -0.9724
 1325ANI     HN18550   0.964   4.409   3.280  0.7646 -0.1619 -0.3300
 1326ANI     CN18551   4.371   5.478   2.504 -0.7234 -1.0388 -0.3902
 1326ANI     CH18552   4.438   5.484   2.381  0.1932 -0.1316  0.1477
 1326ANI     CH18553   4.544   5.397   2.352  0.6072  0.5113 -0.2814
 1326ANI     CH18554   4.579   5.299   2.445  0.0556  0.4926 -0.0874
 1326ANI     CH18555   4.515   5.295   2.569  1.0087  0.9624  0.4312
 1326ANI     CH18556   4.408   5.381   2.598 -0.0608 -0.2636  0.1580
 1326ANI     NH18557   4.290   5.577   2.543 -0.1524 -0.5829 -0.3460
 1326ANI     HC18558   4.403   5.550   2.303  1.6008 -0.4785 -0.7879
 1326ANI     HC18559   4.603   5.413   2.263 -2.0579 -1.9480 -2.6012
 1326ANI     HC18560   4.666   5.237   2.428 -0.1621  0.3586 -0.7332
 1326ANI     HC18561   4.544   5.220   2.640 -0.0868  0.8713  0.7986
 1326ANI     HC18562   4.362   5.391   2.695  3.5989 -2.4362  2.2216
 1326ANI     HN18563   4.224   5.550   2.616 -1.1683  1.0285 -0.6592
 1326ANI     HN18564   4.237   5.608   2.463 -2.7532 -3.6320  0.0499
 1327ANI     CN18565   3.054   2.461   1.035  0.1461  0.1485  0.5142
 1327ANI     CH18566   3.114   2.558   0.954  0.1121  0.0579  0.3811
 1327ANI     CH18567   3.243   2.531   0.906 -0.1344  0.1435 -0.3324
 1327ANI     CH18568   3.307   2.408   0.927 -0.2451  0.1194 -0.1405
 1327ANI     CH18569   3.244   2.311   1.007 -0.1502  0.0401 -0.1625
 1327ANI     CH18570   3.117   2.338   1.058 -0.3220 -0.2704 -0.4289
 1327ANI     NH18571   2.934   2.490   1.088  0.0318  1.2031 -0.3061
 1327ANI     HC18572   3.067   2.652   0.929  0.3618 -0.1281 -0.8583
 1327ANI     HC18573   3.291   2.605   0.843 -1.3065  1.0942 -0.1288
 1327ANI     HC18574   3.408   2.387   0.899 -0.6067  0.0321 -1.4088
 1327ANI     HC18575   3.294   2.219   1.029  1.0463  0.5802 -0.5683
 1327ANI     HC18576   3.075   2.256   1.115  1.1909 -0.3660  0.5589
 1327ANI     HN18577   2.874   2.411   1.106  0.7281  0.9912  1.1120
 1327ANI     HN18578   2.880   2.556   1.035 -0.0095  0.4517 -1.2158
 1328ANI     CN18579   4.543   4.310   5.954  0.2006  0.2880  0.3667
 1328ANI     CH18580   4.500   4.398   5.853  0.3852  0.1540  0.1709
 1328ANI     CH18581   4.590   4.448   5.759 -0.1726  0.0875 -0.4028
 1328ANI     CH18582   4.723   4.404   5.765 -0.0616  0.4658 -0.0440
 1328ANI     CH18583   4.765   4.309   5.859  0.2338  0.4137 -0.2300
 1328ANI     CH18584   4.677   4.270   5.960  0.1018 -0.2140 -0.5819
 1328ANI     NH18585   4.455   4.278   6.049  0.2745  0.1626  0.3922
 1328ANI     HC18586   4.395   4.426   5.856 -0.1449 -1.7634  0.3916
 1328ANI     HC18587   4.547   4.517   5.688 -3.2390 -1.7230 -0.3697
 1328ANI     HC18588   4.787   4.431   5.683 -0.7225 -0.9735 -1.0721
 1328ANI     HC18589   4.864   4.264   5.856 -0.7247 -1.6965 -1.1776
 1328ANI     HC18590   4.701   4.200   6.039  1.5821 -0.9728 -1.6876
 1328ANI     HN18591   4.359   4.284   6.018 -0.2320  0.1027  1.8611
 1328ANI     HN18592   4.462   4.194   6.105 -1.2989  0.4123  1.0044
 1329ANI     CN18593   1.349   3.642   5.961  0.0201 -0.4722 -0.3320
 1329ANI     CH18594   1.384   3.778   5.952  0.8403 -0.6454  0.1950
 1329ANI     CH18595   1.503   3.826   6.005  0.5611  0.4081 -0.1293
 1329ANI     CH18596   1.587   3.736   6.072  0.1584 -0.2289 -0.4805
 1329ANI     CH18597   1.551   3.602   6.091  0.4786 -0.2266  0.1799
 1329ANI     CH18598   1.431   3.556   6.035  0.2160  0.2797  0.3273
 1329ANI     NH18599   1.232   3.599   5.911 -0.1078 -0.0482 -0.3986
 1329ANI     HC18600   1.309   3.844   5.910  2.0625  0.8466  0.3365
 1329ANI     HC18601   1.530   3.931   5.998  1.3693  0.2423  0.3117
 1329ANI     HC18602   1.681   3.767   6.115  0.8514 -1.0078 -1.4230
 1329ANI     HC18603   1.617   3.539   6.147  0.2661  0.0266  0.7173
 1329ANI     HC18604   1.410   3.451   6.049 -2.2413  0.5986 -0.6425
 1329ANI     HN18605   1.220   3.649   5.824 -0.9189 -0.3186 -0.4437
 1329ANI     HN18606   1.259   3.511   5.869 -0.5365 -0.2670 -0.2156
 1330ANI     CN18607   2.203   1.774   2.715  0.7772  0.2311  0.1680
 1330ANI     CH18608   2.073   1.825   2.703  0.6922  0.0977  0.4954
 1330ANI     CH18609   2.013   1.905   2.801  0.0004  0.5213 -0.2623
 1330ANI     CH18610   2.080   1.924   2.922  0.3717 -0.5640 -0.2965
 1330ANI     CH18611   2.214   1.883   2.931  0.6088  0.3176  0.3169
 1330ANI     CH18612   2.271   1.799   2.835  0.5936  0.3959  0.2390
 1330ANI     NH18613   2.257   1.702   2.616 -0.3553 -0.2261 -0.1335
 1330ANI     HC18614   2.009   1.808   2.617 -0.0449  2.9615  0.4272
 1330ANI     HC18615   1.913   1.942   2.785  0.4263  0.3168 -3.9728
 1330ANI     HC18616   2.034   1.979   3.003 -0.2728  0.1655 -1.1591
 1330ANI     HC18617   2.260   1.889   3.028 -2.0112  1.4104  1.5311
 1330ANI     HC18618   2.367   1.751   2.846 -0.8821 -2.7474 -0.0321
 1330ANI     HN18619   2.303   1.625   2.661 -2.7595 -2.5512 -1.5332
 1330ANI     HN18620   2.193   1.676   2.542 -0.4137  0.4817 -0.3410
 1331ANI     CN18621   2.692   5.410   4.389 -0.1502  0.1854 -0.1553
 1331ANI     CH18622   2.602   5.379   4.286 -0.3162  1.0396 -0.2698
 1331ANI     CH18623   2.470   5.345   4.317 -0.0439 -0.0501 -0.2882
 1331ANI     CH18624   2.427   5.352   4.450  0.2424  0.2983 -0.2128
 1331ANI     CH18625   2.518   5.378   4.552  0.0987 -0.3114  0.0685
 1331ANI     CH18626   2.651   5.411   4.523 -0.1164  0.3707 -0.1467
 1331ANI     NH18627   2.822   5.423   4.361  0.0753 -0.3375  0.6258
 1331ANI     HC18628   2.624   5.375   4.181  1.0813  0.2519  0.0389
 1331ANI     HC18629   2.401   5.319   4.238  1.5441  0.4068 -1.8545
 1331ANI     HC18630   2.321   5.341   4.468  0.3866 -0.2202  0.3136
 1331ANI     HC18631   2.486   5.374   4.656  1.2389  3.1502  0.6144
 1331ANI     HC18632   2.720   5.428   4.605  0.2157 -1.8500  0.0735
 1331ANI     HN18633   2.889   5.376   4.420  0.2573 -0.5926  0.2204
 1331ANI     HN18634   2.836   5.397   4.265 -2.3475  1.3309 -0.2164
 1332ANI     CN18635   2.045   5.105   3.611  0.2086 -0.1600  0.2577
 1332ANI     CH18636   1.945   5.196   3.648  0.2557  0.0559 -0.1409
 1332ANI     CH18637   1.845   5.163   3.740  0.7110  0.4284  0.4970
 1332ANI     CH18638   1.843   5.032   3.789  0.3506  0.1274 -0.2999
 1332ANI     CH18639   1.938   4.934   3.755 -0.1474 -0.4647  0.0029
 1332ANI     CH18640   2.037   4.976   3.666  0.3834  0.0833  0.8462
 1332ANI     NH18641   2.145   5.137   3.527 -0.2817 -0.6819 -0.5361
 1332ANI     HC18642   1.952   5.299   3.618 -0.4142  0.1357 -0.0252
 1332ANI     HC18643   1.776   5.238   3.775  0.4290  0.0834  0.6827
 1332ANI     HC18644   1.757   5.014   3.852 -0.5017  0.6759 -1.3109
 1332ANI     HC18645   1.938   4.833   3.794  1.1306  0.0950  1.5268
 1332ANI     HC18646   2.113   4.902   3.644  1.8947  1.7122  0.4552
 1332ANI     HN18647   2.166   5.236   3.526  1.3873 -1.0348 -0.4782
 1332ANI     HN18648   2.224   5.084   3.560 -1.4100 -1.6573  0.6776
 1333ANI     CN18649   4.543   0.772   5.812 -0.0997  0.0481 -0.0218
 1333ANI     CH18650   4.681   0.787   5.790 -0.1068 -0.0535 -0.1400
 1333ANI     CH18651   4.753   0.680   5.737  0.0973 -0.1919  0.4134
 1333ANI     CH18652   4.681   0.574   5.680 -0.2859  0.3891 -0.1921
 1333ANI     CH18653   4.546   0.553   5.709 -0.3517  0.3240 -0.5492
 1333ANI     CH18654   4.478   0.651   5.782 -0.1963  0.1304 -0.1441
 1333ANI     NH18655   4.478   0.876   5.865 -0.0646 -0.1043  0.3235
 1333ANI     HC18656   4.732   0.880   5.809  0.0028 -0.6511  2.7036
 1333ANI     HC18657   4.855   0.700   5.705  0.7780 -0.0415  2.5744
 1333ANI     HC18658   4.734   0.501   5.620  1.1379  1.5853 -0.4124
 1333ANI     HC18659   4.499   0.463   5.671 -2.0886  1.0919 -0.2634
 1333ANI     HC18660   4.377   0.629   5.813 -0.5549  1.0713 -0.6073
 1333ANI     HN18661   4.538   0.958   5.859 -2.5846  1.8701  1.1428
 1333ANI     HN18662   4.389   0.904   5.826 -0.4723 -0.5581  0.9212
 1334ANI     CN18663   0.527   0.609   3.996  0.0465 -0.0488 -0.2848
 1334ANI     CH18664   0.580   0.538   3.888 -0.0164 -0.0079 -0.3431
 1334ANI     CH18665   0.698   0.464   3.899  0.0117 -0.0059 -0.6183
 1334ANI     CH18666   0.771   0.473   4.018 -0.5044  0.0047 -0.3031
 1334ANI     CH18667   0.719   0.549   4.124 -0.0619 -0.2953  0.1316
 1334ANI     CH18668   0.600   0.622   4.115  0.1659  0.0165 -0.3650
 1334ANI     NH18669   0.412   0.678   3.989  0.0672  0.0462  0.3177
 1334ANI     HC18670   0.526   0.523   3.796  0.1331 -0.9457 -0.2829
 1334ANI     HC18671   0.734   0.409   3.813  2.1077 -1.3559  1.0500
 1334ANI     HC18672   0.867   0.425   4.026  0.5122  2.0268  0.2268
 1334ANI     HC18673   0.768   0.556   4.220  0.9122  0.9330 -0.4369
 1334ANI     HC18674   0.554   0.680   4.194  2.3700  3.5387 -1.5411
 1334ANI     HN18675   0.344   0.629   3.933  0.8812 -0.7466  0.0150
 1334ANI     HN18676   0.366   0.689   4.078 -2.3345  2.4150 -1.1488
 1335ANI     CN18677   1.452   0.896   0.524 -0.1443 -0.1744  0.1491
 1335ANI     CH18678   1.534   0.919   0.635 -0.2346 -0.2541  0.2320
 1335ANI     CH18679   1.528   0.830   0.743  0.5494 -0.5733  0.0143
 1335ANI     CH18680   1.448   0.715   0.739 -0.1221 -0.1036 -0.2475
 1335ANI     CH18681   1.348   0.709   0.642  0.5653 -0.4834 -0.9313
 1335ANI     CH18682   1.361   0.789   0.528 -0.6071  0.1847 -0.6024
 1335ANI     NH18683   1.474   0.969   0.413  0.3598 -0.0664  0.3171
 1335ANI     HC18684   1.612   0.993   0.633  0.0213 -0.5617 -2.1965
 1335ANI     HC18685   1.597   0.839   0.826  0.8057  0.1177 -0.2638
 1335ANI     HC18686   1.451   0.646   0.823 -2.6050 -0.3919 -0.3692
 1335ANI     HC18687   1.282   0.624   0.648  1.5682 -1.1578  1.0867
 1335ANI     HC18688   1.302   0.757   0.444 -1.3642 -1.2477  0.4520
 1335ANI     HN18689   1.432   0.928   0.330 -0.7888  2.2471 -0.2772
 1335ANI     HN18690   1.485   1.069   0.408  1.0921 -0.1279  0.6234
 1336ANI     CN18691   5.841   3.368   1.588  0.0842  0.6457  0.1331
 1336ANI     CH18692   5.892   3.387   1.717 -0.6475  0.1734  0.4938
 1336ANI     CH18693   5.824   3.341   1.831 -0.1447 -0.6893  0.4536
 1336ANI     CH18694   5.700   3.279   1.816 -0.4328 -0.0905  0.3397
 1336ANI     CH18695   5.657   3.252   1.686  0.2165  0.1391  0.0734
 1336ANI     CH18696   5.719   3.301   1.571  0.6708 -0.4086  0.0852
 1336ANI     NH18697   5.914   3.395   1.479  0.4556 -0.6100  0.0672
 1336ANI     HC18698   5.988   3.436   1.724 -1.6363  2.0920  0.9306
 1336ANI     HC18699   5.871   3.340   1.929  1.8390  2.0121 -0.3762
 1336ANI     HC18700   5.648   3.232   1.899 -1.1429  0.3556  0.1506
 1336ANI     HC18701   5.559   3.206   1.688 -0.3440  1.2273 -1.9092
 1336ANI     HC18702   5.675   3.282   1.474 -0.9184  0.5810  0.6053
 1336ANI     HN18703   5.913   3.306   1.432  0.4330  0.0542 -1.2089
 1336ANI     HN18704   6.005   3.427   1.510  0.6517 -0.1694 -0.9402
 1337ANI     CN18705   2.070   4.539   1.260 -0.3314 -0.0173  0.3262
 1337ANI     CH18706   2.204   4.545   1.220 -0.3946 -0.1059  0.1001
 1337ANI     CH18707   2.289   4.638   1.281 -0.2529 -0.0363 -0.1973
 1337ANI     CH18708   2.239   4.719   1.385 -0.1697 -0.2905  0.0412
 1337ANI     CH18709   2.104   4.712   1.422 -0.2040 -0.0632 -0.0424
 1337ANI     CH18710   2.016   4.624   1.357 -0.4777  0.0263  0.2057
 1337ANI     NH18711   1.987   4.449   1.206 -0.1164  0.0939 -0.1972
 1337ANI     HC18712   2.249   4.480   1.146  1.5417 -0.1383  1.2603
 1337ANI     HC18713   2.392   4.650   1.254 -0.1539 -0.3416  0.0403
 1337ANI     HC18714   2.306   4.781   1.442  0.5073 -0.2340 -0.7940
 1337ANI     HC18715   2.059   4.772   1.499  0.8790  0.4374  0.1943
 1337ANI     HC18716   1.912   4.616   1.386  0.1253 -0.4736  2.2984
 1337ANI     HN18717   1.987   4.435   1.106 -1.5037  1.7349 -0.4338
 1337ANI     HN18718   1.893   4.474   1.234 -0.4998  0.3018 -1.6473
 1338ANI     CN18719   4.413   3.912   6.186 -0.1304  0.2817  0.1833
 1338ANI     CH18720   4.308   3.872   6.270 -0.3855 -0.0809 -0.3070
 1338ANI     CH18721   4.347   3.786   6.373 -0.2132  0.3648 -0.0007
 1338ANI     CH18722   4.481   3.765   6.410 -0.2598  0.0574 -0.0044
 1338ANI     CH18723   4.581   3.810   6.323 -0.2842 -0.1450 -0.1372
 1338ANI     CH18724   4.548   3.883   6.208 -0.1620 -0.1592 -0.1802
 1338ANI     NH18725   4.373   3.980   6.078 -0.2536  0.3345  0.2626
 1338ANI     HC18726   4.202   3.885   6.258 -0.1971  1.2995 -0.5437
 1338ANI     HC18727   4.275   3.751   6.445 -0.1968 -0.2597 -0.2798
 1338ANI     HC18728   4.505   3.710   6.500  0.3354 -0.3125 -0.3957
 1338ANI     HC18729   4.685   3.793   6.342 -0.3935 -0.9682 -0.2411
 1338ANI     HC18730   4.618   3.924   6.137 -1.8279  1.6850 -0.7906
 1338ANI     HN18731   4.273   3.970   6.068 -0.3580 -0.8314  2.2455
 1338ANI     HN18732   4.417   3.938   5.997  1.2709 -2.3331  2.4109
 1339ANI     CN18733   2.797   4.924   3.675  0.0883  0.3208  0.4135
 1339ANI     CH18734   2.766   4.804   3.612  0.3250  0.4866 -0.0152
 1339ANI     CH18735   2.853   4.757   3.512  0.0628 -0.2010  0.0764
 1339ANI     CH18736   2.978   4.816   3.490 -0.2494  0.4729  0.0819
 1339ANI     CH18737   3.013   4.934   3.557  0.5027  0.1048  0.3416
 1339ANI     CH18738   2.920   4.985   3.648  0.2246 -0.0686  0.1566
 1339ANI     NH18739   2.705   4.971   3.762 -0.5385  0.2584 -0.2151
 1339ANI     HC18740   2.675   4.747   3.626  2.3196 -2.1637  2.7201
 1339ANI     HC18741   2.826   4.662   3.468  0.1411  0.0882 -0.5967
 1339ANI     HC18742   3.051   4.771   3.424  1.4167  0.3617  1.9246
 1339ANI     HC18743   3.100   4.992   3.529  0.4153 -0.2987 -0.8034
 1339ANI     HC18744   2.961   5.074   3.693  1.4243 -0.8097  0.5583
 1339ANI     HN18745   2.640   4.907   3.805  0.6323 -0.2720  0.8193
 1339ANI     HN18746   2.736   5.048   3.818 -0.0010  1.6073 -2.2892
 1340ANI     CN18747   4.958   3.676   3.171 -0.2174 -0.1422 -0.0513
 1340ANI     CH18748   5.073   3.718   3.239 -0.3078  0.0560 -0.0221
 1340ANI     CH18749   5.082   3.843   3.302 -0.3961  0.1722 -0.2424
 1340ANI     CH18750   4.963   3.918   3.309 -0.5106 -0.0778  0.5570
 1340ANI     CH18751   4.845   3.878   3.244 -0.3107 -0.1522  0.2376
 1340ANI     CH18752   4.844   3.756   3.175 -0.2958 -0.2708  0.4441
 1340ANI     NH18753   4.956   3.559   3.106  0.5795 -0.4647  0.4927
 1340ANI     HC18754   5.153   3.646   3.243  0.8499  1.3279  0.0823
 1340ANI     HC18755   5.172   3.885   3.344  0.0209 -0.6037 -0.3569
 1340ANI     HC18756   4.964   4.018   3.349  0.7763  0.6480 -1.2252
 1340ANI     HC18757   4.760   3.944   3.241 -0.4702 -0.1580  3.2787
 1340ANI     HC18758   4.757   3.726   3.117 -1.4090  2.0204  0.8620
 1340ANI     HN18759   4.875   3.518   3.060 -0.6898  0.8146  1.5450
 1340ANI     HN18760   5.022   3.489   3.137 -0.0646 -1.5611 -0.5800
 1341ANI     CN18761   5.869   1.354   4.808  0.2409 -0.1347  0.2038
 1341ANI     CH18762   5.753   1.284   4.775 -0.0653  0.6545 -0.4092
 1341ANI     CH18763   5.630   1.352   4.774 -0.4470 -0.0331 -0.5894
 1341ANI     CH18764   5.624   1.490   4.791  0.0981 -0.0746 -0.0405
 1341ANI     CH18765   5.738   1.556   4.839  0.2062 -0.2163 -0.1070
 1341ANI     CH18766   5.860   1.487   4.851  0.3788  0.0473 -0.3253
 1341ANI     NH18767   5.988   1.293   4.824 -0.1769 -0.7982  0.7761
 1341ANI     HC18768   5.760   1.184   4.736 -1.3012  0.2137  0.4642
 1341ANI     HC18769   5.543   1.293   4.748 -1.8978  2.4858 -1.5535
 1341ANI     HC18770   5.533   1.548   4.788  0.3945  0.3772 -0.4297
 1341ANI     HC18771   5.733   1.656   4.878 -1.7131 -0.4366  0.2592
 1341ANI     HC18772   5.946   1.539   4.891 -0.4930  0.6680  0.7761
 1341ANI     HN18773   5.993   1.201   4.784 -0.0163 -0.7733  0.7406
 1341ANI     HN18774   6.064   1.350   4.791 -0.6827 -0.7580 -0.3096
 1342ANI     CN18775   3.393   2.996   0.686  0.3148 -0.2720 -0.3402
 1342ANI     CH18776   3.266   2.990   0.742  0.3611 -0.0515 -0.2138
 1342ANI     CH18777   3.239   2.930   0.866 -0.0477  0.0511 -0.2498
 1342ANI     CH18778   3.345   2.869   0.935 -0.5423  0.0627  0.5262
 1342ANI     CH18779   3.472   2.869   0.876 -0.5313  1.0293  0.5500
 1342ANI     CH18780   3.495   2.923   0.749  0.0449 -0.2727  0.0945
 1342ANI     NH18781   3.421   3.051   0.566 -0.1483  0.3543 -0.1626
 1342ANI     HC18782   3.189   3.050   0.696  0.9672  1.0178  0.1494
 1342ANI     HC18783   3.138   2.924   0.903  0.7260 -1.6188  1.6779
 1342ANI     HC18784   3.333   2.820   1.030 -0.4762  0.3989  0.7088
 1342ANI     HC18785   3.550   2.811   0.923 -1.5673 -1.1529 -0.3496
 1342ANI     HC18786   3.589   2.922   0.695 -0.3150  0.5175 -0.5609
 1342ANI     HN18787   3.363   3.008   0.496  1.7604  0.5578 -1.9028
 1342ANI     HN18788   3.515   3.030   0.535  1.2295  0.0474  3.8145
 1343ANI     CN18789   0.143   1.763   0.473  0.2285 -0.2187  0.0229
 1343ANI     CH18790   0.268   1.718   0.519  0.2049 -0.2664  0.0409
 1343ANI     CH18791   0.343   1.800   0.605 -0.1128  0.2052 -0.1273
 1343ANI     CH18792   0.292   1.921   0.654  0.3252  0.2453  0.2253
 1343ANI     CH18793   0.171   1.966   0.601  0.2022 -0.0924  0.2165
 1343ANI     CH18794   0.093   1.886   0.517  0.4392 -0.1386  0.0407
 1343ANI     NH18795   0.076   1.688   0.384 -0.6620  0.6012  0.0003
 1343ANI     HC18796   0.311   1.625   0.486 -0.9905 -1.0536  0.6942
 1343ANI     HC18797   0.442   1.777   0.640 -0.0538  0.0626 -0.3770
 1343ANI     HC18798   0.343   1.985   0.724  0.1632  0.0978  0.4811
 1343ANI     HC18799   0.139   2.058   0.649 -0.9857 -1.2974  1.7935
 1343ANI     HC18800   0.000   1.924   0.478  0.9816 -0.4043 -1.5270
 1343ANI     HN18801   0.083   1.589   0.402  2.0938  0.8858  0.7869
 1343ANI     HN18802  -0.019   1.719   0.369 -0.5556  0.1158 -1.7226
 1344ANI     CN18803   5.015   5.302   4.419 -0.5422  0.2708 -0.3683
 1344ANI     CH18804   5.005   5.210   4.314 -0.2469 -0.2203  0.0284
 1344ANI     CH18805   4.882   5.159   4.270 -0.3257  0.1246 -0.1545
 1344ANI     CH18806   4.767   5.199   4.339  0.1373  0.1264  0.6192
 1344ANI     CH18807   4.771   5.291   4.445 -0.0594  0.6687  0.1582
 1344ANI     CH18808   4.896   5.341   4.482 -0.0769  0.6018  0.3040
 1344ANI     NH18809   5.133   5.354   4.457 -0.7438  0.2057  0.3563
 1344ANI     HC18810   5.102   5.191   4.271  1.6155  0.5582  3.7296
 1344ANI     HC18811   4.881   5.108   4.175  0.8621 -2.6942  1.3063
 1344ANI     HC18812   4.672   5.161   4.305  1.1346 -1.3193 -0.6168
 1344ANI     HC18813   4.682   5.326   4.495  1.0801  2.3075  1.0922
 1344ANI     HC18814   4.898   5.410   4.565  0.6813 -0.4309  1.1630
 1344ANI     HN18815   5.209   5.350   4.391 -0.5704  1.6885  0.4447
 1344ANI     HN18816   5.117   5.453   4.470  0.1843  0.3407  0.4423
 1345ANI     CN18817   5.790   5.018   4.534 -0.0236  0.0634 -0.3315
 1345ANI     CH18818   5.830   5.152   4.531  0.1813 -0.0037 -0.5846
 1345ANI     CH18819   5.967   5.177   4.550  0.2146 -0.5561 -0.0733
 1345ANI     CH18820   6.061   5.074   4.559  0.2031 -0.5668 -0.0767
 1345ANI     CH18821   6.019   4.941   4.572  0.0073 -0.4471  0.5595
 1345ANI     CH18822   5.884   4.915   4.549  0.0080  0.1256 -0.0970
 1345ANI     NH18823   5.664   4.992   4.497 -0.1945 -0.3805  0.5664
 1345ANI     HC18824   5.764   5.237   4.517 -0.4835 -0.4933 -0.4011
 1345ANI     HC18825   6.009   5.277   4.553  3.6938 -1.9698 -0.5506
 1345ANI     HC18826   6.167   5.091   4.571 -0.0431  0.3308  0.9374
 1345ANI     HC18827   6.087   4.856   4.573 -0.0324 -0.5264 -1.3461
 1345ANI     HC18828   5.856   4.812   4.531 -2.5709  0.7830 -0.0825
 1345ANI     HN18829   5.622   4.910   4.538  0.1699 -0.8292  0.0352
 1345ANI     HN18830   5.599   5.066   4.521 -0.9638 -0.8882  0.0628
 1346ANI     CN18831   3.102   4.455   4.665 -0.5946 -0.0139 -0.6089
 1346ANI     CH18832   3.185   4.535   4.587 -0.3956  0.4511  0.0773
 1346ANI     CH18833   3.298   4.476   4.529 -0.2052  0.1836  0.7304
 1346ANI     CH18834   3.320   4.338   4.540  0.2471  0.1787 -0.2310
 1346ANI     CH18835   3.237   4.258   4.619  0.2850  0.6040  0.2384
 1346ANI     CH18836   3.125   4.318   4.679 -0.3707  0.0456 -0.4093
 1346ANI     NH18837   3.009   4.514   4.741  0.0282  0.1310  0.0467
 1346ANI     HC18838   3.164   4.641   4.581  1.4696  0.8117 -0.4675
 1346ANI     HC18839   3.372   4.532   4.473  1.0934 -1.5256  0.6792
 1346ANI     HC18840   3.407   4.287   4.500 -0.4642  0.4357 -2.1485
 1346ANI     HC18841   3.268   4.158   4.645 -0.6371 -0.3502 -2.1879
 1346ANI     HC18842   3.067   4.259   4.748 -0.7160  0.7382 -0.1043
 1346ANI     HN18843   2.977   4.474   4.828  0.2515  0.4824  0.2904
 1346ANI     HN18844   3.031   4.610   4.764  0.0599 -0.2614  1.7272
 1347ANI     CN18845   3.332   0.280   3.080  0.1813  0.2816  0.5699
 1347ANI     CH18846   3.469   0.288   3.111  0.3095 -0.3877  0.1811
 1347ANI     CH18847   3.559   0.314   3.007 -0.3211  0.4350 -0.1663
 1347ANI     CH18848   3.519   0.308   2.873  0.0050  0.0650 -0.2471
 1347ANI     CH18849   3.385   0.282   2.845 -0.0435 -0.3573  0.3700
 1347ANI     CH18850   3.291   0.263   2.947  0.2340 -0.3265  0.6288
 1347ANI     NH18851   3.243   0.264   3.178 -0.2533 -0.4810  0.0535
 1347ANI     HC18852   3.495   0.281   3.215 -1.8963 -1.0595  0.7300
 1347ANI     HC18853   3.662   0.334   3.031 -0.0617 -1.6498  0.6207
 1347ANI     HC18854   3.597   0.330   2.800 -0.5052 -4.0425 -2.1686
 1347ANI     HC18855   3.354   0.277   2.741 -0.5761  2.6815  0.3074
 1347ANI     HC18856   3.189   0.241   2.922  0.1278  1.6140 -0.7441
 1347ANI     HN18857   3.273   0.319   3.258 -2.0595  1.7689 -0.7661
 1347ANI     HN18858   3.152   0.297   3.147 -1.0895  0.2796  3.1185
 1348ANI     CN18859   4.040   4.910   2.501 -0.3853 -0.5913 -0.3989
 1348ANI     CH18860   3.913   4.960   2.531 -0.0493  0.0791 -0.1035
 1348ANI     CH18861   3.900   5.098   2.553 -0.1830  0.0385  0.0677
 1348ANI     CH18862   4.008   5.186   2.539 -0.0593 -0.1720 -0.2890
 1348ANI     CH18863   4.132   5.134   2.498 -0.1937 -0.5886 -0.1770
 1348ANI     CH18864   4.146   4.997   2.474  0.0009 -0.7236  0.6924
 1348ANI     NH18865   4.058   4.779   2.476  1.0267 -0.5543  0.3908
 1348ANI     HC18866   3.824   4.900   2.534 -0.3553  0.5801  1.3309
 1348ANI     HC18867   3.806   5.149   2.567 -0.5316 -0.2065 -1.3509
 1348ANI     HC18868   3.987   5.289   2.563  1.0587  0.4144 -1.7372
 1348ANI     HC18869   4.215   5.202   2.485 -0.4914 -0.1143  0.3512
 1348ANI     HC18870   4.247   4.964   2.454  1.4069  2.3823  2.3081
 1348ANI     HN18871   4.152   4.748   2.458  0.8528 -0.2548 -1.1097
 1348ANI     HN18872   4.029   4.729   2.559  4.3472 -0.6273  1.5726
 1349ANI     CN18873   1.400   0.247   0.296 -0.1678  0.0479  0.2677
 1349ANI     CH18874   1.468   0.314   0.399 -0.1194 -0.3271  0.4811
 1349ANI     CH18875   1.414   0.314   0.528 -0.2828  0.2789  0.4160
 1349ANI     CH18876   1.313   0.223   0.564 -0.2418 -0.0708 -0.3466
 1349ANI     CH18877   1.268   0.135   0.465 -0.3294 -0.3718 -0.0384
 1349ANI     CH18878   1.309   0.147   0.332  0.1808 -0.3202  0.1221
 1349ANI     NH18879   1.440   0.266   0.170 -0.0584  0.3501  0.3475
 1349ANI     HC18880   1.541   0.384   0.362 -1.6586  1.0096 -0.0995
 1349ANI     HC18881   1.456   0.384   0.599 -0.2809  1.0017 -0.2921
 1349ANI     HC18882   1.267   0.214   0.661 -0.2508 -0.2632 -0.3680
 1349ANI     HC18883   1.203   0.049   0.474 -2.9099  1.6946  1.6065
 1349ANI     HC18884   1.264   0.079   0.261  0.5037 -1.3315  0.8678
 1349ANI     HN18885   1.532   0.309   0.166  0.2199 -0.2363  0.3718
 1349ANI     HN18886   1.429   0.186   0.110 -4.2155 -0.8821  2.6033
 1350ANI     CN18887   3.571   3.201   1.614 -0.0785  0.0045 -0.3019
 1350ANI     CH18888   3.545   3.257   1.739  0.0046 -0.6163 -0.0000
 1350ANI     CH18889   3.574   3.393   1.756 -0.2948 -0.5278 -0.1959
 1350ANI     CH18890   3.638   3.471   1.659  0.1592  0.1097  0.6042
 1350ANI     CH18891   3.680   3.408   1.541 -0.5258  0.1842  0.3198
 1350ANI     CH18892   3.647   3.274   1.521  0.1910  0.0567 -0.0416
 1350ANI     NH18893   3.526   3.078   1.585 -0.0200 -0.1795  0.3845
 1350ANI     HC18894   3.495   3.206   1.819 -0.3558  0.4709  0.4864
 1350ANI     HC18895   3.563   3.440   1.853 -0.3548 -0.9827  0.0190
 1350ANI     HC18896   3.666   3.574   1.672 -1.4919  0.8935 -1.6386
 1350ANI     HC18897   3.745   3.450   1.465 -1.1046 -0.7059 -0.6821
 1350ANI     HC18898   3.678   3.224   1.430  1.2965 -1.0581  0.9278
 1350ANI     HN18899   3.570   3.035   1.504  2.0086 -2.7717  2.7601
 1350ANI     HN18900   3.486   3.012   1.650  0.5074 -0.0150  0.8766
 1351ANI     CN18901   3.633   5.488   3.984 -0.0127  0.2478 -0.0739
 1351ANI     CH18902   3.571   5.571   3.889 -0.0558  0.2703 -0.0265
 1351ANI     CH18903   3.523   5.523   3.767 -0.3549  0.2351  0.1044
 1351ANI     CH18904   3.544   5.388   3.739  0.2213  0.3933 -0.2399
 1351ANI     CH18905   3.608   5.304   3.831  0.7378  0.7899 -0.2397
 1351ANI     CH18906   3.658   5.354   3.952  0.1185  0.1917  0.2663
 1351ANI     NH18907   3.669   5.539   4.103 -0.1837 -0.3680  0.2434
 1351ANI     HC18908   3.548   5.674   3.910  0.7055  0.2940  0.7794
 1351ANI     HC18909   3.488   5.597   3.697 -0.2296 -0.9944 -1.2766
 1351ANI     HC18910   3.501   5.346   3.649 -1.5919  1.3088  0.1909
 1351ANI     HC18911   3.608   5.202   3.796 -0.7126 -0.3359  2.8495
 1351ANI     HC18912   3.702   5.286   4.024  0.3863  1.1789  1.0661
 1351ANI     HN18913   3.703   5.632   4.081 -0.7945 -0.6633 -2.0853
 1351ANI     HN18914   3.735   5.483   4.155  0.3178 -0.6397 -0.6634
 1352ANI     CN18915   1.290   5.465   5.278  0.1395 -0.0471 -0.1747
 1352ANI     CH18916   1.311   5.375   5.172  0.0401  0.0607 -0.2855
 1352ANI     CH18917   1.400   5.411   5.070 -0.1677 -0.0303 -0.4961
 1352ANI     CH18918   1.466   5.534   5.073 -0.4659  0.1238 -0.2360
 1352ANI     CH18919   1.432   5.629   5.170  0.3583 -0.1440  0.3236
 1352ANI     CH18920   1.344   5.594   5.273 -0.1994  0.0986 -0.0657
 1352ANI     NH18921   1.216   5.432   5.385  0.8210  0.1628  0.3666
 1352ANI     HC18922   1.272   5.275   5.168 -1.4848  0.5395  1.7761
 1352ANI     HC18923   1.423   5.337   4.995 -0.1138  0.8235 -1.3390
 1352ANI     HC18924   1.530   5.558   4.989  0.7982 -3.0951 -0.2631
 1352ANI     HC18925   1.469   5.731   5.170  0.4368 -0.1671 -1.2785
 1352ANI     HC18926   1.318   5.661   5.354  0.1698 -0.8675  0.8731
 1352ANI     HN18927   1.153   5.510   5.399  0.9076  0.9491 -3.0110
 1352ANI     HN18928   1.156   5.353   5.367  0.1153  1.1865 -1.9304
 1353ANI     CN18929   1.696   4.989   2.846  0.0190  0.4100  0.1817
 1353ANI     CH18930   1.622   4.888   2.783  0.4343  0.2683 -0.0814
 1353ANI     CH18931   1.626   4.874   2.643  0.4555 -0.5737  0.0019
 1353ANI     CH18932   1.717   4.946   2.565  0.2064  0.0176  0.2506
 1353ANI     CH18933   1.804   5.036   2.628  0.0468  0.4370 -0.1247
 1353ANI     CH18934   1.785   5.061   2.764  0.5412 -0.3423  0.0888
 1353ANI     NH18935   1.692   5.010   2.978  0.1597  0.0319  0.2434
 1353ANI     HC18936   1.543   4.825   2.822  0.2809  0.7053  0.3222
 1353ANI     HC18937   1.548   4.818   2.595  0.2650  0.9584 -1.5330
 1353ANI     HC18938   1.718   4.933   2.458  4.0534 -0.4797  0.2625
 1353ANI     HC18939   1.866   5.103   2.570  1.9702  0.1762  1.5597
 1353ANI     HC18940   1.841   5.141   2.808 -1.7173  0.6039  1.3622
 1353ANI     HN18941   1.696   4.927   3.036  0.9128 -1.6088 -2.0735
 1353ANI     HN18942   1.754   5.080   3.017 -0.0959  0.8554 -0.8256
 1354ANI     CN18943   2.307   4.922   4.518  0.0880 -0.1369  0.1859
 1354ANI     CH18944   2.319   5.017   4.619  0.2765 -0.2807  0.2987
 1354ANI     CH18945   2.349   4.972   4.748 -0.2767  0.2160  0.6051
 1354ANI     CH18946   2.362   4.835   4.774 -0.3773  0.1578  0.3412
 1354ANI     CH18947   2.345   4.742   4.671  0.9400  0.2227  0.0550
 1354ANI     CH18948   2.321   4.784   4.539 -0.2294 -0.1783  0.1352
 1354ANI     NH18949   2.267   4.962   4.396  0.2201 -0.5134  0.0168
 1354ANI     HC18950   2.296   5.120   4.595 -2.4189 -0.9168 -0.1175
 1354ANI     HC18951   2.353   5.048   4.825 -2.4114  0.5887  0.3930
 1354ANI     HC18952   2.387   4.806   4.875  2.1593  1.8035  0.2330
 1354ANI     HC18953   2.338   4.640   4.705 -0.6130  0.7714  1.4422
 1354ANI     HC18954   2.296   4.717   4.459  2.4673 -1.4463  0.3097
 1354ANI     HN18955   2.305   5.055   4.383  0.4779 -0.7545 -0.9656
 1354ANI     HN18956   2.283   4.898   4.320 -0.2621 -0.1788 -0.3679
 1355ANI     CN18957   3.567   1.570   0.599  0.1556  0.0524  0.5002
 1355ANI     CH18958   3.648   1.628   0.501  0.3917 -0.1178  0.5951
 1355ANI     CH18959   3.619   1.755   0.450  0.0034 -0.1303  0.7852
 1355ANI     CH18960   3.504   1.823   0.493 -0.2261 -0.1166  0.1464
 1355ANI     CH18961   3.422   1.763   0.589 -0.0159  0.3132  0.5982
 1355ANI     CH18962   3.450   1.635   0.639  0.3441  0.3679  0.5401
 1355ANI     NH18963   3.598   1.444   0.632  0.1466 -0.0285  0.2016
 1355ANI     HC18964   3.742   1.586   0.467  1.2856  2.3703 -0.1594
 1355ANI     HC18965   3.690   1.793   0.378  0.8371 -1.3299  0.9708
 1355ANI     HC18966   3.484   1.923   0.458 -0.3593 -0.1022  0.2639
 1355ANI     HC18967   3.339   1.821   0.626 -0.9945 -1.8969  1.9627
 1355ANI     HC18968   3.386   1.591   0.715  1.8876 -1.4499  0.8237
 1355ANI     HN18969   3.685   1.407   0.595  0.2132  0.1518  0.1791
 1355ANI     HN18970   3.598   1.417   0.729  0.0977  0.0363  0.2190
 1356ANI     CN18971   2.956   4.148   5.174 -0.1566  0.5031  0.3910
 1356ANI     CH18972   2.828   4.204   5.183 -0.6188 -0.4920  0.0704
 1356ANI     CH18973   2.806   4.331   5.130  0.1568 -0.4438 -0.1400
 1356ANI     CH18974   2.910   4.400   5.065 -0.4522 -0.0985 -0.7586
 1356ANI     CH18975   3.038   4.345   5.068 -0.3326  0.1917 -0.3738
 1356ANI     CH18976   3.066   4.220   5.126 -0.2029  0.5772  0.3981
 1356ANI     NH18977   2.966   4.019   5.210 -0.4190  0.3537 -0.0624
 1356ANI     HC18978   2.745   4.144   5.219 -1.6725  1.6417  1.2528
 1356ANI     HC18979   2.705   4.368   5.118 -0.3590 -1.2226  1.7367
 1356ANI     HC18980   2.893   4.488   5.005  0.4981  0.3487 -0.3769
 1356ANI     HC18981   3.110   4.409   5.019 -1.4951  1.7828 -0.0149
 1356ANI     HC18982   3.167   4.182   5.124 -0.1611  0.7316 -2.7157
 1356ANI     HN18983   2.894   3.966   5.163 -0.1192 -1.4967  1.4969
 1356ANI     HN18984   3.052   3.979   5.175 -0.3241 -0.8300  1.4763
 1357ANI     CN18985   6.168   0.909   3.196 -0.3271 -0.0745 -0.2294
 1357ANI     CH18986   6.162   1.042   3.240  0.1353 -0.0204 -0.3257
 1357ANI     CH18987   6.065   1.074   3.336  0.0868 -0.1254 -0.3385
 1357ANI     CH18988   5.987   0.970   3.388 -0.2416  0.1500 -0.2845
 1357ANI     CH18989   6.004   0.836   3.353 -0.4102  0.1297 -0.2877
 1357ANI     CH18990   6.092   0.805   3.249 -0.6023  0.0291 -0.4215
 1357ANI     NH18991   6.254   0.875   3.099  0.1968 -0.6388  0.4272
 1357ANI     HC18992   6.223   1.119   3.196  1.4146 -1.4954 -1.2112
 1357ANI     HC18993   6.064   1.178   3.363 -0.5220 -0.3907  0.6776
 1357ANI     HC18994   5.926   1.004   3.471 -0.7529 -0.9803 -0.1900
 1357ANI     HC18995   5.939   0.761   3.397  0.7324 -0.4607  0.3989
 1357ANI     HC18996   6.110   0.705   3.211  1.5501 -0.9011  2.7822
 1357ANI     HN18997   6.271   0.956   3.041  0.2251 -0.7801  0.2356
 1357ANI     HN18998   6.228   0.799   3.037  1.2932 -1.4523  0.9380
 1358ANI     CN18999   5.884   0.256   4.833  0.0488  0.0756  0.2540
 1358ANI     CH19000   5.912   0.151   4.921 -0.1976 -0.1177  0.1008
 1358ANI     CH19001   6.030   0.077   4.901  0.3243  0.5726  0.5729
 1358ANI     CH19002   6.119   0.116   4.800  0.8377 -0.4230  0.6315
 1358ANI     CH19003   6.094   0.228   4.720 -0.1064 -0.9188  0.2271
 1358ANI     CH19004   5.976   0.301   4.737  0.3987 -0.1514  0.4828
 1358ANI     NH19005   5.768   0.321   4.851  0.1107  0.3600 -0.3447
 1358ANI     HC19006   5.842   0.119   4.996 -0.0747 -0.9783 -0.1436
 1358ANI     HC19007   6.059  -0.003   4.967  0.2824  1.7565  2.0449
 1358ANI     HC19008   6.216   0.069   4.792  0.5714 -0.6443 -1.5124
 1358ANI     HC19009   6.177   0.258   4.658  0.1083  1.1048  1.4480
 1358ANI     HC19010   5.958   0.389   4.678  0.7078 -0.3195  0.1382
 1358ANI     HN19011   5.751   0.361   4.760  0.6136  1.2924 -0.0296
 1358ANI     HN19012   5.697   0.252   4.872  0.4747  0.2271  0.4841
 1359ANI     CN19013   2.672   1.665   2.609 -0.6557 -0.0638  0.1013
 1359ANI     CH19014   2.694   1.746   2.720  0.2040 -0.1946  0.0312
 1359ANI     CH19015   2.819   1.802   2.747  0.0003  0.1302  0.3146
 1359ANI     CH19016   2.922   1.777   2.655 -0.2476  0.0471  0.0567
 1359ANI     CH19017   2.902   1.689   2.548 -0.6351 -0.3015  0.4149
 1359ANI     CH19018   2.780   1.623   2.530 -0.5174 -0.5594  0.5529
 1359ANI     NH19019   2.553   1.607   2.589 -0.6131 -0.2101  0.2784
 1359ANI     HC19020   2.608   1.773   2.780  0.8298  0.1977  0.7714
 1359ANI     HC19021   2.829   1.872   2.829 -1.0016  0.8815 -0.1931
 1359ANI     HC19022   3.017   1.828   2.666  0.1399 -0.4626 -0.8728
 1359ANI     HC19023   2.986   1.652   2.491 -1.6974  1.0491 -2.0875
 1359ANI     HC19024   2.763   1.553   2.450  1.0075  0.4259 -0.6657
 1359ANI     HN19025   2.537   1.569   2.497 -0.7713  1.3533 -0.3422
 1359ANI     HN19026   2.470   1.659   2.615 -1.6948 -1.0832 -1.3249
 1360ANI     CN19027   5.764   6.246   5.827  0.2233 -0.1717  0.6052
 1360ANI     CH19028   5.878   6.178   5.874  0.6931  0.2069  0.0163
 1360ANI     CH19029   5.958   6.116   5.777  0.0258 -0.1014 -0.3422
 1360ANI     CH19030   5.919   6.113   5.642 -0.3875  0.0690 -0.2291
 1360ANI     CH19031   5.819   6.199   5.596 -0.6666 -0.0788  0.1030
 1360ANI     CH19032   5.738   6.262   5.691 -0.2707 -0.4168  0.6700
 1360ANI     NH19033   5.689   6.313   5.916  0.3559  0.2103  0.4284
 1360ANI     HC19034   5.915   6.186   5.975 -0.6221  1.5742  0.4014
 1360ANI     HC19035   6.048   6.065   5.807 -0.0476 -0.0713 -0.0699
 1360ANI     HC19036   5.986   6.067   5.571  0.5278  0.5386  0.3250
 1360ANI     HC19037   5.784   6.205   5.494 -0.8468 -0.1307  0.1612
 1360ANI     HC19038   5.652   6.319   5.659  1.1526  0.9804 -0.7664
 1360ANI     HN19039   5.631   6.248   5.966  0.5811 -0.7085 -0.4832
 1360ANI     HN19040   5.625   6.378   5.871 -0.6655 -1.1474 -0.1186
 1361ANI     CN19041   4.690   3.911   0.701 -0.3462 -0.1674 -0.2352
 1361ANI     CH19042   4.559   3.913   0.751 -0.1945  0.4262  0.1406
 1361ANI     CH19043   4.500   4.031   0.797 -0.5433  0.2577  0.1218
 1361ANI     CH19044   4.565   4.151   0.770  0.0858 -0.1819 -0.3300
 1361ANI     CH19045   4.694   4.152   0.715  0.1854 -0.5980 -0.0997
 1361ANI     CH19046   4.757   4.032   0.677  0.1374 -0.4887 -0.5355
 1361ANI     NH19047   4.749   3.794   0.674 -0.0382  0.0000 -0.2894
 1361ANI     HC19048   4.504   3.820   0.757 -1.4909  1.2325  0.8413
 1361ANI     HC19049   4.401   4.037   0.841 -0.5908 -0.2988  0.0962
 1361ANI     HC19050   4.506   4.239   0.790 -0.6194 -0.6589 -0.3018
 1361ANI     HC19051   4.754   4.241   0.709 -1.8913  0.7601 -1.2346
 1361ANI     HC19052   4.860   4.038   0.648  0.1285  0.8334 -0.3456
 1361ANI     HN19053   4.850   3.799   0.667 -0.1599  1.2959 -1.3435
 1361ANI     HN19054   4.725   3.718   0.736 -1.4976  0.4873 -0.2533
 1362ANI     CN19055   1.540   4.533   1.140 -0.4829 -0.4095  0.2228
 1362ANI     CH19056   1.438   4.449   1.094 -0.5033 -0.2282 -0.0658
 1362ANI     CH19057   1.310   4.500   1.068 -0.6520 -0.4291  0.2639
 1362ANI     CH19058   1.282   4.633   1.100  0.5224 -0.0748 -0.1631
 1362ANI     CH19059   1.385   4.723   1.133  0.1760  0.1496  0.3065
 1362ANI     CH19060   1.512   4.669   1.152 -0.0211 -0.3197  0.3025
 1362ANI     NH19061   1.668   4.494   1.147 -0.0455  0.9534  0.0199
 1362ANI     HC19062   1.449   4.342   1.086 -0.9072 -0.0403 -3.9334
 1362ANI     HC19063   1.231   4.445   1.018 -0.2703 -1.3151  0.6252
 1362ANI     HC19064   1.181   4.669   1.094  0.0793 -1.6109 -2.6255
 1362ANI     HC19065   1.357   4.828   1.139 -2.7158 -0.4442 -1.3328
 1362ANI     HC19066   1.595   4.736   1.172 -0.0287 -0.6546  1.5205
 1362ANI     HN19067   1.665   4.393   1.157  0.1638  0.8727 -0.7528
 1362ANI     HN19068   1.707   4.518   1.237 -1.6938  0.8448  0.7786
 1363ANI     CN19069   3.505   2.214   1.758  0.0405 -0.6906 -0.1230
 1363ANI     CH19070   3.617   2.268   1.693  0.0093 -0.4433  0.0286
 1363ANI     CH19071   3.748   2.248   1.737  0.0496  0.0492  0.1382
 1363ANI     CH19072   3.767   2.180   1.858  0.4300 -0.0601  0.0186
 1363ANI     CH19073   3.657   2.130   1.928  0.0474  1.0558  0.2359
 1363ANI     CH19074   3.527   2.143   1.876 -0.0582 -0.3170  0.1217
 1363ANI     NH19075   3.382   2.220   1.705  0.1809 -0.3836 -0.4200
 1363ANI     HC19076   3.592   2.326   1.605  2.5320  0.3495 -0.1889
 1363ANI     HC19077   3.830   2.288   1.679  0.4380 -0.8921  0.0353
 1363ANI     HC19078   3.860   2.170   1.912  0.5835  0.2874 -0.1716
 1363ANI     HC19079   3.663   2.080   2.023 -2.0625 -0.8720 -0.5769
 1363ANI     HC19080   3.446   2.113   1.940  0.8064 -1.2290  0.8020
 1363ANI     HN19081   3.312   2.219   1.778  0.1070  1.2393 -0.4565
 1363ANI     HN19082   3.378   2.308   1.656 -0.2416  0.3211  0.8759
 1364ANI     CN19083   0.821   5.424   3.800  0.3512  0.4945 -0.7190
 1364ANI     CH19084   0.756   5.462   3.681  0.0613  0.2192 -0.6504
 1364ANI     CH19085   0.643   5.543   3.690 -0.0985 -0.0633 -0.0233
 1364ANI     CH19086   0.597   5.589   3.814  0.0187 -0.7291  0.2663
 1364ANI     CH19087   0.667   5.558   3.931  0.3457 -0.8206  0.0478
 1364ANI     CH19088   0.779   5.474   3.923  0.1447 -1.0711 -0.1435
 1364ANI     NH19089   0.936   5.355   3.793 -0.0758 -0.2738 -0.2477
 1364ANI     HC19090   0.793   5.430   3.585  0.3146 -3.9287  0.7383
 1364ANI     HC19091   0.593   5.571   3.598 -0.5276 -1.9080 -0.3661
 1364ANI     HC19092   0.506   5.646   3.808 -0.2202 -0.9955  1.2925
 1364ANI     HC19093   0.638   5.603   4.025 -0.7482  1.6989 -1.4618
 1364ANI     HC19094   0.827   5.455   4.018  1.8135 -0.7395 -0.9052
 1364ANI     HN19095   0.941   5.283   3.722 -1.3892 -0.0746 -0.5441
 1364ANI     HN19096   0.964   5.308   3.878  0.5989 -0.0142 -0.3265
 1365ANI     CN19097   1.646   0.893   4.274  0.1955 -0.1809 -0.0401
 1365ANI     CH19098   1.606   0.770   4.326 -0.3017 -0.1872 -0.4290
 1365ANI     CH19099   1.630   0.743   4.462  0.3525 -0.1114 -0.5258
 1365ANI     CH19100   1.677   0.848   4.541  0.1472 -0.3608 -0.0752
 1365ANI     CH19101   1.712   0.974   4.492  0.3596 -0.3628  0.0728
 1365ANI     CH19102   1.693   0.997   4.355  0.3910 -0.3550  0.0698
 1365ANI     NH19103   1.647   0.913   4.141 -0.4185 -0.3355 -0.0689
 1365ANI     HC19104   1.586   0.689   4.257  0.4523  1.0045 -2.0876
 1365ANI     HC19105   1.617   0.644   4.501  0.5080  1.9047  5.0340
 1365ANI     HC19106   1.688   0.821   4.645 -0.2828  0.8490  0.3043
 1365ANI     HC19107   1.751   1.052   4.556  1.0023  0.4169 -1.2483
 1365ANI     HC19108   1.721   1.097   4.325 -2.6500  1.0028  1.5389
 1365ANI     HN19109   1.581   0.853   4.093 -0.1242 -1.4593  0.8879
 1365ANI     HN19110   1.622   1.006   4.113 -1.3010 -0.0339  1.6813
 1366ANI     CN19111   4.892   5.279   0.523  0.0416 -0.3139 -0.2138
 1366ANI     CH19112   5.007   5.305   0.447 -0.0862  0.4760 -0.1439
 1366ANI     CH19113   5.012   5.256   0.316 -0.5597 -0.3289  0.1295
 1366ANI     CH19114   4.906   5.183   0.260 -0.5466 -0.2854  0.0449
 1366ANI     CH19115   4.793   5.155   0.338 -0.8072  0.5414 -0.0360
 1366ANI     CH19116   4.784   5.209   0.467 -0.0776 -0.7606  0.5656
 1366ANI     NH19117   4.882   5.332   0.646 -0.0982 -0.3244 -0.2204
 1366ANI     HC19118   5.095   5.359   0.478  1.0196 -0.3218 -1.8252
 1366ANI     HC19119   5.096   5.274   0.251  0.0551 -0.1355  0.9757
 1366ANI     HC19120   4.920   5.145   0.160 -0.2063 -1.5779  0.5735
 1366ANI     HC19121   4.712   5.099   0.295  0.5672 -1.0221 -0.6624
 1366ANI     HC19122   4.697   5.193   0.529  0.0146  0.1854  0.9490
 1366ANI     HN19123   4.791   5.346   0.687 -1.1208 -1.6396 -1.9598
 1366ANI     HN19124   4.946   5.409   0.658 -0.9197  0.5964 -1.6237
 1367ANI     CN19125   1.529   2.900   0.346  0.1107  0.0140 -0.1250
 1367ANI     CH19126   1.573   3.032   0.360  0.7911 -0.2486  0.2361
 1367ANI     CH19127   1.708   3.068   0.354  0.5341  0.6902  0.0205
 1367ANI     CH19128   1.800   2.964   0.345 -0.0303  0.1476  0.4839
 1367ANI     CH19129   1.758   2.831   0.330 -0.2647  0.2413  0.3081
 1367ANI     CH19130   1.622   2.797   0.336 -0.1386 -0.2555  0.3290
 1367ANI     NH19131   1.399   2.873   0.363  0.1967 -0.1390  0.2824
 1367ANI     HC19132   1.496   3.108   0.372  0.7968 -0.5872  2.6395
 1367ANI     HC19133   1.735   3.173   0.345 -0.3142  0.9755  0.7362
 1367ANI     HC19134   1.906   2.985   0.342 -0.0561  0.1315 -1.0102
 1367ANI     HC19135   1.830   2.752   0.319 -1.2660 -0.3850 -1.9058
 1367ANI     HC19136   1.598   2.692   0.323  2.6997 -1.1337  1.5877
 1367ANI     HN19137   1.385   2.774   0.348  0.2600 -0.3176  1.3078
 1367ANI     HN19138   1.357   2.909   0.448  1.7016 -0.2246  1.0816
 1368ANI     CN19139   3.766   1.078   5.774  0.6069 -0.3105  0.3705
 1368ANI     CH19140   3.785   1.134   5.647  0.3280 -0.8407  0.0918
 1368ANI     CH19141   3.800   1.047   5.539  0.4125  0.2070 -0.7426
 1368ANI     CH19142   3.801   0.908   5.554 -0.3572  0.2284 -0.5235
 1368ANI     CH19143   3.776   0.850   5.679 -0.3225  0.4076 -0.4327
 1368ANI     CH19144   3.767   0.939   5.787 -0.6617 -0.3468  0.1610
 1368ANI     NH19145   3.738   1.148   5.885 -0.0313 -0.2392  0.1672
 1368ANI     HC19146   3.778   1.242   5.639  3.0080 -0.6049  0.5662
 1368ANI     HC19147   3.817   1.078   5.436  0.2291  0.1211 -0.7976
 1368ANI     HC19148   3.827   0.847   5.469  2.0447  1.4585 -0.7025
 1368ANI     HC19149   3.766   0.746   5.706 -2.0916  0.1982 -1.8061
 1368ANI     HC19150   3.752   0.904   5.888 -1.1676 -3.1702 -0.8388
 1368ANI     HN19151   3.674   1.100   5.947 -1.4544 -0.6601 -1.5586
 1368ANI     HN19152   3.695   1.238   5.866 -0.6738  0.1914  3.2905
 1369ANI     CN19153   1.510   0.102   4.538  0.6176 -0.4019 -0.3777
 1369ANI     CH19154   1.494   0.081   4.401 -0.5545 -0.1687 -0.2806
 1369ANI     CH19155   1.543   0.174   4.308  0.3215 -0.0400  0.3096
 1369ANI     CH19156   1.614   0.285   4.357  0.5557  0.2444 -0.6772
 1369ANI     CH19157   1.629   0.306   4.494 -0.5392 -0.1560 -0.4859
 1369ANI     CH19158   1.570   0.219   4.586 -0.6172  0.1707 -0.2269
 1369ANI     NH19159   1.464   0.004   4.617 -0.4765  0.3695 -0.0588
 1369ANI     HC19160   1.448  -0.009   4.362 -0.4489  0.0847 -0.9989
 1369ANI     HC19161   1.539   0.147   4.204  1.6253 -1.9515  0.7209
 1369ANI     HC19162   1.661   0.347   4.282  1.8006 -0.2706 -0.3183
 1369ANI     HC19163   1.671   0.395   4.539 -1.6456  0.5397 -0.8302
 1369ANI     HC19164   1.584   0.238   4.692  0.5251  1.2391 -0.5639
 1369ANI     HN19165   1.375  -0.025   4.579 -0.6940 -0.3067  0.9380
 1369ANI     HN19166   1.446   0.038   4.711 -0.6683 -0.7483  0.3242
 1370ANI     CN19167   3.571   4.062   1.627  0.5687 -0.4932 -0.2618
 1370ANI     CH19168   3.567   3.926   1.661  0.4335 -0.4488 -0.1009
 1370ANI     CH19169   3.533   3.882   1.790 -0.2177  0.5989  0.0940
 1370ANI     CH19170   3.508   3.975   1.891  0.5962  0.4466  0.4434
 1370ANI     CH19171   3.517   4.113   1.865 -0.7227  0.3297 -0.6839
 1370ANI     CH19172   3.546   4.149   1.733  0.1498 -0.1630 -0.6296
 1370ANI     NH19173   3.612   4.101   1.505 -0.0721 -0.4550 -0.4632
 1370ANI     HC19174   3.587   3.850   1.587  1.8973  0.3145 -0.5156
 1370ANI     HC19175   3.546   3.778   1.814 -1.6561  0.2751 -0.4813
 1370ANI     HC19176   3.483   3.951   1.994 -1.2475 -0.1376 -0.1111
 1370ANI     HC19177   3.506   4.191   1.939 -1.3448 -1.3620  1.0770
 1370ANI     HC19178   3.565   4.255   1.724 -0.1764  0.0242  0.6937
 1370ANI     HN19179   3.551   4.174   1.469  0.4658  0.5213  0.5537
 1370ANI     HN19180   3.591   4.031   1.436  0.0035 -0.6502 -0.2909
 1371ANI     CN19181   3.503   0.310   5.688 -0.7649 -0.0694 -0.0747
 1371ANI     CH19182   3.386   0.288   5.760 -0.6333  0.2290  0.2266
 1371ANI     CH19183   3.341   0.394   5.841 -0.4496  0.7770 -0.3852
 1371ANI     CH19184   3.400   0.521   5.838  0.0513  0.5514 -0.0643
 1371ANI     CH19185   3.513   0.541   5.757  0.0512  0.3722 -0.1091
 1371ANI     CH19186   3.564   0.436   5.680 -0.6212 -0.1277  0.1146
 1371ANI     NH19187   3.561   0.208   5.622 -0.1776  0.1004  0.1761
 1371ANI     HC19188   3.349   0.189   5.779 -1.7828  0.6261  0.1182
 1371ANI     HC19189   3.263   0.379   5.914  1.2139  0.1730  1.3213
 1371ANI     HC19190   3.355   0.604   5.890 -1.3527  1.1579 -2.2078
 1371ANI     HC19191   3.559   0.638   5.758  0.6527  0.1346  3.5128
 1371ANI     HC19192   3.655   0.455   5.625 -0.8810  0.4082 -0.1330
 1371ANI     HN19193   3.587   0.132   5.682 -0.4684  0.4394  0.7402
 1371ANI     HN19194   3.649   0.221   5.574  0.0203 -0.6698  0.3289
 1372ANI     CN19195   3.125   2.498   6.062  0.5298  0.2826  0.2098
 1372ANI     CH19196   3.043   2.511   6.176 -0.1303 -0.5411 -0.1591
 1372ANI     CH19197   2.948   2.614   6.179  0.2338 -0.2044 -0.0782
 1372ANI     CH19198   2.928   2.698   6.069  0.1836  0.2558  0.2836
 1372ANI     CH19199   3.000   2.676   5.952 -0.1910  0.1139  0.0787
 1372ANI     CH19200   3.099   2.576   5.950 -0.4301 -0.1240  0.1398
 1372ANI     NH19201   3.226   2.410   6.050  0.2659 -0.0678  0.5257
 1372ANI     HC19202   3.053   2.442   6.258 -0.5750 -1.0483 -0.5301
 1372ANI     HC19203   2.888   2.622   6.269 -0.1818 -2.4607 -0.1162
 1372ANI     HC19204   2.853   2.776   6.074  0.1752  0.2767 -0.1684
 1372ANI     HC19205   2.986   2.744   5.869  0.3928 -0.0540 -0.1671
 1372ANI     HC19206   3.164   2.560   5.865 -0.1453  0.6245  0.2079
 1372ANI     HN19207   3.234   2.377   5.955 -4.5006 -2.2213  0.7023
 1372ANI     HN19208   3.227   2.342   6.124  2.9074 -1.0909 -0.4196
 1373ANI     CN19209   4.006   5.838   5.621  0.2624 -0.2350 -0.1842
 1373ANI     CH19210   4.092   5.859   5.513  0.0208  0.5224 -0.2333
 1373ANI     CH19211   4.206   5.938   5.529  0.1196  0.3117  0.1134
 1373ANI     CH19212   4.231   6.003   5.651 -0.1376  0.2199  0.2135
 1373ANI     CH19213   4.148   5.973   5.760  0.3582 -0.1322  0.4980
 1373ANI     CH19214   4.038   5.888   5.749 -0.0017  0.4392 -0.3805
 1373ANI     NH19215   3.899   5.759   5.607  0.0796 -0.0137 -0.0665
 1373ANI     HC19216   4.074   5.813   5.417  0.2073 -0.8687  0.3821
 1373ANI     HC19217   4.277   5.948   5.448  0.5640  2.1943  0.6901
 1373ANI     HC19218   4.321   6.059   5.670 -0.8057  0.6031  2.3716
 1373ANI     HC19219   4.168   6.001   5.862  1.4282  0.9916 -0.0127
 1373ANI     HC19220   3.973   5.876   5.834 -0.0589  2.7880 -0.0581
 1373ANI     HN19221   3.876   5.718   5.696 -3.1816  2.6030  0.3799
 1373ANI     HN19222   3.898   5.686   5.536 -0.6807  0.0683 -0.1433
 1374ANI     CN19223   2.580   1.073   4.321  0.2542  0.2794  0.6037
 1374ANI     CH19224   2.484   0.976   4.350 -0.3026  0.7116  0.2128
 1374ANI     CH19225   2.511   0.871   4.439  0.2579  0.7446  0.0831
 1374ANI     CH19226   2.642   0.844   4.480  0.2567 -0.1048 -0.4549
 1374ANI     CH19227   2.733   0.947   4.455  0.0162  0.2397  0.0671
 1374ANI     CH19228   2.710   1.056   4.371  0.3127  0.7081  0.5939
 1374ANI     NH19229   2.538   1.177   4.247  0.3646 -0.2014 -0.1428
 1374ANI     HC19230   2.382   0.978   4.313  0.5030  1.1822 -2.0380
 1374ANI     HC19231   2.436   0.796   4.462  1.0749 -0.3036 -0.5943
 1374ANI     HC19232   2.673   0.756   4.533  3.7337  1.6445  0.5364
 1374ANI     HC19233   2.836   0.931   4.486 -0.1799  0.0976  0.6432
 1374ANI     HC19234   2.791   1.123   4.344  1.3717 -0.1862  1.4973
 1374ANI     HN19235   2.595   1.259   4.255 -0.2754  0.5504 -2.8798
 1374ANI     HN19236   2.440   1.198   4.263  0.8719  1.4636  0.8418
 1375ANI     CN19237   4.601   2.644   5.285 -0.3572  0.5450  0.3585
 1375ANI     CH19238   4.671   2.723   5.194  0.2777  0.1265  0.4835
 1375ANI     CH19239   4.649   2.861   5.183 -0.2343 -0.0200 -0.3742
 1375ANI     CH19240   4.548   2.918   5.262  0.3463  0.3908  0.0760
 1375ANI     CH19241   4.480   2.841   5.357 -0.2139  0.2256 -0.4555
 1375ANI     CH19242   4.503   2.703   5.367 -0.8013  0.1650  0.1064
 1375ANI     NH19243   4.632   2.514   5.295 -0.1390  0.5614 -0.1416
 1375ANI     HC19244   4.744   2.683   5.125  0.7141  0.9207  0.4711
 1375ANI     HC19245   4.701   2.924   5.111  1.1558 -0.4565  0.2298
 1375ANI     HC19246   4.521   3.022   5.261 -2.9973 -0.4277 -1.0891
 1375ANI     HC19247   4.406   2.889   5.419  0.0580  1.4488 -1.0660
 1375ANI     HC19248   4.447   2.638   5.432  0.2176 -1.0953 -0.2689
 1375ANI     HN19249   4.662   2.481   5.204  3.5872 -0.8877  1.5189
 1375ANI     HN19250   4.548   2.467   5.323 -0.6478  0.9752 -0.9528
 1376ANI     CN19251   4.387   4.259   0.109 -0.0755 -0.0361  0.2430
 1376ANI     CH19252   4.399   4.398   0.090 -0.5147 -0.0517 -0.1530
 1376ANI     CH19253   4.509   4.455   0.154 -0.4841  0.0485 -0.2958
 1376ANI     CH19254   4.597   4.382   0.235 -0.8773 -0.1407 -0.0382
 1376ANI     CH19255   4.587   4.242   0.246  0.6901 -0.3018 -0.4630
 1376ANI     CH19256   4.480   4.181   0.179  0.3061  0.0429 -0.1693
 1376ANI     NH19257   4.279   4.208   0.048  0.1775 -0.4317  0.1215
 1376ANI     HC19258   4.325   4.457   0.038  0.0936 -0.9532 -2.1039
 1376ANI     HC19259   4.536   4.559   0.140  0.1063 -0.3756 -2.4269
 1376ANI     HC19260   4.676   4.441   0.278 -0.0368 -0.5801 -0.9608
 1376ANI     HC19261   4.658   4.184   0.302 -0.2207 -0.3249  0.6940
 1376ANI     HC19262   4.473   4.073   0.186  1.3915 -0.1068 -1.2856
 1376ANI     HN19263   4.288   4.111   0.022  1.8371  0.4234 -2.7607
 1376ANI     HN19264   4.249   4.257  -0.034  0.3949  0.7228  0.7119
 1377ANI     CN19265   4.702   3.524   0.942  0.6684  0.3119 -0.2184
 1377ANI     CH19266   4.745   3.402   0.997 -0.5456  0.2805  0.6599
 1377ANI     CH19267   4.807   3.395   1.122  0.4352 -0.0306  0.1600
 1377ANI     CH19268   4.816   3.514   1.195  0.8963 -0.3797  0.6808
 1377ANI     CH19269   4.772   3.637   1.144 -0.1524 -0.9966  0.0862
 1377ANI     CH19270   4.725   3.643   1.012  0.5436  0.2735 -0.1123
 1377ANI     NH19271   4.649   3.526   0.819 -0.0203  0.1359  0.0765
 1377ANI     HC19272   4.750   3.312   0.938 -1.2349  0.1118  0.8557
 1377ANI     HC19273   4.857   3.303   1.147 -2.6131 -1.4843  1.1593
 1377ANI     HC19274   4.869   3.501   1.288  1.8495 -2.7252 -0.1667
 1377ANI     HC19275   4.780   3.723   1.208  0.2686 -0.5228 -0.6053
 1377ANI     HC19276   4.697   3.736   0.965  0.1955 -0.4448 -1.3628
 1377ANI     HN19277   4.579   3.598   0.832 -0.2057 -0.3738  2.0518
 1377ANI     HN19278   4.597   3.441   0.806  0.7818 -0.3930  0.3171
 1378ANI     CN19279   5.230   3.971   4.127  0.3930 -0.4051  0.1325
 1378ANI     CH19280   5.091   3.983   4.134  0.4204 -0.6674  1.1637
 1378ANI     CH19281   5.028   4.049   4.241 -0.4669 -0.4209  0.4990
 1378ANI     CH19282   5.103   4.105   4.345  0.4265  0.4869 -0.6232
 1378ANI     CH19283   5.242   4.088   4.340  0.4463  0.2244  0.6163
 1378ANI     CH19284   5.304   4.021   4.234 -0.1578  0.3880  0.1488
 1378ANI     NH19285   5.287   3.905   4.025  0.7032 -0.2224  0.1879
 1378ANI     HC19286   5.031   3.942   4.054  2.9790 -4.0275  0.8624
 1378ANI     HC19287   4.921   4.054   4.250 -0.2956  1.7683  1.5749
 1378ANI     HC19288   5.056   4.166   4.421 -0.7093 -0.2875 -0.7009
 1378ANI     HC19289   5.288   4.133   4.426  2.2817 -2.2657  0.9713
 1378ANI     HC19290   5.412   4.020   4.231 -0.1622  2.4234 -1.2887
 1378ANI     HN19291   5.380   3.865   4.031  0.8895 -0.0465 -1.2703
 1378ANI     HN19292   5.219   3.844   3.982  0.8449 -0.9609  1.0035
 1379ANI     CN19293   1.894   3.472   1.083  0.1431  0.0399 -0.8966
 1379ANI     CH19294   1.915   3.608   1.105 -0.4191 -0.0864  0.4620
 1379ANI     CH19295   1.815   3.703   1.078  0.2749  0.5327  0.0660
 1379ANI     CH19296   1.687   3.655   1.049  0.1875  0.2615  0.9054
 1379ANI     CH19297   1.665   3.518   1.027  0.4790  0.3596 -0.0132
 1379ANI     CH19298   1.768   3.424   1.045  0.1817 -0.1237 -0.8214
 1379ANI     NH19299   1.992   3.386   1.115 -0.0131  0.1079 -0.2194
 1379ANI     HC19300   2.012   3.650   1.127 -0.4040  1.2887 -2.0419
 1379ANI     HC19301   1.839   3.807   1.092  2.6071 -0.0955  0.9712
 1379ANI     HC19302   1.611   3.731   1.034 -2.4259 -2.7499 -1.8932
 1379ANI     HC19303   1.565   3.481   1.011  0.6086  0.9588 -2.4734
 1379ANI     HC19304   1.748   3.319   1.031 -0.5181  0.1077 -1.6419
 1379ANI     HN19305   1.992   3.299   1.063  0.1375 -1.1832  1.9167
 1379ANI     HN19306   2.088   3.414   1.126  0.4664 -1.9202  0.9662
 1380ANI     CN19307   1.624   3.221   3.680 -0.0305  0.3856 -0.1356
 1380ANI     CH19308   1.564   3.348   3.674  0.0272  0.4171 -0.0353
 1380ANI     CH19309   1.484   3.376   3.563 -0.4190 -0.2779  0.1092
 1380ANI     CH19310   1.471   3.284   3.458  0.5249  0.0862 -0.3369
 1380ANI     CH19311   1.539   3.162   3.459 -0.0296 -0.2266 -0.2170
 1380ANI     CH19312   1.612   3.131   3.574  1.1357  0.8419 -0.6553
 1380ANI     NH19313   1.690   3.185   3.791 -0.1993 -0.2744 -0.2498
 1380ANI     HC19314   1.566   3.406   3.765  2.2929  0.6406 -0.1874
 1380ANI     HC19315   1.432   3.470   3.551  2.7979  1.4909 -0.5375
 1380ANI     HC19316   1.422   3.331   3.374 -0.7520  2.4587  1.6761
 1380ANI     HC19317   1.539   3.098   3.372 -1.8156 -0.7547  0.1638
 1380ANI     HC19318   1.672   3.041   3.578 -0.9948 -0.6143 -0.5981
 1380ANI     HN19319   1.666   3.235   3.875 -1.4335 -0.6241 -0.3832
 1380ANI     HN19320   1.686   3.084   3.801 -0.0665 -0.3933 -1.2845
 1381ANI     CN19321   0.483   1.977   5.903  0.5378  0.2022 -0.4771
 1381ANI     CH19322   0.566   2.027   6.004 -0.4194  0.4790  0.1832
 1381ANI     CH19323   0.656   2.129   5.971  0.5153 -0.5617 -0.5081
 1381ANI     CH19324   0.667   2.168   5.837  0.2881 -0.0772 -0.3867
 1381ANI     CH19325   0.580   2.123   5.737  0.0604 -0.1219 -0.1668
 1381ANI     CH19326   0.489   2.021   5.770 -0.1240 -0.1028 -0.6155
 1381ANI     NH19327   0.388   1.887   5.931  0.6563  0.4944  0.8781
 1381ANI     HC19328   0.561   1.992   6.106  1.5129  0.4570  0.2875
 1381ANI     HC19329   0.720   2.165   6.051  1.5329  0.8898 -1.9508
 1381ANI     HC19330   0.737   2.246   5.811 -1.3190  0.3546 -3.6282
 1381ANI     HC19331   0.598   2.165   5.640 -2.7153 -1.7122 -1.4204
 1381ANI     HC19332   0.431   1.977   5.691 -2.4218  0.8364  0.5122
 1381ANI     HN19333   0.408   1.823   6.007 -0.2417 -0.7844  0.0546
 1381ANI     HN19334   0.352   1.830   5.855  0.6278 -0.6396  1.7247
 1382ANI     CN19335   6.249   0.936   4.786  0.0700  0.1043  0.4355
 1382ANI     CH19336   6.219   0.849   4.892 -1.0390 -0.5417 -0.3992
 1382ANI     CH19337   6.279   0.722   4.901  0.7660  0.3529  0.4769
 1382ANI     CH19338   6.374   0.684   4.806  0.0412 -0.3995  0.0446
 1382ANI     CH19339   6.401   0.768   4.698 -0.2384  0.1235  0.3798
 1382ANI     CH19340   6.341   0.894   4.689 -0.4919 -0.0253 -0.0444
 1382ANI     NH19341   6.197   1.059   4.795 -0.3737  0.0055 -0.7333
 1382ANI     HC19342   6.147   0.878   4.966  0.2075  2.1350 -0.1701
 1382ANI     HC19343   6.262   0.648   4.978  1.8498 -1.4441 -0.9911
 1382ANI     HC19344   6.417   0.586   4.820 -1.0125 -0.5813  2.2092
 1382ANI     HC19345   6.468   0.741   4.618  1.2607  1.1237  1.2816
 1382ANI     HC19346   6.369   0.960   4.608 -0.2974  0.0252  0.0629
 1382ANI     HN19347   6.226   1.124   4.723 -0.0473 -1.1895 -1.6978
 1382ANI     HN19348   6.190   1.097   4.888 -2.1396  0.5933 -1.0727
 1383ANI     CN19349   5.573   1.445   2.069 -0.1932  0.2844  0.4845
 1383ANI     CH19350   5.508   1.504   1.960  0.5995  1.0309  0.4117
 1383ANI     CH19351   5.369   1.518   1.965  0.4740 -0.0905  0.1111
 1383ANI     CH19352   5.299   1.476   2.079  0.1503 -1.0992 -0.4538
 1383ANI     CH19353   5.367   1.426   2.191  0.0764  0.4668  0.2915
 1383ANI     CH19354   5.505   1.407   2.186  0.0165 -0.0237  0.5063
 1383ANI     NH19355   5.706   1.426   2.071 -0.2160  0.0505 -0.1574
 1383ANI     HC19356   5.560   1.540   1.872 -0.7364  1.2343 -0.3073
 1383ANI     HC19357   5.319   1.559   1.879  0.3541 -0.5698 -0.0525
 1383ANI     HC19358   5.192   1.484   2.073  0.0018 -1.0496  1.8474
 1383ANI     HC19359   5.310   1.400   2.279 -1.0614  0.8919 -0.3079
 1383ANI     HC19360   5.559   1.365   2.270 -0.4495 -1.3725  0.1459
 1383ANI     HN19361   5.753   1.388   2.152  1.1763 -0.6452 -1.2817
 1383ANI     HN19362   5.765   1.476   2.007  0.8773 -1.1148 -0.0640
 1384ANI     CN19363   1.112   0.676   0.160 -0.3189  0.2223  0.4386
 1384ANI     CH19364   1.089   0.664   0.297  0.2503 -0.0788  0.5085
 1384ANI     CH19365   1.017   0.766   0.361 -0.3657 -0.1677 -0.0435
 1384ANI     CH19366   0.975   0.877   0.285 -0.3724 -0.0994  0.0604
 1384ANI     CH19367   1.005   0.890   0.149  0.6756  0.2154  0.3156
 1384ANI     CH19368   1.073   0.787   0.084  0.3559  0.1856  0.0323
 1384ANI     NH19369   1.179   0.578   0.098 -0.4493 -0.1092  0.8221
 1384ANI     HC19370   1.123   0.580   0.357 -3.4640 -0.7517  1.7921
 1384ANI     HC19371   1.011   0.767   0.468  0.1619 -1.5417  0.0092
 1384ANI     HC19372   0.920   0.963   0.319 -2.9086 -1.1399 -1.2975
 1384ANI     HC19373   0.966   0.974   0.093 -0.3075  0.4702  1.3456
 1384ANI     HC19374   1.089   0.791  -0.023 -0.8207  1.0281 -0.1302
 1384ANI     HN19375   1.254   0.617   0.043 -2.0840  0.0364 -1.3819
 1384ANI     HN19376   1.215   0.504   0.158 -4.7259 -0.7918  2.7640
 1385ANI     CN19377   3.239   0.984   3.694 -0.1087  0.0567 -0.1375
 1385ANI     CH19378   3.267   1.120   3.675  0.4217 -0.0074  0.1752
 1385ANI     CH19379   3.320   1.199   3.778  0.0627  0.1221  0.2620
 1385ANI     CH19380   3.356   1.135   3.897  0.1742 -0.0800  0.1203
 1385ANI     CH19381   3.333   0.998   3.913 -0.0807 -0.0546 -0.0119
 1385ANI     CH19382   3.274   0.920   3.813 -0.0390  0.0831 -0.1441
 1385ANI     NH19383   3.187   0.904   3.599 -0.0314  0.5944 -0.6395
 1385ANI     HC19384   3.241   1.179   3.588 -2.2436 -2.7395 -0.9710
 1385ANI     HC19385   3.335   1.304   3.756 -0.8586  0.1724 -0.1532
 1385ANI     HC19386   3.416   1.189   3.968  0.2242 -1.4702  1.1487
 1385ANI     HC19387   3.352   0.952   4.009 -2.8000 -0.1578  0.4941
 1385ANI     HC19388   3.250   0.817   3.832 -1.9611  0.8967  2.0456
 1385ANI     HN19389   3.230   0.815   3.583  0.5164  0.7818 -0.2287
 1385ANI     HN19390   3.189   0.951   3.510 -0.8661  0.6157 -0.6521
 1386ANI     CN19391   6.241   6.122   4.328  0.0547  0.2052  0.0440
 1386ANI     CH19392   6.228   6.060   4.204 -0.0240  0.4156 -0.0535
 1386ANI     CH19393   6.125   6.098   4.117  0.0340 -0.0888 -0.3464
 1386ANI     CH19394   6.028   6.192   4.154  0.2805 -0.0255  0.1471
 1386ANI     CH19395   6.037   6.250   4.282 -0.3981  0.2180  0.0889
 1386ANI     CH19396   6.148   6.221   4.363 -0.3436 -0.1210 -0.1040
 1386ANI     NH19397   6.350   6.096   4.402  0.1036 -0.5684 -0.3002
 1386ANI     HC19398   6.287   5.972   4.183  0.4997  0.5201  0.9800
 1386ANI     HC19399   6.111   6.036   4.030 -0.0818 -1.5984  0.7228
 1386ANI     HC19400   5.943   6.212   4.090 -0.2823 -2.8774 -0.0484
 1386ANI     HC19401   5.949   6.305   4.310 -2.5130 -2.9734  0.0048
 1386ANI     HC19402   6.159   6.271   4.458 -0.2140 -1.6191  0.6877
 1386ANI     HN19403   6.364   6.166   4.474  0.5135 -1.2938  0.3388
 1386ANI     HN19404   6.435   6.093   4.349 -0.7446 -1.7523 -1.6308
 1387ANI     CN19405   4.568   3.268   2.031  0.1413  0.0767 -0.0746
 1387ANI     CH19406   4.687   3.287   1.960  0.0779  0.1794 -0.1522
 1387ANI     CH19407   4.750   3.411   1.971  0.0776  0.1910 -0.2781
 1387ANI     CH19408   4.679   3.519   2.025 -0.1513 -0.1753  0.1533
 1387ANI     CH19409   4.558   3.503   2.095 -0.0713  0.4028  0.4289
 1387ANI     CH19410   4.503   3.374   2.097  0.2532  0.2492 -0.2404
 1387ANI     NH19411   4.496   3.156   2.030  0.1066  0.0920  0.3060
 1387ANI     HC19412   4.730   3.202   1.909  0.7903  0.8190 -0.6238
 1387ANI     HC19413   4.836   3.417   1.906 -0.2812  0.3702 -0.7445
 1387ANI     HC19414   4.724   3.616   2.038 -0.9334  0.4473 -1.5983
 1387ANI     HC19415   4.506   3.580   2.149 -1.8595  0.4087 -1.2276
 1387ANI     HC19416   4.411   3.370   2.152  1.6596  1.8297  2.3315
 1387ANI     HN19417   4.395   3.157   2.041  0.2207  0.6744  1.3181
 1387ANI     HN19418   4.523   3.084   1.964  0.5753  1.6308 -1.2315
 1388ANI     CN19419   4.110   4.661   3.925 -0.7586 -0.1207 -0.1569
 1388ANI     CH19420   4.055   4.638   4.052 -0.4251 -0.3057 -0.0472
 1388ANI     CH19421   3.943   4.706   4.101 -0.6474 -0.3424 -0.5061
 1388ANI     CH19422   3.876   4.792   4.013 -0.2327  0.5071  0.0024
 1388ANI     CH19423   3.912   4.792   3.878 -0.5430  0.1634 -0.0802
 1388ANI     CH19424   4.023   4.719   3.832 -0.4389  0.3663 -0.1513
 1388ANI     NH19425   4.208   4.582   3.881 -0.2848  0.0938  0.5044
 1388ANI     HC19426   4.105   4.570   4.120 -1.9677 -0.9394  0.4647
 1388ANI     HC19427   3.914   4.690   4.204  0.5883 -2.4777 -0.4494
 1388ANI     HC19428   3.791   4.840   4.058 -2.1436 -1.5972 -1.2486
 1388ANI     HC19429   3.848   4.844   3.809 -1.3850  0.1448  0.6774
 1388ANI     HC19430   4.047   4.740   3.729 -0.3434  1.3885  0.0705
 1388ANI     HN19431   4.188   4.527   3.799  0.1889  0.9899 -0.2345
 1388ANI     HN19432   4.241   4.510   3.943  0.2610 -2.1620 -2.2732
 1389ANI     CN19433   4.807   4.404   4.601  0.2983 -0.6145  0.3176
 1389ANI     CH19434   4.879   4.375   4.485  0.3208  0.4163  0.0642
 1389ANI     CH19435   4.989   4.453   4.451 -0.0811  0.6238 -0.7572
 1389ANI     CH19436   5.019   4.571   4.521  0.2762  0.0333  0.0803
 1389ANI     CH19437   4.944   4.596   4.637  0.0842 -0.0232 -0.0301
 1389ANI     CH19438   4.841   4.513   4.682 -0.0554 -0.0166 -0.3399
 1389ANI     NH19439   4.708   4.321   4.637  0.0589 -0.3051  0.3770
 1389ANI     HC19440   4.856   4.286   4.427 -1.0153  0.6453  0.2425
 1389ANI     HC19441   5.048   4.423   4.365 -2.2696  1.9247 -2.7668
 1389ANI     HC19442   5.108   4.624   4.491  1.5947 -1.8914  0.4655
 1389ANI     HC19443   4.969   4.676   4.705 -1.8102 -0.9525  1.7882
 1389ANI     HC19444   4.776   4.535   4.766 -0.3540  0.1980 -0.6246
 1389ANI     HN19445   4.723   4.303   4.735  2.6853  1.1585  0.2762
 1389ANI     HN19446   4.697   4.233   4.587 -1.6493  1.9799 -3.5733
 1390ANI     CN19447   5.046   2.557   0.270  0.2726  0.2241 -0.2873
 1390ANI     CH19448   4.970   2.508   0.163 -0.0564  0.5056 -0.1839
 1390ANI     CH19449   4.895   2.595   0.083 -0.3090 -0.1631 -0.6860
 1390ANI     CH19450   4.902   2.732   0.113 -0.5429 -0.4989  0.9937
 1390ANI     CH19451   4.990   2.780   0.210 -0.5557  0.3425  0.5954
 1390ANI     CH19452   5.062   2.694   0.294 -0.1544  0.2072  0.1107
 1390ANI     NH19453   5.130   2.476   0.335 -0.1506  0.5177  0.6290
 1390ANI     HC19454   4.970   2.402   0.139  0.8920  0.1458  1.3124
 1390ANI     HC19455   4.835   2.554   0.004  0.8956 -1.9361 -0.7030
 1390ANI     HC19456   4.842   2.798   0.052  0.4280 -0.1389  0.4102
 1390ANI     HC19457   5.021   2.883   0.215 -0.1861  0.3089 -0.9907
 1390ANI     HC19458   5.140   2.726   0.362  0.9365  1.0609 -1.4892
 1390ANI     HN19459   5.227   2.495   0.314 -0.9019  2.1275 -1.5045
 1390ANI     HN19460   5.107   2.378   0.327 -2.1084  0.9641  0.5603
 1391ANI     CN19461   5.412   1.171   5.102 -0.9565  0.1363  0.4826
 1391ANI     CH19462   5.313   1.120   5.017 -0.0860 -0.1986 -0.3261
 1391ANI     CH19463   5.238   1.205   4.935 -0.3390  0.2352  0.3538
 1391ANI     CH19464   5.261   1.343   4.949  0.1316  0.1463  0.4551
 1391ANI     CH19465   5.355   1.389   5.042  0.2338  0.5305  0.1611
 1391ANI     CH19466   5.443   1.307   5.114 -0.0260 -0.0201 -0.1499
 1391ANI     NH19467   5.487   1.082   5.169 -0.1494  0.1660 -0.3804
 1391ANI     HC19468   5.303   1.013   5.006 -1.1767 -0.3251  1.8054
 1391ANI     HC19469   5.166   1.163   4.866 -0.6236  2.3463 -0.6687
 1391ANI     HC19470   5.207   1.420   4.896 -1.1994 -2.2637 -1.8222
 1391ANI     HC19471   5.363   1.497   5.050  0.8800  0.3317  2.5287
 1391ANI     HC19472   5.531   1.340   5.167 -0.8222 -1.3104  2.0056
 1391ANI     HN19473   5.511   0.992   5.130  0.9412  1.0139 -1.7160
 1391ANI     HN19474   5.565   1.122   5.219  0.1886 -1.4876  0.4565
 1392ANI     CN19475   3.913   5.819   2.486 -0.1825 -0.0577 -0.2607
 1392ANI     CH19476   3.788   5.880   2.498 -0.0302  0.2398 -0.1669
 1392ANI     CH19477   3.784   6.019   2.514  0.4135  0.1539  0.6744
 1392ANI     CH19478   3.898   6.100   2.504  0.3964  0.1362  0.3392
 1392ANI     CH19479   4.021   6.037   2.481  0.3269  0.0659  0.1625
 1392ANI     CH19480   4.028   5.897   2.472 -0.2029  0.0421  0.1034
 1392ANI     NH19481   3.929   5.686   2.483 -0.4743 -0.1234  0.6806
 1392ANI     HC19482   3.688   5.838   2.502  0.3420 -0.9546 -2.4082
 1392ANI     HC19483   3.692   6.073   2.530 -0.1222 -0.3418 -0.7037
 1392ANI     HC19484   3.881   6.205   2.519 -1.1817 -0.1035  0.3140
 1392ANI     HC19485   4.113   6.093   2.476 -0.0263  1.0399  3.3687
 1392ANI     HC19486   4.125   5.850   2.462 -0.4441 -1.0131  2.4421
 1392ANI     HN19487   3.848   5.634   2.512  1.4036 -2.4151  2.0590
 1392ANI     HN19488   3.981   5.659   2.565 -1.6308 -1.2840  1.0612
 1393ANI     CN19489   1.853   5.407   0.508 -0.5397  0.4750 -0.0992
 1393ANI     CH19490   1.719   5.408   0.469 -0.4693 -0.7000 -0.3967
 1393ANI     CH19491   1.684   5.469   0.348 -0.0184 -0.3556 -0.3545
 1393ANI     CH19492   1.778   5.528   0.263  0.3257 -0.2995  0.0672
 1393ANI     CH19493   1.912   5.525   0.306  0.3530 -0.7526 -0.0527
 1393ANI     CH19494   1.951   5.467   0.427  0.2296 -0.4963  0.1110
 1393ANI     NH19495   1.892   5.360   0.627 -0.1188  0.3680 -0.2774
 1393ANI     HC19496   1.647   5.367   0.539  0.4829 -0.0290  1.0115
 1393ANI     HC19497   1.578   5.480   0.327 -0.1450  1.1640  0.9711
 1393ANI     HC19498   1.750   5.582   0.174 -1.1915  0.2727  0.8771
 1393ANI     HC19499   1.987   5.583   0.256 -2.2526  0.5813 -2.5321
 1393ANI     HC19500   2.049   5.485   0.469  1.0610 -1.3349 -1.4403
 1393ANI     HN19501   1.817   5.341   0.692  1.2515  0.2750  1.3097
 1393ANI     HN19502   1.966   5.411   0.674  0.2253 -1.1130  0.8413
 1394ANI     CN19503   4.767   2.148   2.280 -0.3836 -0.5350  0.0069
 1394ANI     CH19504   4.667   2.242   2.310  0.3578  0.0890  0.5391
 1394ANI     CH19505   4.549   2.201   2.373  0.4720 -0.0741  0.6506
 1394ANI     CH19506   4.521   2.066   2.394  0.3036 -0.1495 -0.0538
 1394ANI     CH19507   4.616   1.972   2.352  0.3348 -0.1718  0.0665
 1394ANI     CH19508   4.736   2.012   2.291  0.6126 -0.7487  0.2303
 1394ANI     NH19509   4.884   2.181   2.224 -0.2097 -0.1865  0.5746
 1394ANI     HC19510   4.686   2.347   2.296  2.0851 -0.4290 -1.2151
 1394ANI     HC19511   4.476   2.277   2.400  0.3868  0.4140 -0.8825
 1394ANI     HC19512   4.426   2.032   2.435 -0.4807 -0.7324 -2.2745
 1394ANI     HC19513   4.598   1.866   2.347  0.9004 -0.2113 -1.0701
 1394ANI     HC19514   4.809   1.944   2.251  2.0691  0.5660  0.5988
 1394ANI     HN19515   4.949   2.104   2.213  0.2303  0.2717 -0.0710
 1394ANI     HN19516   4.881   2.223   2.132 -0.4641  2.0692  1.5596
 1395ANI     CN19517   0.318   0.357   3.341 -0.1344 -0.3383 -0.1466
 1395ANI     CH19518   0.180   0.371   3.364 -0.0884  0.3390 -0.2995
 1395ANI     CH19519   0.097   0.260   3.355  0.1178  0.1559  0.0339
 1395ANI     CH19520   0.151   0.142   3.301 -0.5474 -0.3030  0.3648
 1395ANI     CH19521   0.288   0.128   3.274 -0.5916 -0.3502  0.1682
 1395ANI     CH19522   0.373   0.236   3.295 -0.5358 -0.1290 -1.1872
 1395ANI     NH19523   0.398   0.462   3.358 -0.4660 -0.1394  0.1887
 1395ANI     HC19524   0.140   0.466   3.395  0.5356  0.4159  0.2967
 1395ANI     HC19525  -0.009   0.274   3.373  0.2175 -1.0043  1.5807
 1395ANI     HC19526   0.076   0.065   3.288 -1.6046  0.9394 -1.0552
 1395ANI     HC19527   0.332   0.034   3.242 -3.1658 -0.3065 -3.9450
 1395ANI     HC19528   0.479   0.219   3.282 -0.2869  0.6776 -0.3312
 1395ANI     HN19529   0.337   0.542   3.372 -2.3724 -1.7203  1.0641
 1395ANI     HN19530   0.463   0.474   3.282  1.5158 -1.6621  1.5881
 1396ANI     CN19531   4.552   6.005   3.763  0.0735 -0.0966 -0.5347
 1396ANI     CH19532   4.688   6.035   3.750  0.1696 -0.3063 -0.0097
 1396ANI     CH19533   4.735   6.166   3.741  0.3658 -0.3568  0.2480
 1396ANI     CH19534   4.641   6.270   3.748  0.1223 -0.5008 -0.8231
 1396ANI     CH19535   4.505   6.241   3.750  0.0822 -0.2645  0.0186
 1396ANI     CH19536   4.459   6.109   3.759 -0.1008 -0.2717 -0.9780
 1396ANI     NH19537   4.504   5.884   3.796 -0.1176  0.1743  0.1919
 1396ANI     HC19538   4.769   5.963   3.743  0.6776  0.3700 -1.1891
 1396ANI     HC19539   4.840   6.192   3.748  0.4208 -0.8841  1.4032
 1396ANI     HC19540   4.663   6.376   3.746 -2.1439  0.0545  1.4207
 1396ANI     HC19541   4.436   6.324   3.760  0.8060  0.5101 -1.3117
 1396ANI     HC19542   4.351   6.097   3.756 -0.3824  2.1689 -2.1420
 1396ANI     HN19543   4.543   5.813   3.736  0.8078  2.0124 -1.4331
 1396ANI     HN19544   4.405   5.875   3.778  0.3078 -0.4329 -2.0802
 1397ANI     CN19545   4.225   3.443   5.652  0.2306 -0.0221 -0.0940
 1397ANI     CH19546   4.159   3.450   5.529  0.1056 -0.1071 -0.0319
 1397ANI     CH19547   4.047   3.372   5.497  0.3753 -0.3474 -0.3814
 1397ANI     CH19548   4.015   3.270   5.588 -0.0603  0.1581  0.0366
 1397ANI     CH19549   4.085   3.250   5.708 -0.2537 -0.1927  0.0911
 1397ANI     CH19550   4.194   3.334   5.735 -0.5647  0.2493 -0.0388
 1397ANI     NH19551   4.320   3.530   5.688  0.2370  0.1046 -0.4257
 1397ANI     HC19552   4.188   3.531   5.464 -0.4091  1.1085  1.2142
 1397ANI     HC19553   3.991   3.375   5.406 -0.2573 -2.2162 -0.0725
 1397ANI     HC19554   3.931   3.204   5.573 -1.6945  2.3916 -0.9146
 1397ANI     HC19555   4.056   3.176   5.781  0.5717  1.4205  2.0816
 1397ANI     HC19556   4.246   3.327   5.830 -0.7214 -2.4317 -0.1117
 1397ANI     HN19557   4.327   3.531   5.788 -1.1188  2.0304 -0.3175
 1397ANI     HN19558   4.292   3.622   5.657  0.0122  0.0967 -0.2352
 1398ANI     CN19559   5.919   2.227   2.453 -0.2404  0.2779 -0.2993
 1398ANI     CH19560   5.984   2.319   2.536 -0.3231  0.1551 -0.0978
 1398ANI     CH19561   6.087   2.403   2.493  0.2695 -0.6021 -0.1600
 1398ANI     CH19562   6.137   2.382   2.364 -0.3089 -0.3467 -0.4271
 1398ANI     CH19563   6.088   2.280   2.283 -0.1747 -0.3976 -0.4446
 1398ANI     CH19564   5.985   2.199   2.332 -0.5974  0.1283 -0.4600
 1398ANI     NH19565   5.811   2.164   2.500 -0.5525  0.8544 -0.2431
 1398ANI     HC19566   5.939   2.343   2.631  1.1307  1.5335  0.2602
 1398ANI     HC19567   6.134   2.475   2.559  0.0042  0.9156 -1.5884
 1398ANI     HC19568   6.219   2.448   2.340  1.0159 -2.2270 -1.2405
 1398ANI     HC19569   6.142   2.254   2.193 -0.8496  0.2758 -1.0453
 1398ANI     HC19570   5.950   2.111   2.280 -1.8999 -0.0039  0.6161
 1398ANI     HN19571   5.759   2.200   2.578  0.8964  1.5268  0.4318
 1398ANI     HN19572   5.754   2.119   2.430  0.6589 -2.7403  0.9640
 1399ANI     CN19573   4.748   5.870   0.286 -0.3210  0.1968  0.4668
 1399ANI     CH19574   4.857   5.902   0.367 -0.0096  0.0523  0.1103
 1399ANI     CH19575   4.911   5.807   0.454  0.1268 -0.0630 -0.1021
 1399ANI     CH19576   4.870   5.673   0.445  0.0843 -0.0299 -0.4174
 1399ANI     CH19577   4.762   5.636   0.365  0.0916 -0.4062 -0.2525
 1399ANI     CH19578   4.704   5.737   0.287  0.4634 -0.0685 -0.0907
 1399ANI     NH19579   4.709   5.961   0.195  0.0769 -0.0252  0.0723
 1399ANI     HC19580   4.910   5.996   0.358  1.4012 -0.5806  1.6454
 1399ANI     HC19581   4.995   5.835   0.516  0.8293  1.5510 -1.7297
 1399ANI     HC19582   4.915   5.592   0.500 -2.3611 -0.2567  1.3269
 1399ANI     HC19583   4.725   5.535   0.356  0.7175 -0.8061  1.5831
 1399ANI     HC19584   4.631   5.725   0.208  0.6410  0.6410 -0.3629
 1399ANI     HN19585   4.751   6.049   0.221 -0.2829  0.5293 -1.1915
 1399ANI     HN19586   4.609   5.974   0.195  0.1329  0.5943 -1.7952
 1400ANI     CN19587   3.619   5.667   3.341  0.1549  0.2248  0.2684
 1400ANI     CH19588   3.625   5.529   3.318 -0.4521  0.3311 -0.5499
 1400ANI     CH19589   3.713   5.452   3.395 -0.6366  0.4915 -0.1829
 1400ANI     CH19590   3.781   5.505   3.505  0.0972 -0.7378 -0.0374
 1400ANI     CH19591   3.759   5.641   3.533  0.2107 -0.7268  0.0006
 1400ANI     CH19592   3.687   5.726   3.448 -0.2001 -0.2932  0.7796
 1400ANI     NH19593   3.533   5.736   3.265  0.3545 -0.0039 -0.1634
 1400ANI     HC19594   3.573   5.467   3.247 -1.2902  0.4125 -0.0089
 1400ANI     HC19595   3.731   5.346   3.389  2.2540  0.8205  1.5507
 1400ANI     HC19596   3.840   5.439   3.567  1.0293  1.2147  1.2010
 1400ANI     HC19597   3.803   5.683   3.622 -0.3957 -2.3156  1.0778
 1400ANI     HC19598   3.688   5.833   3.462 -0.8249 -0.2384  0.4395
 1400ANI     HN19599   3.588   5.784   3.195  1.5508  1.4394  1.7201
 1400ANI     HN19600   3.485   5.815   3.306 -0.0532 -0.1670 -0.3142
 1401ANI     CN19601   4.538   1.922   4.097 -0.1016  0.0730  0.1725
 1401ANI     CH19602   4.585   2.022   4.183  0.3027 -0.0145  0.0581
 1401ANI     CH19603   4.628   1.981   4.309  0.2685  0.3656  0.1942
 1401ANI     CH19604   4.623   1.852   4.363  0.6369  0.2154 -0.1268
 1401ANI     CH19605   4.562   1.756   4.280 -0.1123  0.2011  0.4342
 1401ANI     CH19606   4.517   1.795   4.154  0.4316 -0.0193  0.1710
 1401ANI     NH19607   4.475   1.953   3.983  0.5182 -0.2903 -0.2721
 1401ANI     HC19608   4.604   2.121   4.144 -0.7291  0.6050  1.0838
 1401ANI     HC19609   4.662   2.054   4.381 -2.0871  1.2746  0.4225
 1401ANI     HC19610   4.658   1.824   4.461 -0.8255  0.2739  0.4219
 1401ANI     HC19611   4.546   1.658   4.323  0.5628 -0.7338 -1.4201
 1401ANI     HC19612   4.473   1.714   4.098  0.3923  0.1136  0.0073
 1401ANI     HN19613   4.471   2.042   3.935  1.2563 -0.5307 -0.7837
 1401ANI     HN19614   4.417   1.886   3.935  1.2485  0.7753 -2.6819
 1402ANI     CN19615   3.971   2.760   3.830  0.1187 -0.0438  0.2364
 1402ANI     CH19616   3.977   2.818   3.703 -0.1264 -0.5383 -0.0035
 1402ANI     CH19617   4.102   2.850   3.648 -0.2847 -0.3677 -0.2645
 1402ANI     CH19618   4.222   2.816   3.712 -0.2599 -0.6183 -0.4448
 1402ANI     CH19619   4.212   2.751   3.835  0.5768  0.4517  0.1929
 1402ANI     CH19620   4.089   2.723   3.896  0.4466  0.3984 -0.0930
 1402ANI     NH19621   3.852   2.723   3.879 -0.0947  0.3176 -0.0074
 1402ANI     HC19622   3.892   2.861   3.653 -1.9742 -0.1235  3.3622
 1402ANI     HC19623   4.103   2.895   3.549  0.8186  0.7153  0.2194
 1402ANI     HC19624   4.314   2.840   3.661 -1.1358  0.7961 -1.4106
 1402ANI     HC19625   4.302   2.735   3.892 -0.0730 -0.8540  0.8748
 1402ANI     HC19626   4.088   2.673   3.992 -0.1507  0.3655 -0.1163
 1402ANI     HN19627   3.857   2.749   3.977 -1.6198 -1.1672  0.4782
 1402ANI     HN19628   3.776   2.774   3.837  1.0559 -0.3399 -2.9722
 1403ANI     CN19629   3.168   1.829   1.834 -0.2669  0.1354  0.4027
 1403ANI     CH19630   3.075   1.725   1.841  0.0264 -0.1442  0.1473
 1403ANI     CH19631   3.009   1.688   1.723  0.0970  0.0869  0.0356
 1403ANI     CH19632   3.036   1.751   1.601  0.0092 -0.0418 -0.0491
 1403ANI     CH19633   3.142   1.842   1.593 -0.3412  0.4435  0.8589
 1403ANI     CH19634   3.203   1.887   1.711  0.0403  0.4783  0.6494
 1403ANI     NH19635   3.241   1.859   1.943  0.3335  0.1846 -0.0095
 1403ANI     HC19636   3.054   1.668   1.930  0.8662 -1.3682 -0.4244
 1403ANI     HC19637   2.939   1.607   1.720 -1.3040  1.2908 -0.2006
 1403ANI     HC19638   2.988   1.720   1.509 -0.0135 -0.4816  0.1120
 1403ANI     HC19639   3.185   1.868   1.498  0.9819  3.7185  2.2636
 1403ANI     HC19640   3.280   1.962   1.716  2.7429 -2.1973  0.5616
 1403ANI     HN19641   3.332   1.892   1.916  0.5492 -0.8568 -0.5881
 1403ANI     HN19642   3.246   1.779   2.004 -1.9435 -0.8183 -1.0661
 1404ANI     CN19643   2.100   2.905   1.354 -0.6188 -0.5088 -0.8073
 1404ANI     CH19644   1.974   2.917   1.414 -0.0431  0.3122  0.2509
 1404ANI     CH19645   1.895   2.804   1.434  0.5519 -0.0353  0.6450
 1404ANI     CH19646   1.943   2.679   1.391  0.3664  0.0180  0.2832
 1404ANI     CH19647   2.066   2.667   1.326  0.1520 -0.2899 -0.0621
 1404ANI     CH19648   2.147   2.780   1.311  0.0017 -0.2754 -0.8110
 1404ANI     NH19649   2.164   3.020   1.329 -0.7674 -0.2653 -0.0937
 1404ANI     HC19650   1.931   3.009   1.453  0.0199  0.2967  0.3577
 1404ANI     HC19651   1.800   2.806   1.486  0.6154  1.7630  0.7022
 1404ANI     HC19652   1.873   2.597   1.402 -2.0388  1.8501 -0.8377
 1404ANI     HC19653   2.105   2.572   1.294  0.8604  0.2660 -0.8662
 1404ANI     HC19654   2.247   2.770   1.273  0.8777 -1.8235  1.7786
 1404ANI     HN19655   2.259   2.988   1.324 -0.7212 -0.0684 -0.5284
 1404ANI     HN19656   2.149   3.097   1.393  0.9760  1.2255 -1.4279
 1405ANI     CN19657   5.827   6.026   6.253  0.0737 -0.4159 -0.0953
 1405ANI     CH19658   5.722   6.052   6.164 -0.2252 -0.6777  0.1808
 1405ANI     CH19659   5.671   5.952   6.081 -1.0529 -0.4927  0.4545
 1405ANI     CH19660   5.737   5.829   6.072 -0.2181 -0.0342  0.2436
 1405ANI     CH19661   5.842   5.803   6.162  0.2853 -0.0377 -0.3399
 1405ANI     CH19662   5.888   5.901   6.251  0.7202 -0.0945 -0.5049
 1405ANI     NH19663   5.870   6.123   6.334 -0.0458 -0.2163 -0.2679
 1405ANI     HC19664   5.672   6.148   6.164  1.7689  0.4008  2.2357
 1405ANI     HC19665   5.582   5.964   6.021  0.8967  1.3359 -2.1911
 1405ANI     HC19666   5.705   5.752   6.004 -0.5200 -0.4645  0.8694
 1405ANI     HC19667   5.882   5.704   6.174  2.1946  0.4776 -2.1020
 1405ANI     HC19668   5.961   5.865   6.322 -2.0983 -1.6430  1.7040
 1405ANI     HN19669   5.966   6.122   6.366 -1.3217 -1.1812  3.7803
 1405ANI     HN19670   5.846   6.220   6.316 -1.5611 -0.4229  0.5667
 1406ANI     CN19671   0.432   3.375   3.036 -0.5196  0.1990  0.2808
 1406ANI     CH19672   0.440   3.487   3.120 -0.2581  0.2279  0.2160
 1406ANI     CH19673   0.497   3.475   3.248  1.0185 -0.0287 -0.3684
 1406ANI     CH19674   0.551   3.352   3.285 -0.4893 -0.7663 -0.5925
 1406ANI     CH19675   0.554   3.245   3.195 -0.8073 -1.2408 -0.0428
 1406ANI     CH19676   0.493   3.254   3.069  0.1260  0.3329 -0.3930
 1406ANI     NH19677   0.389   3.383   2.909 -0.3047 -0.0011  0.1975
 1406ANI     HC19678   0.425   3.589   3.090 -2.4510 -0.0879  0.1434
 1406ANI     HC19679   0.504   3.559   3.316 -1.0374  0.1062 -0.2878
 1406ANI     HC19680   0.607   3.336   3.376  0.3807  1.1124 -0.7911
 1406ANI     HC19681   0.609   3.157   3.224  0.4736 -0.4889 -0.1680
 1406ANI     HC19682   0.504   3.171   3.001 -0.7213  1.3338 -1.7894
 1406ANI     HN19683   0.345   3.294   2.889  0.4728 -0.4222  0.3337
 1406ANI     HN19684   0.337   3.466   2.884 -0.4258  0.4771  2.0071
 1407ANI     CN19685   0.521   0.726   6.274  0.0161 -0.3978 -0.2395
 1407ANI     CH19686   0.443   0.610   6.278  0.0470 -0.3933  0.5695
 1407ANI     CH19687   0.478   0.505   6.364  0.8624 -0.7717 -0.2214
 1407ANI     CH19688   0.589   0.518   6.449  0.3266  0.5378  0.2973
 1407ANI     CH19689   0.665   0.635   6.441  0.2860  0.5786  0.5093
 1407ANI     CH19690   0.632   0.743   6.358  0.1727 -0.2115 -0.4841
 1407ANI     NH19691   0.494   0.828   6.191  0.4927 -0.2472 -0.2123
 1407ANI     HC19692   0.353   0.610   6.218  0.6128  0.5720 -0.2909
 1407ANI     HC19693   0.409   0.422   6.373  1.0386 -0.8042  0.8973
 1407ANI     HC19694   0.606   0.446   6.527  0.1588 -0.3831 -0.5013
 1407ANI     HC19695   0.752   0.632   6.504  0.3675  3.0541  0.5476
 1407ANI     HC19696   0.694   0.832   6.356  1.1713 -0.8844  0.2958
 1407ANI     HN19697   0.457   0.802   6.100  0.1181  0.8823 -0.3822
 1407ANI     HN19698   0.581   0.874   6.173  0.9723 -0.4297  1.5324
 1408ANI     CN19699   4.008   2.846   4.821 -0.2418 -0.2057  0.1031
 1408ANI     CH19700   3.930   2.848   4.938  0.0291 -0.1008  0.2831
 1408ANI     CH19701   3.987   2.819   5.062  0.2098 -0.2164  0.1741
 1408ANI     CH19702   4.123   2.787   5.069  0.2559 -0.0210  0.1975
 1408ANI     CH19703   4.205   2.794   4.956  0.6681  0.4810  0.5280
 1408ANI     CH19704   4.145   2.821   4.833 -0.1478  0.6666  0.9617
 1408ANI     NH19705   3.944   2.863   4.704  0.5817  0.2303 -0.2843
 1408ANI     HC19706   3.822   2.856   4.933  0.1272  0.4845 -1.2076
 1408ANI     HC19707   3.925   2.807   5.150 -1.5023 -0.0398 -0.9741
 1408ANI     HC19708   4.168   2.767   5.165 -2.1832 -0.6934  1.2417
 1408ANI     HC19709   4.312   2.780   4.964  0.5529  0.0153  1.3072
 1408ANI     HC19710   4.216   2.810   4.752  0.4516 -0.1202  1.5895
 1408ANI     HN19711   3.972   2.818   4.619  2.6793  2.5329 -0.8762
 1408ANI     HN19712   3.850   2.830   4.721  0.5659 -0.4827 -1.7116
 1409ANI     CN19713   4.250   3.429   5.127 -0.7609  0.2035  0.2459
 1409ANI     CH19714   4.242   3.303   5.189  0.0258 -0.0361 -0.1257
 1409ANI     CH19715   4.220   3.189   5.111  1.0102 -0.0079 -0.4493
 1409ANI     CH19716   4.168   3.204   4.982 -1.0011 -0.3439  0.2987
 1409ANI     CH19717   4.155   3.330   4.924 -0.2836 -0.0523  0.7658
 1409ANI     CH19718   4.197   3.442   4.998 -0.5017  0.4321  0.1616
 1409ANI     NH19719   4.288   3.540   5.191  0.3159  0.1876 -0.3507
 1409ANI     HC19720   4.270   3.290   5.293  0.5801 -0.9037 -0.3808
 1409ANI     HC19721   4.221   3.087   5.145  1.4200 -0.7774 -2.6995
 1409ANI     HC19722   4.140   3.113   4.930  1.7376 -0.6802 -0.7140
 1409ANI     HC19723   4.123   3.349   4.823  1.1460 -1.4747  0.0272
 1409ANI     HC19724   4.192   3.540   4.954  1.3193  0.7580  0.6584
 1409ANI     HN19725   4.274   3.536   5.291  0.5448  1.3967 -0.2630
 1409ANI     HN19726   4.235   3.623   5.169  0.4845  0.1188 -1.0125
 1410ANI     CN19727   5.819   3.969   0.121  0.7243  0.4170  0.4141
 1410ANI     CH19728   5.824   3.855   0.202  0.4529  0.0515 -0.0847
 1410ANI     CH19729   5.912   3.749   0.174  0.2287 -0.1578 -0.0047
 1410ANI     CH19730   6.000   3.755   0.065  0.4395 -0.4044  0.1528
 1410ANI     CH19731   6.002   3.871  -0.013  0.3859 -0.1627  0.5057
 1410ANI     CH19732   5.915   3.976   0.020  0.1191 -0.1586 -0.1987
 1410ANI     NH19733   5.736   4.068   0.155 -0.3886 -0.1075 -0.7724
 1410ANI     HC19734   5.767   3.852   0.294  0.5435 -0.2217 -0.0372
 1410ANI     HC19735   5.929   3.663   0.236  2.0879 -0.6584 -1.1759
 1410ANI     HC19736   6.056   3.664   0.051  0.0134 -0.9918  2.0442
 1410ANI     HC19737   6.063   3.873  -0.102 -0.4314  0.0970 -0.0533
 1410ANI     HC19738   5.921   4.060  -0.048 -1.7628  1.0179  1.0528
 1410ANI     HN19739   5.791   4.150   0.177 -0.2522 -1.0074  2.4405
 1410ANI     HN19740   5.681   4.063   0.240 -0.7829  0.7830 -0.9724
 1411ANI     CN19741   5.230   2.246   4.093 -0.1239  0.2627  0.0506
 1411ANI     CH19742   5.117   2.325   4.115  0.3714  0.9591  0.1364
 1411ANI     CH19743   4.990   2.273   4.142  0.7897 -0.0880  0.1136
 1411ANI     CH19744   4.986   2.135   4.167  0.6808 -0.0852  0.1134
 1411ANI     CH19745   5.097   2.051   4.169  0.5675 -0.2421 -0.1406
 1411ANI     CH19746   5.217   2.112   4.129  0.3842  0.1888 -0.0304
 1411ANI     NH19747   5.350   2.303   4.073  0.2101 -0.5734 -0.3445
 1411ANI     HC19748   5.132   2.430   4.094  0.9698  0.5730 -1.3967
 1411ANI     HC19749   4.906   2.340   4.155 -0.3363 -2.2274  5.1234
 1411ANI     HC19750   4.886   2.098   4.185  1.2475 -1.1511  1.1452
 1411ANI     HC19751   5.090   1.946   4.195 -0.0129 -0.7664 -2.3078
 1411ANI     HC19752   5.304   2.049   4.139  2.6052  3.1167 -0.2539
 1411ANI     HN19753   5.409   2.252   4.138  0.2051  1.3032  1.1551
 1411ANI     HN19754   5.362   2.399   4.102 -1.4685 -0.4542  0.0079
 1412ANI     CN19755   1.097   1.041   0.707  0.3413  0.1105  0.5120
 1412ANI     CH19756   1.120   1.054   0.569 -0.0338 -0.4282  0.3987
 1412ANI     CH19757   1.116   1.178   0.503 -0.4213 -0.4657  0.3463
 1412ANI     CH19758   1.092   1.291   0.582 -0.0294  0.0931 -0.3264
 1412ANI     CH19759   1.063   1.285   0.719 -0.0694 -0.0184 -0.3389
 1412ANI     CH19760   1.070   1.158   0.778 -0.1349  0.2119  0.1655
 1412ANI     NH19761   1.109   0.922   0.766 -0.6960  0.1194  0.7367
 1412ANI     HC19762   1.143   0.972   0.503  2.1596 -2.2849  3.3419
 1412ANI     HC19763   1.137   1.180   0.397  0.0141 -1.8453  0.3931
 1412ANI     HC19764   1.089   1.387   0.533 -2.7694  0.6972  0.9421
 1412ANI     HC19765   1.039   1.380   0.766 -4.1342  0.6889 -3.5445
 1412ANI     HC19766   1.062   1.154   0.886  0.1855  1.1471  0.2372
 1412ANI     HN19767   1.148   0.932   0.859  0.7226  1.2508  0.0170
 1412ANI     HN19768   1.182   0.872   0.718 -0.8869 -0.5824  1.1575
 1413ANI     CN19769   5.495   4.173   1.784  0.4104  0.2511 -0.5264
 1413ANI     CH19770   5.403   4.270   1.823  0.0452 -0.0381 -0.6693
 1413ANI     CH19771   5.301   4.305   1.734 -0.2163  0.2425 -0.2631
 1413ANI     CH19772   5.295   4.249   1.606 -0.1727  0.3378 -0.3073
 1413ANI     CH19773   5.389   4.152   1.569  0.4329  0.8575 -0.1206
 1413ANI     CH19774   5.495   4.119   1.655  0.1327 -0.4339 -0.2430
 1413ANI     NH19775   5.595   4.138   1.867 -0.0150 -0.1747 -0.1883
 1413ANI     HC19776   5.406   4.322   1.918  1.0076 -0.4020 -0.4981
 1413ANI     HC19777   5.235   4.388   1.756 -1.4064  0.0301 -2.7695
 1413ANI     HC19778   5.224   4.279   1.529  0.6916 -0.0663 -1.2769
 1413ANI     HC19779   5.375   4.095   1.478 -1.2384  0.5021  0.3557
 1413ANI     HC19780   5.575   4.052   1.628  0.1447 -0.3876 -0.3182
 1413ANI     HN19781   5.576   4.171   1.961 -1.0343  0.1115 -0.4844
 1413ANI     HN19782   5.612   4.040   1.878 -1.0252 -0.1811  1.4531
 1414ANI     CN19783   3.486   0.535   2.510  0.0178  0.3112  0.3498
 1414ANI     CH19784   3.603   0.566   2.581  0.2215 -0.0341  0.1699
 1414ANI     CH19785   3.729   0.553   2.521  0.2626 -0.2046  0.2939
 1414ANI     CH19786   3.736   0.514   2.386  0.2270 -0.1280  0.2698
 1414ANI     CH19787   3.622   0.485   2.311  0.4378  0.5639 -0.3210
 1414ANI     CH19788   3.498   0.498   2.376  0.8059  0.0757  0.4834
 1414ANI     NH19789   3.362   0.537   2.559 -0.1583 -0.1010 -0.0717
 1414ANI     HC19790   3.600   0.597   2.684  0.4189  0.4279  0.0398
 1414ANI     HC19791   3.822   0.577   2.568  1.2433  0.5262 -1.9423
 1414ANI     HC19792   3.832   0.498   2.339 -0.0110 -0.7693  0.0031
 1414ANI     HC19793   3.619   0.458   2.206 -0.0471  3.4286 -1.0795
 1414ANI     HC19794   3.414   0.475   2.312  0.9912  1.2203 -0.1864
 1414ANI     HN19795   3.355   0.595   2.642  0.9253  1.8955 -1.3571
 1414ANI     HN19796   3.287   0.552   2.492 -0.2707  0.2915  0.1370
 1415ANI     CN19797   2.586   0.968   5.464  0.2667  0.4444 -0.0582
 1415ANI     CH19798   2.568   0.841   5.521  0.3889  0.4746  0.0456
 1415ANI     CH19799   2.641   0.802   5.634  0.8299 -0.0426 -0.4112
 1415ANI     CH19800   2.729   0.894   5.691  0.7332 -0.0829 -0.1960
 1415ANI     CH19801   2.751   1.021   5.636 -0.2749  0.3989  0.4745
 1415ANI     CH19802   2.680   1.055   5.520  0.3321  0.2959  0.0640
 1415ANI     NH19803   2.519   0.989   5.349 -0.3110  0.5861  0.3049
 1415ANI     HC19804   2.501   0.771   5.474  1.4773 -1.8475  1.8174
 1415ANI     HC19805   2.624   0.707   5.682  0.6904 -0.3827 -1.1298
 1415ANI     HC19806   2.770   0.873   5.789 -0.3834 -1.8592 -0.0934
 1415ANI     HC19807   2.810   1.096   5.687 -1.2742  2.3805 -1.1915
 1415ANI     HC19808   2.698   1.144   5.463 -3.3713  0.3001 -1.2120
 1415ANI     HN19809   2.522   0.910   5.286 -0.5693  1.4097 -0.7461
 1415ANI     HN19810   2.556   1.060   5.288 -0.9172 -1.4092 -2.4505
 1416ANI     CN19811   3.353   1.456   0.285  0.1551 -0.1476 -0.2739
 1416ANI     CH19812   3.279   1.337   0.293 -0.4080  0.2324  0.2256
 1416ANI     CH19813   3.140   1.341   0.285 -0.3976 -0.2716 -0.2895
 1416ANI     CH19814   3.071   1.462   0.275  0.3859  0.1159 -0.9278
 1416ANI     CH19815   3.148   1.579   0.285  0.3694 -0.0262  0.9560
 1416ANI     CH19816   3.288   1.579   0.296  0.4631  0.0122 -0.2275
 1416ANI     NH19817   3.486   1.446   0.299  0.2443  0.7214 -0.5149
 1416ANI     HC19818   3.336   1.245   0.291  0.4094  0.7483 -1.6682
 1416ANI     HC19819   3.089   1.246   0.298  1.4781 -1.3289 -0.6071
 1416ANI     HC19820   2.964   1.456   0.266  0.2511  0.7116  0.1701
 1416ANI     HC19821   3.101   1.675   0.303  1.6494  0.3948  2.1860
 1416ANI     HC19822   3.348   1.667   0.314  1.6343 -0.8138 -0.0569
 1416ANI     HN19823   3.522   1.507   0.371 -1.8135 -1.2859  2.3083
 1416ANI     HN19824   3.499   1.364   0.357  1.4605  0.5570 -1.0091
 1417ANI     CN19825   5.426   3.239   1.295 -0.0593 -0.3986  0.2248
 1417ANI     CH19826   5.372   3.364   1.265  0.0582 -0.2847  0.4876
 1417ANI     CH19827   5.246   3.401   1.315  0.1341  0.2335  0.2989
 1417ANI     CH19828   5.179   3.314   1.402 -0.2880 -0.0648 -0.3255
 1417ANI     CH19829   5.232   3.188   1.432  0.2511  0.2286 -0.0365
 1417ANI     CH19830   5.353   3.149   1.374 -0.1053 -0.6972 -0.1588
 1417ANI     NH19831   5.546   3.217   1.241 -0.1141 -0.0718 -0.0293
 1417ANI     HC19832   5.427   3.431   1.199  0.1321 -2.6724 -1.9554
 1417ANI     HC19833   5.217   3.504   1.298 -1.3693 -0.3082 -0.4043
 1417ANI     HC19834   5.087   3.353   1.443 -0.5122  2.8609 -3.3787
 1417ANI     HC19835   5.172   3.121   1.491  0.5640 -0.5326 -0.5788
 1417ANI     HC19836   5.395   3.051   1.392 -0.1466 -0.5869  0.5286
 1417ANI     HN19837   5.604   3.145   1.282  0.0938  1.1620  1.9285
 1417ANI     HN19838   5.601   3.294   1.205 -2.1450  0.4157 -2.1976
 1418ANI     CN19839   5.475   0.542   0.471  0.6024 -0.1020  0.3255
 1418ANI     CH19840   5.373   0.529   0.566 -0.0087  0.1977 -0.2783
 1418ANI     CH19841   5.248   0.481   0.526 -0.2457  0.4970  0.0977
 1418ANI     CH19842   5.224   0.444   0.393 -0.2325  0.3547  0.1346
 1418ANI     CH19843   5.333   0.451   0.304 -0.1315  0.1638  0.2438
 1418ANI     CH19844   5.459   0.504   0.337 -0.1603  0.1773  0.3364
 1418ANI     NH19845   5.588   0.602   0.509  0.4987  0.0854  0.3407
 1418ANI     HC19846   5.386   0.560   0.669 -1.2180  1.1701 -0.4174
 1418ANI     HC19847   5.176   0.467   0.605  1.8723 -0.3702  1.9166
 1418ANI     HC19848   5.135   0.397   0.356  0.7876  0.0030 -1.9853
 1418ANI     HC19849   5.324   0.398   0.211  0.6205  0.2663  0.1108
 1418ANI     HC19850   5.538   0.506   0.264  0.6486 -1.4210  1.1321
 1418ANI     HN19851   5.664   0.591   0.444  1.0555  1.7696  0.6825
 1418ANI     HN19852   5.620   0.595   0.605  0.1747  1.0989  0.5259
 1419ANI     CN19853   5.382   5.036   5.251  0.2028  0.1160 -0.0574
 1419ANI     CH19854   5.244   5.043   5.274  0.2379  0.1846  0.1374
 1419ANI     CH19855   5.186   4.985   5.388 -0.1959 -0.1573 -0.2530
 1419ANI     CH19856   5.263   4.915   5.481 -0.2624 -0.2691 -0.2829
 1419ANI     CH19857   5.401   4.921   5.463 -0.3041 -0.3006 -0.6154
 1419ANI     CH19858   5.461   4.977   5.350  0.2855  0.2875 -0.0209
 1419ANI     NH19859   5.437   5.104   5.149  0.6922 -0.1849  0.0095
 1419ANI     HC19860   5.175   5.094   5.208  0.6065 -1.4513 -1.5565
 1419ANI     HC19861   5.079   4.995   5.393 -0.1317 -0.3684  1.7887
 1419ANI     HC19862   5.216   4.876   5.571 -0.4177 -1.5308 -0.8945
 1419ANI     HC19863   5.466   4.881   5.540  1.4898  4.3442  0.4985
 1419ANI     HC19864   5.569   4.969   5.343 -0.0094 -3.2957 -1.8848
 1419ANI     HN19865   5.373   5.176   5.119 -0.7974 -0.9644  1.2611
 1419ANI     HN19866   5.520   5.150   5.184 -0.0698  1.7628 -0.7024
 1420ANI     CN19867   2.409   2.228   5.684  0.0346 -0.1459  0.4180
 1420ANI     CH19868   2.394   2.320   5.788  0.4048  0.5997 -0.1922
 1420ANI     CH19869   2.264   2.349   5.832 -0.0231 -0.8782 -0.4661
 1420ANI     CH19870   2.153   2.286   5.776 -0.4163 -0.4177 -0.2002
 1420ANI     CH19871   2.170   2.185   5.680  0.3406 -0.4438 -0.0337
 1420ANI     CH19872   2.300   2.154   5.638  0.3419 -0.2088 -0.2062
 1420ANI     NH19873   2.530   2.197   5.635 -0.5411 -0.3900 -0.8722
 1420ANI     HC19874   2.482   2.366   5.832  2.4624 -1.3194 -2.1470
 1420ANI     HC19875   2.251   2.409   5.920 -1.8980 -0.1455 -1.2283
 1420ANI     HC19876   2.057   2.319   5.815 -1.4061 -1.1016 -1.9945
 1420ANI     HC19877   2.086   2.129   5.644  0.0667 -0.4572  0.6269
 1420ANI     HC19878   2.320   2.087   5.555  2.6998 -0.4325  0.5196
 1420ANI     HN19879   2.602   2.217   5.703 -1.6903  1.3632 -0.1457
 1420ANI     HN19880   2.529   2.097   5.617 -2.3055 -0.1663 -2.0537
 1421ANI     CN19881   2.285   4.416   5.869 -0.2566 -0.1327 -0.4440
 1421ANI     CH19882   2.406   4.434   5.801 -0.2701 -0.3233 -0.5208
 1421ANI     CH19883   2.478   4.320   5.763 -0.2239 -0.3763 -0.2739
 1421ANI     CH19884   2.425   4.193   5.787 -0.4305 -0.3671 -0.6732
 1421ANI     CH19885   2.300   4.178   5.849  0.2648  0.0792  0.8654
 1421ANI     CH19886   2.224   4.291   5.881 -0.1815 -0.0921  0.4115
 1421ANI     NH19887   2.212   4.523   5.902 -0.8112 -0.7145  0.2457
 1421ANI     HC19888   2.449   4.533   5.792 -0.9847  0.0725  0.2928
 1421ANI     HC19889   2.573   4.341   5.716  0.2322 -0.4619  0.6023
 1421ANI     HC19890   2.480   4.104   5.761  2.2680  0.9497  0.3767
 1421ANI     HC19891   2.255   4.080   5.857  0.4163 -0.0019  0.7333
 1421ANI     HC19892   2.128   4.273   5.928  0.4810 -3.7828  0.5218
 1421ANI     HN19893   2.132   4.510   5.962 -0.8681  0.9653  0.5624
 1421ANI     HN19894   2.191   4.568   5.814  0.3332 -0.1307  0.2637
 1422ANI     CN19895   1.867   2.271   1.583  0.1566  0.0679 -0.2398
 1422ANI     CH19896   1.999   2.316   1.575  0.0509  0.4824  0.3536
 1422ANI     CH19897   2.028   2.434   1.646  0.9837  0.1591  0.5177
 1422ANI     CH19898   1.932   2.508   1.715  0.1976 -0.3709  0.0004
 1422ANI     CH19899   1.798   2.466   1.706 -0.0125  0.3909 -0.4083
 1422ANI     CH19900   1.765   2.348   1.638  0.2891  0.0634  0.0138
 1422ANI     NH19901   1.840   2.150   1.531 -0.3749  0.1446 -0.1471
 1422ANI     HC19902   2.078   2.257   1.532  1.1686  1.6939  0.7060
 1422ANI     HC19903   2.129   2.471   1.642  1.4600 -0.6863  3.4572
 1422ANI     HC19904   1.955   2.600   1.766  2.0393 -0.2366 -1.0677
 1422ANI     HC19905   1.721   2.516   1.763 -1.4290  0.9295 -2.6953
 1422ANI     HC19906   1.667   2.304   1.652  1.2837 -2.6860 -1.3997
 1422ANI     HN19907   1.778   2.089   1.582 -0.1496  0.3069  0.3280
 1422ANI     HN19908   1.923   2.093   1.520 -1.9117 -2.1577  0.0030
 1423ANI     CN19909   5.947   4.812   1.138 -0.1839 -0.4098  0.3657
 1423ANI     CH19910   5.953   4.943   1.089 -0.6179 -0.4668  0.1530
 1423ANI     CH19911   5.839   5.011   1.045 -0.0272  0.4978  0.0905
 1423ANI     CH19912   5.719   4.939   1.039  0.3656 -0.1355 -0.2223
 1423ANI     CH19913   5.710   4.807   1.085  0.2846  0.0119  0.1831
 1423ANI     CH19914   5.825   4.744   1.136 -0.0684 -0.6158  0.2110
 1423ANI     NH19915   6.046   4.746   1.200  0.2290  0.1351  0.2902
 1423ANI     HC19916   6.048   4.995   1.087 -0.5639 -0.5920 -0.7921
 1423ANI     HC19917   5.843   5.113   1.011  0.5483 -0.8748 -4.3681
 1423ANI     HC19918   5.627   4.989   1.015  0.6610  0.0836 -0.9253
 1423ANI     HC19919   5.617   4.752   1.082  0.6269 -0.5101 -1.0969
 1423ANI     HC19920   5.816   4.644   1.176  0.9473 -0.5375  0.6495
 1423ANI     HN19921   6.038   4.650   1.231  0.7421 -0.7544 -2.1623
 1423ANI     HN19922   6.109   4.795   1.262 -0.7425 -0.5632  1.8533
 1424ANI     CN19923   0.615   3.741   5.767  0.0423 -0.0779  0.7624
 1424ANI     CH19924   0.695   3.638   5.817  0.1285 -0.1210  0.5383
 1424ANI     CH19925   0.831   3.658   5.840  0.0931 -0.0113  0.6533
 1424ANI     CH19926   0.885   3.782   5.803 -0.2148  0.0086  0.2666
 1424ANI     CH19927   0.811   3.887   5.747 -0.4068 -0.2833 -0.0285
 1424ANI     CH19928   0.675   3.861   5.729 -0.3687 -0.2311 -0.3932
 1424ANI     NH19929   0.483   3.721   5.754  0.0638  0.5021 -0.4541
 1424ANI     HC19930   0.664   3.535   5.829  0.5822 -0.2946  0.2480
 1424ANI     HC19931   0.898   3.585   5.882  0.5939 -0.1560 -0.3760
 1424ANI     HC19932   0.991   3.800   5.816 -0.2338  0.6533 -0.4105
 1424ANI     HC19933   0.858   3.980   5.718  1.4206 -1.5501 -1.2655
 1424ANI     HC19934   0.615   3.937   5.681 -0.5763 -0.9017 -1.2053
 1424ANI     HN19935   0.433   3.779   5.688 -1.9264 -1.2869 -0.5911
 1424ANI     HN19936   0.460   3.628   5.721  0.9091 -0.3239  1.2258
 1425ANI     CN19937   3.888   5.281   4.425 -0.2469  0.0022 -0.1036
 1425ANI     CH19938   3.940   5.181   4.508 -0.6675  0.0795  0.2555
 1425ANI     CH19939   3.931   5.045   4.477  0.0971  0.1595 -0.3312
 1425ANI     CH19940   3.876   5.008   4.353 -0.4077 -0.2443  0.0094
 1425ANI     CH19941   3.826   5.105   4.266 -0.4993 -0.1203  0.2010
 1425ANI     CH19942   3.831   5.240   4.304 -0.1906 -0.0439 -0.1144
 1425ANI     NH19943   3.897   5.410   4.462  0.0279 -0.2191  0.6009
 1425ANI     HC19944   3.988   5.203   4.602 -0.2241  1.0337 -0.1902
 1425ANI     HC19945   3.977   4.970   4.538  1.0078  0.9804 -0.0058
 1425ANI     HC19946   3.872   4.907   4.317 -1.0854 -0.3804  0.4613
 1425ANI     HC19947   3.781   5.069   4.174 -0.8275 -0.4145  0.4724
 1425ANI     HC19948   3.786   5.308   4.233 -0.8116 -2.4061 -2.0653
 1425ANI     HN19949   3.894   5.425   4.562  1.3428 -0.9711  0.7692
 1425ANI     HN19950   3.814   5.453   4.426 -0.4708 -0.3778  1.5355
 1426ANI     CN19951   4.790   2.196   1.888 -0.3513  0.4599 -0.6656
 1426ANI     CH19952   4.661   2.240   1.919 -0.4563 -0.2807 -0.0470
 1426ANI     CH19953   4.554   2.151   1.927 -0.8206  0.1388 -0.2277
 1426ANI     CH19954   4.588   2.015   1.922  0.6601  0.5149 -0.3711
 1426ANI     CH19955   4.717   1.967   1.895  0.5254  0.1230 -0.3197
 1426ANI     CH19956   4.820   2.060   1.877  0.1755  0.5383 -0.2010
 1426ANI     NH19957   4.884   2.289   1.866  0.4399 -0.2324 -0.2069
 1426ANI     HC19958   4.638   2.344   1.937  0.5155 -0.2529  1.0473
 1426ANI     HC19959   4.460   2.188   1.966  0.2825 -0.0301  2.6274
 1426ANI     HC19960   4.520   1.933   1.937  0.8349  0.9727  3.3484
 1426ANI     HC19961   4.747   1.864   1.907  2.5528  0.7281 -0.0142
 1426ANI     HC19962   4.916   2.019   1.847 -0.1677 -0.2746 -0.2150
 1426ANI     HN19963   4.919   2.304   1.773  1.6328  0.0931  0.2747
 1426ANI     HN19964   4.849   2.378   1.896  0.8642 -0.3641  0.7196
 1427ANI     CN19965   3.956   4.040   4.214  0.2223  0.2646 -0.2106
 1427ANI     CH19966   3.973   4.133   4.111 -0.0493  0.1977 -0.3162
 1427ANI     CH19967   4.083   4.220   4.110  0.1079  0.0061  0.0791
 1427ANI     CH19968   4.174   4.209   4.216 -0.1932  0.1184  0.3489
 1427ANI     CH19969   4.152   4.120   4.321 -0.0675  0.1960  0.4397
 1427ANI     CH19970   4.048   4.026   4.319  0.1209 -0.0028 -0.1562
 1427ANI     NH19971   3.850   3.958   4.210 -0.1618  0.7625 -0.3146
 1427ANI     HC19972   3.915   4.135   4.020  0.5329 -0.9410 -0.7275
 1427ANI     HC19973   4.085   4.291   4.028  0.6302  1.0020  0.9495
 1427ANI     HC19974   4.254   4.281   4.221 -0.8997  0.8356  1.6428
 1427ANI     HC19975   4.230   4.116   4.395 -0.1323  1.7518  0.6059
 1427ANI     HC19976   4.041   3.945   4.390  2.8606  0.6274  0.8933
 1427ANI     HN19977   3.866   3.864   4.245  0.4556  1.1807  0.5486
 1427ANI     HN19978   3.834   3.945   4.112 -0.5869 -0.9256 -0.0410
 1428ANI     CN19979   4.161   3.900   0.408 -0.2693  0.0467 -0.0685
 1428ANI     CH19980   4.129   3.964   0.287 -0.4989  0.4690  0.2174
 1428ANI     CH19981   4.004   3.934   0.232  0.0291 -0.6764 -0.3739
 1428ANI     CH19982   3.907   3.857   0.298 -0.1008 -0.2065 -0.0101
 1428ANI     CH19983   3.938   3.799   0.421 -0.3010  0.4095  0.3327
 1428ANI     CH19984   4.066   3.822   0.474  0.0249 -0.3491 -0.1069
 1428ANI     NH19985   4.282   3.923   0.461 -0.2414  0.1351 -0.1694
 1428ANI     HC19986   4.210   4.013   0.235 -0.4564  1.5206  1.2495
 1428ANI     HC19987   3.983   3.981   0.136  0.9201  2.3363  0.8354
 1428ANI     HC19988   3.806   3.860   0.260 -0.4750 -2.8598  0.6924
 1428ANI     HC19989   3.876   3.723   0.466  0.7811 -1.0568 -0.6026
 1428ANI     HC19990   4.078   3.774   0.570  1.2900 -0.2756 -0.2281
 1428ANI     HN19991   4.278   3.930   0.561 -1.6545  0.2442 -0.2261
 1428ANI     HN19992   4.327   4.006   0.425  3.2650 -0.2946  2.9262
 1429ANI     CN19993   1.426   3.360   0.132 -0.3724 -0.3665 -0.0507
 1429ANI     CH19994   1.384   3.494   0.137 -0.0509 -0.2732  0.1861
 1429ANI     CH19995   1.254   3.532   0.103 -0.0530 -0.0572  0.4344
 1429ANI     CH19996   1.160   3.429   0.091  0.0704 -0.2268  0.9263
 1429ANI     CH19997   1.201   3.296   0.088 -0.3663 -0.3344 -0.4768
 1429ANI     CH19998   1.335   3.258   0.105 -0.3272 -0.2627 -0.6179
 1429ANI     NH19999   1.554   3.326   0.150 -0.2789 -0.2477 -0.4675
 1429ANI     HC20000   1.461   3.563   0.165  1.4848 -1.5337 -0.8647
 1429ANI     HC20001   1.229   3.637   0.093 -0.6348 -0.1097  1.2439
 1429ANI     HC20002   1.057   3.459   0.073  0.7385  1.0235 -0.9664
 1429ANI     HC20003   1.123   3.222   0.081 -0.2602 -0.5352  0.5015
 1429ANI     HC20004   1.357   3.152   0.111  1.3121  0.0391 -1.1115
 1429ANI     HN20005   1.558   3.231   0.183 -1.0819 -0.0486  0.2170
 1429ANI     HN20006   1.590   3.376   0.230  0.7055 -1.5392 -0.0751
 1430ANI     CN20007   3.859   2.406   0.826  0.3842  0.2653 -0.2711
 1430ANI     CH20008   3.732   2.464   0.836  0.1316 -0.3455  0.1129
 1430ANI     CH20009   3.663   2.498   0.720  0.4285  0.1237  0.0711
 1430ANI     CH20010   3.723   2.469   0.597 -0.0898 -0.1279 -0.1239
 1430ANI     CH20011   3.849   2.409   0.583 -0.0007  0.0526 -0.0907
 1430ANI     CH20012   3.915   2.375   0.701  0.0331 -0.4492 -0.2522
 1430ANI     NH20013   3.923   2.382   0.942  0.2959  0.6993 -0.1324
 1430ANI     HC20014   3.684   2.478   0.932 -1.8762  2.1152 -1.1909
 1430ANI     HC20015   3.568   2.549   0.717 -0.8741 -2.2836 -1.8396
 1430ANI     HC20016   3.681   2.507   0.505  0.9138  0.7690 -0.2160
 1430ANI     HC20017   3.886   2.387   0.484  1.2195 -2.4370  0.8755
 1430ANI     HC20018   4.006   2.319   0.694 -0.0310 -1.3427  4.4123
 1430ANI     HN20019   4.012   2.335   0.943  0.4600  1.0002 -0.5238
 1430ANI     HN20020   3.875   2.344   1.022  1.9487 -1.1712 -0.0105
 1431ANI     CN20021   3.975   4.650   2.093  0.1402 -0.2044 -0.4283
 1431ANI     CH20022   3.974   4.563   1.983 -0.2408 -0.2760 -0.3690
 1431ANI     CH20023   4.035   4.605   1.864  0.3263  0.0572  0.0387
 1431ANI     CH20024   4.082   4.737   1.856  0.1550  0.1353  0.3187
 1431ANI     CH20025   4.069   4.831   1.959 -0.2757  0.1708  0.2323
 1431ANI     CH20026   4.013   4.784   2.079 -0.6637  0.0758  0.0164
 1431ANI     NH20027   3.935   4.604   2.212  0.0828 -0.5721 -0.5880
 1431ANI     HC20028   3.937   4.462   1.989  0.0247 -0.5577 -2.9859
 1431ANI     HC20029   4.047   4.526   1.791 -1.3227 -0.6939  0.5591
 1431ANI     HC20030   4.126   4.772   1.764  0.5800 -1.2379 -0.0153
 1431ANI     HC20031   4.102   4.933   1.965 -1.2007  0.3572  3.0748
 1431ANI     HC20032   4.006   4.841   2.170 -2.0308  1.0581 -0.6731
 1431ANI     HN20033   3.950   4.507   2.234  0.9122 -0.4853 -0.7503
 1431ANI     HN20034   3.967   4.664   2.287  0.4773  1.4545 -2.3214
 1432ANI     CN20035   2.725   1.040   3.931  0.1552 -0.4883  0.3868
 1432ANI     CH20036   2.755   0.934   4.018  0.1254 -0.6063  0.2523
 1432ANI     CH20037   2.868   0.854   3.995  0.2303 -0.4137  0.1001
 1432ANI     CH20038   2.942   0.874   3.878 -0.0986  0.4316  0.0338
 1432ANI     CH20039   2.909   0.975   3.786  0.2460  0.5944  0.0912
 1432ANI     CH20040   2.800   1.058   3.815  0.1452  0.3213  0.5078
 1432ANI     NH20041   2.617   1.117   3.947  0.7599  0.5037 -0.2395
 1432ANI     HC20042   2.696   0.911   4.106 -0.6934 -0.4073 -0.2368
 1432ANI     HC20043   2.887   0.776   4.066  4.5727 -0.0656 -0.5496
 1432ANI     HC20044   3.029   0.816   3.851  0.4768  1.4690 -0.3706
 1432ANI     HC20045   2.974   0.997   3.702  1.6244 -2.3589  0.3106
 1432ANI     HC20046   2.777   1.151   3.765  2.4807  0.5860 -0.1453
 1432ANI     HN20047   2.619   1.215   3.924  0.4581  0.4085 -0.6774
 1432ANI     HN20048   2.591   1.108   4.045  0.1385  0.2545 -0.4252
 1433ANI     CN20049   1.259   3.280   1.112 -0.3347  0.2699 -0.1165
 1433ANI     CH20050   1.284   3.202   0.998  0.0333  0.1783  0.0261
 1433ANI     CH20051   1.213   3.222   0.879  0.0012  0.0894  0.0303
 1433ANI     CH20052   1.111   3.318   0.880 -0.0455  0.0417 -0.1162
 1433ANI     CH20053   1.086   3.397   0.993  0.2680  0.1339 -0.1134
 1433ANI     CH20054   1.158   3.377   1.111 -0.2063  0.4055  0.2223
 1433ANI     NH20055   1.338   3.252   1.216 -0.3460 -0.0752 -0.1977
 1433ANI     HC20056   1.360   3.126   0.997 -0.1163  0.0194  0.6291
 1433ANI     HC20057   1.231   3.160   0.793  0.1416 -0.3075  0.3468
 1433ANI     HC20058   1.045   3.336   0.796  0.3032  3.1450  0.2336
 1433ANI     HC20059   1.007   3.471   0.988  1.1491  1.0603 -0.6003
 1433ANI     HC20060   1.126   3.425   1.202 -1.5521 -1.7447  0.9044
 1433ANI     HN20061   1.291   3.265   1.305  1.6632  0.3439  0.8540
 1433ANI     HN20062   1.367   3.155   1.217 -1.9359 -0.5543  0.1961
 1434ANI     CN20063   3.743   5.867   3.963 -0.3561 -0.5790  0.0748
 1434ANI     CH20064   3.615   5.924   3.962 -0.3301 -0.5255 -0.1822
 1434ANI     CH20065   3.568   5.984   3.845  0.6310 -0.0591 -0.3381
 1434ANI     CH20066   3.637   5.984   3.724  0.8342  0.4173 -0.2253
 1434ANI     CH20067   3.770   5.941   3.732  0.7042  0.1482  0.4859
 1434ANI     CH20068   3.822   5.884   3.849  0.2419 -0.1547  0.5467
 1434ANI     NH20069   3.782   5.801   4.073  0.1218 -0.1957  0.1383
 1434ANI     HC20070   3.555   5.910   4.050 -0.2579 -1.5987 -0.2960
 1434ANI     HC20071   3.468   6.024   3.858 -0.2177 -2.9281  2.5045
 1434ANI     HC20072   3.601   6.027   3.631 -0.5545 -0.4081 -0.0924
 1434ANI     HC20073   3.839   5.960   3.651  0.3093 -0.1727  0.0711
 1434ANI     HC20074   3.920   5.839   3.841 -0.7555 -2.7927  2.3596
 1434ANI     HN20075   3.874   5.762   4.056  0.2859  0.3156 -0.1351
 1434ANI     HN20076   3.774   5.852   4.159 -0.0936 -0.2138  0.1282
 1435ANI     CN20077   2.773   4.273   3.905 -0.4225  0.0466 -0.1817
 1435ANI     CH20078   2.841   4.349   3.810 -0.1065  0.2406  0.1999
 1435ANI     CH20079   2.778   4.462   3.756  0.1213  0.0505 -0.4629
 1435ANI     CH20080   2.643   4.487   3.786  0.4669  0.8902  0.3812
 1435ANI     CH20081   2.572   4.407   3.875  0.3711  0.4551 -0.0831
 1435ANI     CH20082   2.637   4.296   3.930 -0.4018  0.0184 -0.0426
 1435ANI     NH20083   2.836   4.180   3.977 -0.1150  0.2606 -0.1733
 1435ANI     HC20084   2.947   4.335   3.795 -0.4295 -0.0914 -1.9790
 1435ANI     HC20085   2.839   4.521   3.690  1.3477 -1.1758 -0.4636
 1435ANI     HC20086   2.596   4.576   3.746  0.4160  0.4834 -0.4794
 1435ANI     HC20087   2.470   4.419   3.909 -0.4589  0.0898 -2.4098
 1435ANI     HC20088   2.579   4.245   4.006  2.3181 -0.4335  1.8167
 1435ANI     HN20089   2.915   4.149   3.923 -0.6152 -1.9839  0.3083
 1435ANI     HN20090   2.790   4.095   4.008  0.8062 -0.0676  0.3401
 1436ANI     CN20091   0.273   3.724   5.467  0.2344  0.0817  0.1042
 1436ANI     CH20092   0.275   3.821   5.366 -0.4992  0.0731  0.0741
 1436ANI     CH20093   0.218   3.947   5.391  0.1886  0.4003  0.0274
 1436ANI     CH20094   0.159   3.983   5.512 -0.6886 -0.4920 -0.1278
 1436ANI     CH20095   0.161   3.888   5.615 -0.5417 -0.0121  0.3144
 1436ANI     CH20096   0.226   3.766   5.592 -0.1921  0.2514 -0.1118
 1436ANI     NH20097   0.338   3.608   5.451  0.5343  0.2206  0.3128
 1436ANI     HC20098   0.323   3.805   5.270 -0.3603  0.7662  0.0184
 1436ANI     HC20099   0.242   4.020   5.316  2.9439 -0.7044 -0.2356
 1436ANI     HC20100   0.116   4.080   5.530  0.9872  0.3117 -0.4078
 1436ANI     HC20101   0.141   3.913   5.718  1.3203  0.0221  0.6972
 1436ANI     HC20102   0.217   3.699   5.677 -1.0529  1.8375  1.0710
 1436ANI     HN20103   0.313   3.571   5.361 -0.3949 -0.3019  0.7777
 1436ANI     HN20104   0.305   3.538   5.516  0.0057 -1.7584 -2.0197
 1437ANI     CN20105   5.368   5.702   2.098  0.1180 -0.4488  0.3869
 1437ANI     CH20106   5.406   5.624   1.988  0.7713 -0.1410  0.3932
 1437ANI     CH20107   5.516   5.672   1.915 -0.1468  0.4130 -0.6397
 1437ANI     CH20108   5.593   5.780   1.961  0.0672 -0.0358  0.0631
 1437ANI     CH20109   5.546   5.867   2.060  0.0633  0.2896 -0.2236
 1437ANI     CH20110   5.436   5.819   2.132  0.1588 -0.2320 -0.4197
 1437ANI     NH20111   5.275   5.655   2.182  0.0962 -0.5683  0.2972
 1437ANI     HC20112   5.351   5.537   1.956 -1.1907  0.9607  0.6761
 1437ANI     HC20113   5.544   5.613   1.829  1.5966  0.0964  0.1143
 1437ANI     HC20114   5.688   5.785   1.910 -1.2713 -0.9254 -2.6356
 1437ANI     HC20115   5.615   5.948   2.080  0.0355 -0.1014  1.5147
 1437ANI     HC20116   5.405   5.872   2.221  3.0809  1.5426 -0.3587
 1437ANI     HN20117   5.278   5.555   2.168 -0.6629 -0.4642 -0.6519
 1437ANI     HN20118   5.182   5.680   2.153  0.8910  0.9273 -1.0440
 1438ANI     CN20119   3.492   0.075   4.222 -0.3003 -0.1420  0.5430
 1438ANI     CH20120   3.528   0.049   4.089  0.0924  0.3604  0.5513
 1438ANI     CH20121   3.653  -0.008   4.060  0.1554  1.0409 -0.5403
 1438ANI     CH20122   3.742  -0.032   4.165 -0.3500 -0.3023 -0.4138
 1438ANI     CH20123   3.708  -0.002   4.298  0.0559  0.2661 -0.4398
 1438ANI     CH20124   3.583   0.055   4.326 -0.0516 -0.3360  0.2894
 1438ANI     NH20125   3.370   0.117   4.256 -0.4200 -0.0502  0.0061
 1438ANI     HC20126   3.451   0.054   4.014  1.5804  1.8703 -0.9407
 1438ANI     HC20127   3.669  -0.042   3.959  1.5447  0.6884 -0.2098
 1438ANI     HC20128   3.841  -0.068   4.139 -0.3170 -1.5523  1.3284
 1438ANI     HC20129   3.774  -0.025   4.380 -0.5883 -2.4887 -0.6686
 1438ANI     HC20130   3.560   0.077   4.429 -1.5861  1.4837 -0.4246
 1438ANI     HN20131   3.324   0.148   4.172  1.3051  0.9645 -0.5865
 1438ANI     HN20132   3.376   0.188   4.327 -0.7306 -0.8312  0.8306
 1439ANI     CN20133   2.281   3.139   5.582 -0.6548 -0.1258 -0.6588
 1439ANI     CH20134   2.269   3.258   5.509 -0.0818  0.0488 -0.4678
 1439ANI     CH20135   2.250   3.380   5.577 -0.3501 -0.4314  0.3276
 1439ANI     CH20136   2.258   3.387   5.716 -0.1212  0.2188  0.2808
 1439ANI     CH20137   2.270   3.269   5.790 -0.7136  0.1979  0.3488
 1439ANI     CH20138   2.285   3.148   5.721 -0.1165  0.8817 -0.7352
 1439ANI     NH20139   2.317   3.028   5.517 -0.2026 -0.2924 -0.1234
 1439ANI     HC20140   2.269   3.262   5.401 -1.3199 -0.0971 -0.4776
 1439ANI     HC20141   2.240   3.466   5.512 -1.8252 -1.3479 -0.6992
 1439ANI     HC20142   2.256   3.485   5.763  0.1501 -0.2716  1.3401
 1439ANI     HC20143   2.277   3.268   5.898  0.8633 -0.8609  0.2620
 1439ANI     HC20144   2.313   3.068   5.788 -0.3170  2.0050  0.7319
 1439ANI     HN20145   2.239   3.002   5.459  0.2459 -0.6891 -0.5595
 1439ANI     HN20146   2.334   2.956   5.586 -0.9175  1.0440  1.4557
 1440ANI     CN20147   4.123   4.088   3.652  0.0258  0.3298  0.2052
 1440ANI     CH20148   4.154   4.224   3.643  0.0015  0.3193 -0.0031
 1440ANI     CH20149   4.238   4.275   3.742  0.1110  0.1653 -0.0168
 1440ANI     CH20150   4.286   4.194   3.845 -0.0813 -0.1613 -0.1849
 1440ANI     CH20151   4.248   4.059   3.856 -0.6574  0.0376  0.2840
 1440ANI     CH20152   4.167   4.004   3.756  0.1483 -0.1838 -0.2590
 1440ANI     NH20153   4.044   4.031   3.560 -0.0980 -0.3820  0.7457
 1440ANI     HC20154   4.124   4.291   3.563 -0.4144 -0.0208 -0.1337
 1440ANI     HC20155   4.248   4.382   3.755 -1.4824  0.2500  0.5852
 1440ANI     HC20156   4.345   4.239   3.924 -0.2223 -0.8235  0.3047
 1440ANI     HC20157   4.287   3.989   3.928  1.2157 -1.7901 -2.3910
 1440ANI     HC20158   4.139   3.900   3.751 -0.8800  0.0811 -0.1699
 1440ANI     HN20159   4.056   3.936   3.527 -0.0061  0.2924 -1.2222
 1440ANI     HN20160   4.039   4.092   3.480 -0.2208 -2.8269 -1.1578
 1441ANI     CN20161   0.347   1.185   2.263 -0.0523  0.2236 -0.1507
 1441ANI     CH20162   0.421   1.067   2.248 -0.3662  0.0620 -0.4234
 1441ANI     CH20163   0.456   0.988   2.358 -0.5303  0.1440 -0.3126
 1441ANI     CH20164   0.411   1.032   2.483 -0.6724 -0.0113 -0.3083
 1441ANI     CH20165   0.335   1.148   2.502 -0.3393  0.1780 -0.1281
 1441ANI     CH20166   0.311   1.229   2.391 -0.1261  0.1958 -0.1618
 1441ANI     NH20167   0.320   1.263   2.157 -0.6744 -0.2187 -0.3198
 1441ANI     HC20168   0.463   1.044   2.151 -0.6474 -3.1385  0.1595
 1441ANI     HC20169   0.514   0.898   2.350  0.6421  0.9629 -1.2415
 1441ANI     HC20170   0.430   0.963   2.564 -0.8972  0.6395  0.3037
 1441ANI     HC20171   0.290   1.178   2.596 -0.5557 -0.3039 -0.0791
 1441ANI     HC20172   0.251   1.317   2.408  0.4212 -0.0043  3.0383
 1441ANI     HN20173   0.288   1.357   2.178 -0.2670 -0.0146 -0.6034
 1441ANI     HN20174   0.391   1.263   2.086 -0.7355  0.2697 -0.3863
 1442ANI     CN20175   3.332   4.359   1.054 -0.4255 -0.1233  0.3153
 1442ANI     CH20176   3.209   4.416   1.089 -0.5951  0.0489 -0.5514
 1442ANI     CH20177   3.097   4.337   1.066 -0.3174 -0.1088 -1.3847
 1442ANI     CH20178   3.101   4.200   1.037 -0.3583 -0.3283 -0.3837
 1442ANI     CH20179   3.226   4.144   1.006 -0.2930  0.2053 -1.1113
 1442ANI     CH20180   3.339   4.225   1.013 -0.2384  0.0514 -0.2350
 1442ANI     NH20181   3.452   4.418   1.062 -0.3451 -0.3007  0.4144
 1442ANI     HC20182   3.207   4.515   1.133  0.2949  0.3638 -1.2044
 1442ANI     HC20183   2.996   4.364   1.095 -0.3144 -0.4269 -1.0793
 1442ANI     HC20184   3.010   4.143   1.035 -0.1920 -0.5841 -0.7648
 1442ANI     HC20185   3.234   4.036   1.004 -0.9910  0.1187  0.1742
 1442ANI     HC20186   3.437   4.181   1.013 -0.4115 -0.5209  3.7598
 1442ANI     HN20187   3.523   4.372   1.006 -1.7366 -0.1500 -1.4959
 1442ANI     HN20188   3.449   4.517   1.039 -3.4807 -0.9753 -2.3373
 1443ANI     CN20189   3.884   3.630   4.008  0.7471  0.1174  0.7446
 1443ANI     CH20190   3.999   3.705   3.983  0.1061  0.8521 -0.0310
 1443ANI     CH20191   4.096   3.722   4.083  0.0655  0.3248  0.0974
 1443ANI     CH20192   4.074   3.664   4.209  0.2457 -0.1608 -0.0928
 1443ANI     CH20193   3.956   3.592   4.233  0.2706 -0.0734  0.2891
 1443ANI     CH20194   3.863   3.568   4.132  0.3466 -0.5644  0.3374
 1443ANI     NH20195   3.787   3.626   3.915  0.6629 -0.5337  0.8583
 1443ANI     HC20196   4.021   3.757   3.891 -0.9890 -1.6823 -1.7688
 1443ANI     HC20197   4.190   3.770   4.060 -0.1092  0.7411  0.2408
 1443ANI     HC20198   4.145   3.690   4.286 -1.2218  0.4188  1.0778
 1443ANI     HC20199   3.938   3.547   4.329  0.6385  0.4577  0.6128
 1443ANI     HC20200   3.769   3.514   4.133 -0.3863  0.5604 -2.2102
 1443ANI     HN20201   3.698   3.594   3.950  0.6248 -1.6642 -0.2422
 1443ANI     HN20202   3.781   3.710   3.860 -3.4279 -1.4419 -0.2672
 1444ANI     CN20203   2.217   1.088   3.080  0.2801  0.1728  0.3723
 1444ANI     CH20204   2.308   1.044   2.982  0.2523  0.2397  0.3165
 1444ANI     CH20205   2.279   1.052   2.845 -0.1178  0.8086  0.4240
 1444ANI     CH20206   2.149   1.081   2.805  0.0487  0.3476 -0.4518
 1444ANI     CH20207   2.054   1.121   2.900 -0.1266 -0.9296 -0.0748
 1444ANI     CH20208   2.089   1.125   3.036  0.3335 -0.3212 -0.2069
 1444ANI     NH20209   2.252   1.103   3.208  0.2737  0.7501  0.3075
 1444ANI     HC20210   2.408   1.014   3.008  0.7562  0.1238 -1.6595
 1444ANI     HC20211   2.357   1.024   2.776 -0.8110  1.2653 -0.5516
 1444ANI     HC20212   2.120   1.086   2.701  1.7350 -0.8039 -0.9921
 1444ANI     HC20213   1.964   1.168   2.864 -0.2261 -1.6644 -0.7920
 1444ANI     HC20214   2.008   1.167   3.092  0.4997  0.8061 -0.7866
 1444ANI     HN20215   2.339   1.064   3.242 -1.2641 -1.4859  1.7912
 1444ANI     HN20216   2.182   1.066   3.269 -1.6328  0.7375 -1.8297
 1445ANI     CN20217   5.535   4.614   4.535  0.1464  0.1534 -0.9521
 1445ANI     CH20218   5.409   4.612   4.475 -0.4374  0.1699  0.2412
 1445ANI     CH20219   5.372   4.510   4.386 -0.1439  0.1523  0.1407
 1445ANI     CH20220   5.464   4.406   4.363  0.3551  0.6784 -0.2547
 1445ANI     CH20221   5.585   4.399   4.433 -0.1772 -0.2173  0.5851
 1445ANI     CH20222   5.618   4.503   4.520  0.1093 -0.0466  0.2742
 1445ANI     NH20223   5.573   4.718   4.610  0.1811 -0.5718  0.0464
 1445ANI     HC20224   5.350   4.700   4.496  3.3157  2.9200 -0.2687
 1445ANI     HC20225   5.277   4.516   4.335  0.7706  0.5724 -1.5552
 1445ANI     HC20226   5.446   4.322   4.297  2.1385  0.1966 -0.1387
 1445ANI     HC20227   5.658   4.323   4.408 -0.5030  0.1917 -1.7493
 1445ANI     HC20228   5.717   4.489   4.563 -0.0447  3.0332  1.7870
 1445ANI     HN20229   5.496   4.727   4.675 -1.9709 -2.7755 -2.1232
 1445ANI     HN20230   5.645   4.689   4.675 -0.9144 -3.8571 -0.1251
 1446ANI     CN20231   5.211   5.277   2.697 -0.1515 -0.4529 -0.4266
 1446ANI     CH20232   5.131   5.338   2.600  0.0169  0.4032 -0.0361
 1446ANI     CH20233   4.994   5.312   2.597  0.0802  0.0930 -0.3507
 1446ANI     CH20234   4.932   5.233   2.694  0.5624 -0.5566 -0.5759
 1446ANI     CH20235   5.012   5.175   2.793  0.3583  0.1259 -0.0073
 1446ANI     CH20236   5.151   5.189   2.789  0.4114 -0.3493  0.0469
 1446ANI     NH20237   5.344   5.290   2.688 -0.1753  0.2514  0.1408
 1446ANI     HC20238   5.176   5.388   2.515 -0.2179 -2.1451 -1.7246
 1446ANI     HC20239   4.925   5.342   2.519  0.0635  0.4927 -0.1864
 1446ANI     HC20240   4.826   5.213   2.690  0.3751  0.1359  0.7045
 1446ANI     HC20241   4.963   5.107   2.862 -1.4103  0.6722 -0.7106
 1446ANI     HC20242   5.213   5.130   2.854 -0.3478  0.3812  1.4382
 1446ANI     HN20243   5.374   5.304   2.592 -0.9741  0.0840 -0.1409
 1446ANI     HN20244   5.403   5.226   2.739  0.6768  0.5171 -0.4912
 1447ANI     CN20245   2.032   0.966   5.876 -0.1785  0.1065 -0.2365
 1447ANI     CH20246   2.041   1.019   5.747  0.4733  0.5036 -0.0282
 1447ANI     CH20247   1.956   0.979   5.643  0.3695  0.2728  0.1461
 1447ANI     CH20248   1.858   0.882   5.669  0.0412  0.5260 -0.1447
 1447ANI     CH20249   1.848   0.825   5.797  0.3032  0.7970 -0.0029
 1447ANI     CH20250   1.930   0.873   5.900 -0.0538  0.1735  0.5744
 1447ANI     NH20251   2.102   1.016   5.979 -0.4683 -0.3986  0.2037
 1447ANI     HC20252   2.110   1.100   5.727  0.4300  0.4100 -0.5643
 1447ANI     HC20253   1.955   1.021   5.544  0.5830 -0.2048 -0.0620
 1447ANI     HC20254   1.800   0.828   5.596  2.0486 -3.6495  1.1803
 1447ANI     HC20255   1.778   0.744   5.811  1.4145  0.1455  1.9304
 1447ANI     HC20256   1.921   0.841   6.002 -0.0118 -0.1662  0.4733
 1447ANI     HN20257   2.152   1.100   5.959  1.1633 -0.9239  1.9191
 1447ANI     HN20258   2.045   1.037   6.060 -0.2840 -0.8083  0.4437
 1448ANI     CN20259   5.754   4.375   0.316  0.1906 -0.1599 -0.9169
 1448ANI     CH20260   5.864   4.461   0.327  0.0232 -0.0656  0.0713
 1448ANI     CH20261   5.859   4.584   0.262 -0.9516 -0.1454 -0.0064
 1448ANI     CH20262   5.744   4.619   0.190 -0.7436  0.3415 -0.1089
 1448ANI     CH20263   5.634   4.532   0.184 -0.5090 -0.0070  0.6014
 1448ANI     CH20264   5.635   4.409   0.251 -0.0763 -0.7303 -0.7340
 1448ANI     NH20265   5.762   4.255   0.376  0.4506 -0.1271 -0.8851
 1448ANI     HC20266   5.951   4.429   0.382 -1.8690 -2.8032  1.6048
 1448ANI     HC20267   5.933   4.659   0.284 -1.4350  0.4140 -0.2553
 1448ANI     HC20268   5.725   4.715   0.144  0.3437  0.9472  0.6938
 1448ANI     HC20269   5.553   4.568   0.121  1.5408  1.4811 -1.2710
 1448ANI     HC20270   5.544   4.352   0.253 -0.7254  0.3197  0.0152
 1448ANI     HN20271   5.671   4.229   0.411  0.4829 -0.6418 -1.1807
 1448ANI     HN20272   5.821   4.264   0.458 -0.1467 -4.6976  0.1856
 1449ANI     CN20273   3.578   5.873   0.918  0.3108 -0.0995 -0.2254
 1449ANI     CH20274   3.486   5.975   0.886  0.3019 -0.0614 -0.0789
 1449ANI     CH20275   3.471   6.005   0.750  0.0010 -0.0790 -0.0480
 1449ANI     CH20276   3.545   5.946   0.647  0.0150  0.0867 -0.1332
 1449ANI     CH20277   3.638   5.848   0.684 -0.3461 -0.2994 -0.2435
 1449ANI     CH20278   3.654   5.812   0.818  0.1059 -0.2591 -0.2851
 1449ANI     NH20279   3.585   5.839   1.047  0.7436 -0.2498 -0.2880
 1449ANI     HC20280   3.443   6.033   0.965 -1.9851 -0.9431 -0.6354
 1449ANI     HC20281   3.411   6.091   0.723  0.0089 -0.4160 -1.1578
 1449ANI     HC20282   3.541   5.972   0.542 -0.6920  1.8686  0.3092
 1449ANI     HC20283   3.694   5.799   0.605 -1.1057  0.3211 -1.1857
 1449ANI     HC20284   3.714   5.727   0.847 -0.1208  0.4649  2.4682
 1449ANI     HN20285   3.524   5.877   1.118  2.8693  2.5263  0.1150
 1449ANI     HN20286   3.670   5.801   1.086 -0.6500 -1.7498  1.3752
 1450ANI     CN20287   5.705   4.235   1.176  0.2499 -0.0788  0.0557
 1450ANI     CH20288   5.772   4.348   1.126 -0.1489  0.2888  0.3518
 1450ANI     CH20289   5.883   4.332   1.043 -0.4439 -0.0892  0.0280
 1450ANI     CH20290   5.933   4.203   1.023 -0.1854 -0.0478  0.4202
 1450ANI     CH20291   5.864   4.090   1.069  0.8556 -0.2801  1.4520
 1450ANI     CH20292   5.748   4.105   1.146  0.2147 -0.1892  0.4766
 1450ANI     NH20293   5.601   4.257   1.257  0.1774 -0.1202 -0.0255
 1450ANI     HC20294   5.740   4.447   1.154  2.9317  0.6545  2.8490
 1450ANI     HC20295   5.947   4.411   1.006 -0.1376 -0.1308  0.4708
 1450ANI     HC20296   6.027   4.199   0.970  0.0254  0.5021  0.7466
 1450ANI     HC20297   5.913   3.996   1.051  1.0421  0.0956 -0.1048
 1450ANI     HC20298   5.708   4.016   1.191  0.6838 -0.3823  0.5131
 1450ANI     HN20299   5.629   4.218   1.347  2.6587 -1.1637 -1.2017
 1450ANI     HN20300   5.580   4.355   1.270  2.0697  0.3775 -0.6192
 1451ANI     CN20301   0.464   4.433   1.333 -0.6674  0.0021 -0.0862
 1451ANI     CH20302   0.514   4.564   1.323 -0.4612 -0.0476  0.2916
 1451ANI     CH20303   0.442   4.670   1.379  0.0407  0.3471  0.1886
 1451ANI     CH20304   0.329   4.637   1.456  0.0678 -0.0484  0.0609
 1451ANI     CH20305   0.290   4.506   1.485  0.0835 -0.0035  0.2875
 1451ANI     CH20306   0.358   4.402   1.420 -0.0911 -0.2634  0.5208
 1451ANI     NH20307   0.521   4.333   1.265 -0.3102  0.3444 -0.2865
 1451ANI     HC20308   0.589   4.585   1.249 -2.1507 -1.1942 -1.8152
 1451ANI     HC20309   0.473   4.770   1.350  0.0806  0.3380  0.1990
 1451ANI     HC20310   0.271   4.714   1.504  1.1105  0.4935  0.4710
 1451ANI     HC20311   0.199   4.484   1.539 -0.0933 -0.5990 -0.2464
 1451ANI     HC20312   0.326   4.301   1.439  0.0232 -0.3212  0.4121
 1451ANI     HN20313   0.620   4.351   1.254 -0.1850 -0.0512  0.2044
 1451ANI     HN20314   0.511   4.238   1.297  1.4435  0.0484 -0.5570
 1452ANI     CN20315   5.466   3.000   1.994  0.3707 -0.1127  0.1513
 1452ANI     CH20316   5.483   2.909   1.889  0.8131  0.3303 -0.1654
 1452ANI     CH20317   5.405   2.911   1.772  0.1612 -0.3698  0.2505
 1452ANI     CH20318   5.315   3.016   1.751  0.3028 -0.2231  0.3708
 1452ANI     CH20319   5.308   3.115   1.850  0.3052  0.1064  0.0411
 1452ANI     CH20320   5.384   3.110   1.967  0.3326 -0.1748  0.0107
 1452ANI     NH20321   5.532   2.994   2.110  0.0585 -0.0399  0.3323
 1452ANI     HC20322   5.548   2.825   1.910 -1.3344 -1.6295 -1.1066
 1452ANI     HC20323   5.418   2.830   1.703 -1.7654  0.3943 -1.0359
 1452ANI     HC20324   5.256   3.015   1.661  1.2703 -0.1819 -0.2692
 1452ANI     HC20325   5.252   3.201   1.816  0.1928 -0.3548 -0.9663
 1452ANI     HC20326   5.377   3.187   2.042  1.5384 -0.4147  0.3888
 1452ANI     HN20327   5.552   2.901   2.145 -0.6153 -0.3514 -0.1232
 1452ANI     HN20328   5.488   3.051   2.181 -0.9866 -0.1929 -0.1963
 1453ANI     CN20329   3.942   2.014   3.693  0.4814 -0.0383  0.4462
 1453ANI     CH20330   3.850   1.916   3.656 -0.1643  0.6302  0.2558
 1453ANI     CH20331   3.789   1.914   3.530  0.1199  0.0677  0.1237
 1453ANI     CH20332   3.820   2.017   3.441  0.5713  0.0004  0.2013
 1453ANI     CH20333   3.918   2.112   3.470 -0.1580  0.7331  0.2873
 1453ANI     CH20334   3.974   2.113   3.599  0.1084 -0.1686  0.1810
 1453ANI     NH20335   3.986   2.006   3.819  0.7454  0.3878  0.3843
 1453ANI     HC20336   3.829   1.833   3.722  0.7169  0.2094  0.0206
 1453ANI     HC20337   3.724   1.833   3.498  0.7457 -0.7249  0.8242
 1453ANI     HC20338   3.780   2.021   3.341 -1.3054 -1.4117  0.8618
 1453ANI     HC20339   3.945   2.189   3.399 -0.3291  1.9488  1.5064
 1453ANI     HC20340   4.048   2.187   3.626  0.9733 -1.1725  0.5896
 1453ANI     HN20341   3.917   1.990   3.891 -1.7032 -3.4495 -2.6044
 1453ANI     HN20342   4.037   2.088   3.846 -0.0413  0.7703  0.7240
 1454ANI     CN20343   4.833   5.892   2.690 -0.4625 -0.1123  0.2475
 1454ANI     CH20344   4.900   5.792   2.762  0.1535  0.1823  0.0906
 1454ANI     CH20345   4.865   5.657   2.749  0.3944  0.1297  0.0047
 1454ANI     CH20346   4.761   5.620   2.663  0.0211  0.6217  0.2427
 1454ANI     CH20347   4.704   5.721   2.584 -0.3348 -0.0518 -0.3699
 1454ANI     CH20348   4.733   5.857   2.598 -0.0493 -0.1298 -0.1969
 1454ANI     NH20349   4.868   6.020   2.706  0.0688 -0.2114 -0.1126
 1454ANI     HC20350   4.970   5.814   2.841  0.4457  0.4646 -0.2473
 1454ANI     HC20351   4.913   5.580   2.808  2.2882  0.1065 -1.5023
 1454ANI     HC20352   4.731   5.517   2.648 -0.0287  0.6912 -0.1491
 1454ANI     HC20353   4.625   5.696   2.516 -0.4033 -0.9326  0.0300
 1454ANI     HC20354   4.688   5.928   2.531  0.9438  0.3019 -0.4187
 1454ANI     HN20355   4.900   6.042   2.800  0.0563  1.6605 -0.5208
 1454ANI     HN20356   4.785   6.072   2.683  0.2132 -0.1600 -0.5239
 1455ANI     CN20357   6.270   2.616   4.906  0.1290  0.2216 -0.2040
 1455ANI     CH20358   6.290   2.735   4.834 -0.3415  0.2220 -0.3332
 1455ANI     CH20359   6.421   2.766   4.797 -0.0241 -0.1169  0.5010
 1455ANI     CH20360   6.529   2.681   4.824  0.3920  0.2010 -0.1597
 1455ANI     CH20361   6.501   2.560   4.889 -0.2537  0.4863  0.0965
 1455ANI     CH20362   6.372   2.522   4.925 -0.1394 -0.0336 -0.0431
 1455ANI     NH20363   6.146   2.593   4.949  0.2158  0.1392 -0.0018
 1455ANI     HC20364   6.206   2.800   4.813 -0.3835 -0.0817 -1.1151
 1455ANI     HC20365   6.439   2.859   4.746 -1.3678 -0.6608 -0.9967
 1455ANI     HC20366   6.628   2.711   4.793  0.2763  0.0907 -0.6287
 1455ANI     HC20367   6.577   2.487   4.912 -0.1462  0.4400 -0.4010
 1455ANI     HC20368   6.355   2.422   4.962 -2.4351  0.9197  1.5866
 1455ANI     HN20369   6.070   2.646   4.911  0.2680  1.5617  1.8043
 1455ANI     HN20370   6.123   2.494   4.942 -0.0178  0.1661  0.3569
 1456ANI     CN20371   1.731   0.456   2.674 -0.3890 -0.4146 -0.6580
 1456ANI     CH20372   1.712   0.563   2.585 -0.7447  0.1977  0.1487
 1456ANI     CH20373   1.798   0.581   2.476 -0.3658 -0.3049  0.3673
 1456ANI     CH20374   1.906   0.493   2.459  0.0621  0.3343 -0.2252
 1456ANI     CH20375   1.930   0.395   2.556 -0.1558  0.1515 -0.3571
 1456ANI     CH20376   1.845   0.376   2.666 -0.1186 -0.0631 -0.3657
 1456ANI     NH20377   1.641   0.437   2.770  0.2330  0.4234  0.1022
 1456ANI     HC20378   1.632   0.633   2.604  0.1781  1.0980  0.7961
 1456ANI     HC20379   1.786   0.656   2.400  0.6013  0.7636  1.2450
 1456ANI     HC20380   1.973   0.517   2.377  1.0242  2.9498  1.2485
 1456ANI     HC20381   2.014   0.328   2.547 -0.4397 -0.6054  2.2670
 1456ANI     HC20382   1.862   0.296   2.736 -1.1634 -1.1173 -1.2829
 1456ANI     HN20383   1.614   0.510   2.834 -0.8040  0.9691 -0.9422
 1456ANI     HN20384   1.660   0.354   2.825 -0.4587  0.3905  0.2997
 1457ANI     CN20385   5.353   6.241   0.467  0.4411 -0.0860 -0.4982
 1457ANI     CH20386   5.397   6.174   0.582 -0.2685 -0.1201 -0.2440
 1457ANI     CH20387   5.462   6.241   0.686  0.0184  0.2498 -0.6547
 1457ANI     CH20388   5.474   6.380   0.677  0.3653  0.2544 -0.1724
 1457ANI     CH20389   5.440   6.449   0.561 -0.0626  0.0430 -0.1744
 1457ANI     CH20390   5.384   6.377   0.455  0.6307 -0.1228 -0.4310
 1457ANI     NH20391   5.297   6.172   0.367 -0.1015 -0.0236 -0.2367
 1457ANI     HC20392   5.387   6.067   0.585  0.2238 -0.1281  1.5478
 1457ANI     HC20393   5.503   6.184   0.769 -0.7690  1.1265  0.3452
 1457ANI     HC20394   5.514   6.429   0.764 -1.8372  1.2333  0.3238
 1457ANI     HC20395   5.433   6.557   0.562 -2.4992 -0.0829 -0.4359
 1457ANI     HC20396   5.367   6.449   0.375  1.4390 -0.6549 -1.0936
 1457ANI     HN20397   5.277   6.233   0.289  0.4708  0.4836  0.0143
 1457ANI     HN20398   5.347   6.095   0.325 -1.1954  0.6566 -2.8996
 1458ANI     CN20399   5.088   5.880   3.740 -0.1746  0.4060  0.4400
 1458ANI     CH20400   5.035   5.764   3.684  0.3139  0.4311 -0.0819
 1458ANI     CH20401   5.000   5.755   3.549 -0.1277  0.0607  0.0518
 1458ANI     CH20402   5.019   5.871   3.473 -0.6800  0.3983  0.4269
 1458ANI     CH20403   5.065   5.992   3.527 -0.2843  0.3802  0.1416
 1458ANI     CH20404   5.109   5.993   3.660  0.5496 -0.1324 -0.1314
 1458ANI     NH20405   5.124   5.889   3.869  0.2500 -0.1996  0.3654
 1458ANI     HC20406   5.009   5.677   3.744 -0.1481  0.4757 -0.2145
 1458ANI     HC20407   4.960   5.663   3.508  1.1710 -0.2953 -0.4402
 1458ANI     HC20408   4.985   5.864   3.371  0.3650  1.6420 -0.0323
 1458ANI     HC20409   5.063   6.077   3.461  1.5436 -0.8002 -1.4632
 1458ANI     HC20410   5.150   6.084   3.701 -0.0984  0.4205 -0.6984
 1458ANI     HN20411   5.141   5.983   3.903 -1.1401  0.3376 -0.3676
 1458ANI     HN20412   5.048   5.848   3.922 -0.8486 -0.2706 -1.2055
 1459ANI     CN20413   1.240   5.382   0.633  0.1097  0.3773  0.1441
 1459ANI     CH20414   1.155   5.471   0.566 -0.1246  0.2818  0.3194
 1459ANI     CH20415   1.018   5.442   0.553 -0.0328 -0.1449  0.2987
 1459ANI     CH20416   0.967   5.322   0.605  0.3177 -0.0755  0.8075
 1459ANI     CH20417   1.051   5.242   0.683 -0.0747 -0.8830  0.4065
 1459ANI     CH20418   1.189   5.265   0.689 -0.2850  0.4948  0.0333
 1459ANI     NH20419   1.371   5.398   0.608 -0.0075 -0.0160 -0.7460
 1459ANI     HC20420   1.192   5.564   0.526  1.1941 -0.8844 -1.2429
 1459ANI     HC20421   0.964   5.511   0.490 -0.5538 -0.5120  0.3358
 1459ANI     HC20422   0.863   5.300   0.586  0.6255 -1.6608  0.9268
 1459ANI     HC20423   1.010   5.149   0.721  2.6675 -0.9038  3.6018
 1459ANI     HC20424   1.257   5.201   0.744 -1.0150  0.9224  1.4869
 1459ANI     HN20425   1.422   5.351   0.682 -0.7490 -0.2798 -0.4022
 1459ANI     HN20426   1.394   5.496   0.614  0.8869 -0.2659  0.1247
 1460ANI     CN20427   6.214   2.556   3.722 -0.1126 -0.3231  0.2965
 1460ANI     CH20428   6.208   2.436   3.650 -0.3053 -0.3034  0.2797
 1460ANI     CH20429   6.116   2.416   3.546  0.4006  0.1710 -0.4321
 1460ANI     CH20430   6.020   2.516   3.528  0.3447  0.1802 -0.0812
 1460ANI     CH20431   6.034   2.640   3.592 -0.1562  0.0475  0.2876
 1460ANI     CH20432   6.130   2.664   3.690  0.2386 -0.1540 -0.0487
 1460ANI     NH20433   6.305   2.572   3.819  0.0280 -0.5017  0.1940
 1460ANI     HC20434   6.279   2.357   3.671  1.5212  1.4093  0.6067
 1460ANI     HC20435   6.119   2.320   3.497 -1.4803 -1.1235  1.8918
 1460ANI     HC20436   5.954   2.518   3.443 -0.5028  0.7574  0.5849
 1460ANI     HC20437   5.986   2.733   3.563  0.9737  0.6677  0.4058
 1460ANI     HC20438   6.141   2.759   3.740 -1.1141  0.6717 -1.3097
 1460ANI     HN20439   6.263   2.608   3.903  0.5054  0.2304  0.1123
 1460ANI     HN20440   6.333   2.475   3.831  0.0928 -0.3958  0.8833
 1461ANI     CN20441   3.143   1.111   1.293 -0.1945  0.0528 -0.3403
 1461ANI     CH20442   3.223   1.006   1.340 -0.8090 -0.2427  0.0484
 1461ANI     CH20443   3.173   0.875   1.339 -0.2161 -0.4713 -0.2172
 1461ANI     CH20444   3.039   0.855   1.304 -0.2740 -0.2811 -0.1050
 1461ANI     CH20445   2.962   0.962   1.256  0.3614  0.1068 -0.2612
 1461ANI     CH20446   3.013   1.092   1.246 -0.2121  0.3198 -0.3970
 1461ANI     NH20447   3.179   1.236   1.323  0.3796  0.0034 -0.7986
 1461ANI     HC20448   3.322   1.036   1.373 -0.9855 -1.5647  1.8378
 1461ANI     HC20449   3.239   0.795   1.368  1.3096  0.9132  0.1983
 1461ANI     HC20450   2.992   0.758   1.316  0.0603 -0.6579 -1.7756
 1461ANI     HC20451   2.859   0.950   1.226 -0.1163 -0.9946  1.7278
 1461ANI     HC20452   2.960   1.173   1.197  0.5313 -0.1862 -2.0817
 1461ANI     HN20453   3.239   1.239   1.405 -0.5302 -1.6067 -0.0481
 1461ANI     HN20454   3.113   1.312   1.324 -0.5407 -0.7898 -0.5833
 1462ANI     CN20455   1.032   6.129   0.106 -0.0486  0.7650  0.5431
 1462ANI     CH20456   1.053   6.026   0.198  0.1011  0.1936 -0.1244
 1462ANI     CH20457   0.946   5.961   0.260  0.2292  0.1394  0.0412
 1462ANI     CH20458   0.817   6.003   0.227  0.0109 -0.4270  0.1685
 1462ANI     CH20459   0.796   6.107   0.135  0.0600 -0.1645  0.4518
 1462ANI     CH20460   0.903   6.170   0.072 -0.1943  0.0588  0.2448
 1462ANI     NH20461   1.140   6.193   0.058  0.0164 -0.1113 -0.4833
 1462ANI     HC20462   1.150   5.995   0.234 -0.3178 -1.1616 -0.1489
 1462ANI     HC20463   0.962   5.875   0.323  1.3413  1.5665  1.7709
 1462ANI     HC20464   0.733   5.951   0.270 -0.4089 -1.1074 -1.4506
 1462ANI     HC20465   0.696   6.128   0.100 -0.2632 -1.5725  0.4775
 1462ANI     HC20466   0.889   6.250   0.000 -3.3849  0.4928  1.2597
 1462ANI     HN20467   1.220   6.133   0.043  0.4427 -0.3981  2.6036
 1462ANI     HN20468   1.118   6.227  -0.035 -0.5531 -0.3803 -0.4509
 1463ANI     CN20469   3.288   2.883   6.199 -0.1199 -0.1348  0.0506
 1463ANI     CH20470   3.184   2.951   6.264 -0.5405 -0.5332 -0.2115
 1463ANI     CH20471   3.191   3.090   6.270  0.1414 -0.5714 -0.1476
 1463ANI     CH20472   3.301   3.161   6.218 -0.0338 -0.2817 -0.1249
 1463ANI     CH20473   3.406   3.090   6.158  0.1064  0.0776 -0.3051
 1463ANI     CH20474   3.403   2.950   6.153  0.0688  0.0384  0.7705
 1463ANI     NH20475   3.296   2.750   6.199  0.1774 -0.1190  0.3019
 1463ANI     HC20476   3.110   2.884   6.305  0.4120 -2.1915 -1.1445
 1463ANI     HC20477   3.117   3.150   6.320  3.1383  2.7710  0.5194
 1463ANI     HC20478   3.314   3.268   6.213 -1.5260 -0.0768  0.0723
 1463ANI     HC20479   3.493   3.140   6.118 -0.0670  0.4887 -0.1730
 1463ANI     HC20480   3.475   2.893   6.097 -1.4610  0.4225 -1.6662
 1463ANI     HN20481   3.350   2.707   6.125  0.1869  0.9261 -0.2984
 1463ANI     HN20482   3.210   2.697   6.197  0.2678 -0.2452 -0.4898
 1464ANI     CN20483   4.659   3.995   4.590  0.0570 -0.3727  0.0018
 1464ANI     CH20484   4.721   3.884   4.532  1.2831  0.3107 -0.0009
 1464ANI     CH20485   4.784   3.791   4.615 -0.0592 -0.1920  0.4616
 1464ANI     CH20486   4.793   3.813   4.753  0.3121  0.1252  0.3875
 1464ANI     CH20487   4.734   3.928   4.807 -0.1570 -0.0918  0.3372
 1464ANI     CH20488   4.662   4.018   4.728 -0.0392 -0.2981 -0.0081
 1464ANI     NH20489   4.610   4.088   4.507  0.0408 -0.1000  0.3137
 1464ANI     HC20490   4.731   3.860   4.427 -1.5728  1.7251 -0.6435
 1464ANI     HC20491   4.829   3.705   4.569 -1.2133 -0.6571  0.1776
 1464ANI     HC20492   4.861   3.752   4.813 -0.5971  0.2472  1.5669
 1464ANI     HC20493   4.755   3.953   4.910 -1.6398 -2.0888  1.1721
 1464ANI     HC20494   4.628   4.109   4.776  0.0356 -0.5631  0.5556
 1464ANI     HN20495   4.523   4.125   4.541  0.3200 -0.6352  1.6145
 1464ANI     HN20496   4.594   4.063   4.410  1.5265 -1.4982  0.4015
 1465ANI     CN20497   2.901   6.214   5.503  0.6867 -0.2321  0.1105
 1465ANI     CH20498   2.916   6.344   5.452 -0.5491 -0.0327  0.2326
 1465ANI     CH20499   2.822   6.397   5.363 -0.8104  0.3987  0.7644
 1465ANI     CH20500   2.715   6.317   5.321 -0.0223 -0.0539 -0.3872
 1465ANI     CH20501   2.689   6.192   5.379  0.5107 -0.0091 -0.0484
 1465ANI     CH20502   2.786   6.142   5.467  0.8246 -0.1545 -0.4776
 1465ANI     NH20503   2.995   6.161   5.583  0.3072 -0.1252  0.6328
 1465ANI     HC20504   3.000   6.410   5.461 -1.0480  0.6567 -0.1498
 1465ANI     HC20505   2.838   6.496   5.324 -2.2533 -0.1885 -1.4388
 1465ANI     HC20506   2.645   6.366   5.255 -0.3770 -0.1752 -0.1050
 1465ANI     HC20507   2.605   6.133   5.346  0.8055 -0.8737  0.7287
 1465ANI     HC20508   2.775   6.042   5.506 -1.2612  0.4074  0.4449
 1465ANI     HN20509   3.082   6.210   5.572  0.8114 -1.7011 -3.2632
 1465ANI     HN20510   3.005   6.061   5.573 -0.6973 -0.1567 -0.2041
 1466ANI     CN20511   3.856   3.254   4.730  0.1603 -0.1050 -0.4288
 1466ANI     CH20512   3.837   3.392   4.744 -0.6398 -0.2564 -0.0300
 1466ANI     CH20513   3.778   3.470   4.644 -0.4101 -0.5774 -0.4173
 1466ANI     CH20514   3.724   3.408   4.530 -0.3341 -0.2970 -0.6044
 1466ANI     CH20515   3.720   3.268   4.530 -0.0032 -0.3079 -0.1456
 1466ANI     CH20516   3.790   3.191   4.624 -0.1715 -0.3654 -0.0680
 1466ANI     NH20517   3.911   3.178   4.825  0.4210  0.3701 -0.1966
 1466ANI     HC20518   3.867   3.441   4.836 -2.1652 -0.3993  0.5685
 1466ANI     HC20519   3.767   3.577   4.654  1.6089 -0.2720 -1.2877
 1466ANI     HC20520   3.672   3.461   4.452 -1.9570 -1.7484 -0.5243
 1466ANI     HC20521   3.670   3.214   4.451  3.1868 -1.7996 -1.2001
 1466ANI     HC20522   3.793   3.084   4.615 -1.9175 -0.3042 -1.7753
 1466ANI     HN20523   3.988   3.220   4.876  1.4321 -1.4575 -0.1536
 1466ANI     HN20524   3.936   3.091   4.781  1.9571  0.8110 -0.2176
 1467ANI     CN20525   3.589   0.021   2.763 -0.7767  1.2115  0.1877
 1467ANI     CH20526   3.534   0.047   2.637  0.0194  0.4261 -0.3243
 1467ANI     CH20527   3.605   0.127   2.547  0.4325  0.2573 -0.1482
 1467ANI     CH20528   3.739   0.164   2.569  0.3613  0.5053 -0.1316
 1467ANI     CH20529   3.801   0.106   2.680 -0.6172  0.1848  0.2509
 1467ANI     CH20530   3.727   0.036   2.777 -0.5692 -0.3673 -0.1134
 1467ANI     NH20531   3.514  -0.035   2.860 -0.3531  0.2998 -0.0052
 1467ANI     HC20532   3.430   0.025   2.619 -0.4967  1.5702  1.1653
 1467ANI     HC20533   3.563   0.166   2.456  1.5553  0.4797 -0.5827
 1467ANI     HC20534   3.782   0.226   2.492 -0.6675  1.1508 -0.2038
 1467ANI     HC20535   3.905   0.132   2.689 -0.7138  1.9084 -2.8787
 1467ANI     HC20536   3.778  -0.009   2.860  1.2444 -0.0173 -1.0119
 1467ANI     HN20537   3.418  -0.038   2.828  0.4960  0.4781 -2.7168
 1467ANI     HN20538   3.519   0.025   2.941  0.6926 -0.8444  0.7935
 1468ANI     CN20539   3.064   4.056   3.683  0.3408  0.0479 -0.1571
 1468ANI     CH20540   3.137   4.007   3.792  0.6361 -0.0043 -0.3782
 1468ANI     CH20541   3.273   4.033   3.810  0.7277 -0.5787 -0.2286
 1468ANI     CH20542   3.337   4.109   3.710  0.2175 -0.1581 -0.2380
 1468ANI     CH20543   3.267   4.162   3.601 -0.0321  0.5863  0.2770
 1468ANI     CH20544   3.130   4.136   3.589 -0.0782  0.8565  0.2300
 1468ANI     NH20545   2.939   4.011   3.665  0.4825 -0.2655 -0.3592
 1468ANI     HC20546   3.095   3.934   3.860  1.1453  1.2146  1.2613
 1468ANI     HC20547   3.339   4.000   3.888  3.7698  0.9086 -2.0618
 1468ANI     HC20548   3.441   4.134   3.726  0.2035  0.2881 -0.8720
 1468ANI     HC20549   3.318   4.230   3.534  1.2709 -0.7069 -0.0873
 1468ANI     HC20550   3.085   4.180   3.502 -1.4901  0.6163  0.8325
 1468ANI     HN20551   2.932   3.963   3.576  1.7032  1.0823 -1.1951
 1468ANI     HN20552   2.903   3.956   3.742 -1.5100  0.8442 -0.4413
 1469ANI     CN20553   1.734   4.936   3.387 -0.1071  0.0267  0.2078
 1469ANI     CH20554   1.700   4.829   3.472 -0.1767 -0.1522 -0.0474
 1469ANI     CH20555   1.569   4.787   3.494 -0.1162 -0.4139 -0.1798
 1469ANI     CH20556   1.465   4.855   3.429  0.1392  0.1438 -0.0012
 1469ANI     CH20557   1.498   4.954   3.336 -0.2075  0.5608  0.3144
 1469ANI     CH20558   1.631   4.994   3.312 -0.1566  0.6676  0.7633
 1469ANI     NH20559   1.862   4.968   3.366 -0.3428  0.5490 -0.4460
 1469ANI     HC20560   1.786   4.788   3.523  0.8429  1.1111 -0.6949
 1469ANI     HC20561   1.550   4.720   3.576  3.8871 -1.1542  0.2204
 1469ANI     HC20562   1.361   4.838   3.452  0.3300 -1.4057 -0.2268
 1469ANI     HC20563   1.424   5.016   3.287 -0.6593  0.3540  0.7361
 1469ANI     HC20564   1.633   5.077   3.244 -0.5569  1.2683  1.4724
 1469ANI     HN20565   1.888   5.044   3.305  3.7899 -1.0257 -0.8212
 1469ANI     HN20566   1.931   4.963   3.440 -1.9427 -0.5700  1.0052
 1470ANI     CN20567   5.143   1.311   4.519 -0.1792  0.5584 -0.0424
 1470ANI     CH20568   5.138   1.237   4.400 -0.3481 -0.4135  0.5703
 1470ANI     CH20569   5.255   1.219   4.326 -0.3665  0.4049  0.3494
 1470ANI     CH20570   5.375   1.280   4.366 -0.3554  0.7136 -0.1524
 1470ANI     CH20571   5.377   1.351   4.487  0.6099  0.3883  0.0256
 1470ANI     CH20572   5.264   1.360   4.569  0.2150  0.0355 -0.4715
 1470ANI     NH20573   5.036   1.313   4.599 -0.0114 -0.1891  0.2071
 1470ANI     HC20574   5.047   1.189   4.368 -0.6767  0.6314 -0.0782
 1470ANI     HC20575   5.252   1.175   4.227 -0.6592 -1.5120  1.2045
 1470ANI     HC20576   5.462   1.266   4.304 -1.2371 -1.8560 -0.8641
 1470ANI     HC20577   5.465   1.401   4.525  1.1611  1.1122 -2.1100
 1470ANI     HC20578   5.284   1.410   4.663  0.3061 -0.1698 -0.3810
 1470ANI     HN20579   5.065   1.288   4.692 -2.0451 -0.2234  0.8613
 1470ANI     HN20580   4.961   1.251   4.570 -1.1017  1.0779  0.2634
 1471ANI     CN20581   3.075   1.668   5.136  0.0560  0.9661 -0.3628
 1471ANI     CH20582   2.943   1.697   5.172 -0.0811 -0.0042 -0.0521
 1471ANI     CH20583   2.840   1.685   5.079 -0.0718 -0.3470 -0.0177
 1471ANI     CH20584   2.869   1.648   4.947  0.3978  0.5505 -0.1732
 1471ANI     CH20585   3.001   1.618   4.913  0.2798 -0.4042  0.1909
 1471ANI     CH20586   3.104   1.618   5.008  0.3672 -0.0460  0.0983
 1471ANI     NH20587   3.173   1.662   5.227 -0.0029  0.7090 -0.3140
 1471ANI     HC20588   2.928   1.739   5.271  0.5872 -0.1812  0.1251
 1471ANI     HC20589   2.738   1.706   5.107  0.3037  2.3276 -0.5279
 1471ANI     HC20590   2.792   1.640   4.871  0.0070 -2.2453  0.4527
 1471ANI     HC20591   3.017   1.593   4.809 -1.6177  1.5078 -0.5913
 1471ANI     HC20592   3.204   1.592   4.979  0.1898 -1.8739  0.9960
 1471ANI     HN20593   3.257   1.671   5.172 -0.6951  1.9721 -1.2006
 1471ANI     HN20594   3.162   1.739   5.293  0.2536  1.1977 -0.8359
 1472ANI     CN20595   5.342   5.350   4.175  0.8134  0.4578 -0.1311
 1472ANI     CH20596   5.240   5.337   4.080  0.6788 -0.0228  0.0725
 1472ANI     CH20597   5.207   5.445   3.997  0.0104 -0.0370  0.3174
 1472ANI     CH20598   5.295   5.554   3.988 -0.2735  0.1250 -0.4946
 1472ANI     CH20599   5.399   5.567   4.080 -0.1831 -0.2211 -0.5491
 1472ANI     CH20600   5.418   5.467   4.177  0.1498  0.8814  0.5362
 1472ANI     NH20601   5.368   5.255   4.267 -0.0037 -0.0495 -0.4205
 1472ANI     HC20602   5.172   5.254   4.070 -1.0794  1.4703 -0.6586
 1472ANI     HC20603   5.115   5.443   3.941 -0.2578 -0.4858  0.7770
 1472ANI     HC20604   5.272   5.635   3.919 -0.1854  0.4852 -0.1024
 1472ANI     HC20605   5.460   5.656   4.080  0.8676 -0.9359 -0.1530
 1472ANI     HC20606   5.496   5.492   4.248 -0.7403  0.2810  1.7316
 1472ANI     HN20607   5.315   5.170   4.259 -0.7739  0.4568 -0.8405
 1472ANI     HN20608   5.465   5.229   4.277 -0.6142 -1.7442  1.2762
 1473ANI     CN20609   0.217   0.183   4.514 -0.3795 -0.4682 -0.1686
 1473ANI     CH20610   0.112   0.224   4.432  0.5026 -0.2510 -1.2027
 1473ANI     CH20611   0.050   0.347   4.454  0.5112 -0.4633  0.0005
 1473ANI     CH20612   0.106   0.436   4.547  0.1828 -0.5577  0.2935
 1473ANI     CH20613   0.224   0.404   4.615  0.3895  0.1004  0.2460
 1473ANI     CH20614   0.277   0.275   4.601 -0.5393 -0.2260 -0.3123
 1473ANI     NH20615   0.266   0.059   4.509 -0.1693 -0.3911 -0.0349
 1473ANI     HC20616   0.075   0.161   4.352 -1.9193 -1.2972  0.6859
 1473ANI     HC20617  -0.038   0.371   4.397  0.9834  1.6732  0.1345
 1473ANI     HC20618   0.052   0.526   4.572 -1.2912 -2.0291  2.5517
 1473ANI     HC20619   0.259   0.482   4.682  2.1808  0.4409 -1.0364
 1473ANI     HC20620   0.368   0.249   4.654 -0.1451  1.4811 -0.1106
 1473ANI     HN20621   0.360   0.045   4.544 -0.0315 -1.5920 -0.8360
 1473ANI     HN20622   0.264   0.010   4.421  1.4404  1.9903 -1.4458
 1474ANI     CN20623   1.469   1.107   4.671  0.1278  0.2109  0.3154
 1474ANI     CH20624   1.512   1.059   4.796  0.8296 -0.1652 -0.0635
 1474ANI     CH20625   1.616   1.116   4.870  0.4131  0.5668 -0.0391
 1474ANI     CH20626   1.669   1.236   4.818 -0.1247  0.8098 -0.0315
 1474ANI     CH20627   1.624   1.290   4.697  0.1035  0.0757 -0.4519
 1474ANI     CH20628   1.524   1.226   4.623  0.2042 -0.1180 -0.4210
 1474ANI     NH20629   1.373   1.036   4.611  0.1931  0.3801  0.0132
 1474ANI     HC20630   1.477   0.963   4.830  3.2052 -2.1215 -2.8992
 1474ANI     HC20631   1.664   1.070   4.954  1.0595  1.0613 -0.1247
 1474ANI     HC20632   1.749   1.290   4.867  1.0603 -0.4728 -0.5049
 1474ANI     HC20633   1.683   1.373   4.661  1.3006 -0.5176  0.1023
 1474ANI     HC20634   1.487   1.265   4.529  1.5411  3.2091  0.3355
 1474ANI     HN20635   1.367   1.070   4.516 -1.0812 -4.0386 -1.5745
 1474ANI     HN20636   1.386   0.936   4.615 -0.4804  0.3517  3.2391
 1475ANI     CN20637   2.530   3.492   0.523 -0.4585  0.0992  0.2771
 1475ANI     CH20638   2.566   3.357   0.533  0.5056  0.3637  0.4365
 1475ANI     CH20639   2.693   3.313   0.570  0.2878 -0.1878  0.5334
 1475ANI     CH20640   2.786   3.407   0.616 -0.2590  0.7200 -0.2127
 1475ANI     CH20641   2.750   3.542   0.613 -0.2179  0.7277 -0.4009
 1475ANI     CH20642   2.629   3.585   0.556 -0.3821  0.2662 -0.4023
 1475ANI     NH20643   2.417   3.540   0.468 -0.2884  0.4118  0.1963
 1475ANI     HC20644   2.490   3.285   0.506  2.3751 -0.3889 -3.1491
 1475ANI     HC20645   2.723   3.209   0.572 -1.2020 -0.6316  0.3833
 1475ANI     HC20646   2.879   3.367   0.653 -0.8691 -0.1445  0.3894
 1475ANI     HC20647   2.821   3.614   0.651  1.5387 -0.4601 -1.3615
 1475ANI     HC20648   2.595   3.687   0.546 -0.3167  0.3899  0.5621
 1475ANI     HN20649   2.423   3.640   0.459  0.7615  0.3344 -0.0804
 1475ANI     HN20650   2.403   3.506   0.374 -0.2941  3.4069 -0.9311
 1476ANI     CN20651   4.590   3.261   5.460 -0.2734 -0.5368 -0.2084
 1476ANI     CH20652   4.690   3.215   5.547 -0.3916 -0.8380 -0.2322
 1476ANI     CH20653   4.820   3.187   5.503 -0.0716  0.0733  0.1318
 1476ANI     CH20654   4.844   3.185   5.365 -0.5592 -0.0152  0.0484
 1476ANI     CH20655   4.742   3.221   5.276  0.0552  0.4611 -0.4672
 1476ANI     CH20656   4.616   3.259   5.323  0.2512  0.7006 -0.1337
 1476ANI     NH20657   4.481   3.324   5.507 -0.1767 -0.5145 -0.0120
 1476ANI     HC20658   4.669   3.227   5.652  0.3170 -1.0944 -0.0619
 1476ANI     HC20659   4.887   3.140   5.573  1.1690  1.4520 -0.0954
 1476ANI     HC20660   4.934   3.139   5.325 -1.8205 -1.1243 -1.6099
 1476ANI     HC20661   4.760   3.210   5.170  0.1201 -0.1595 -0.3972
 1476ANI     HC20662   4.544   3.306   5.257  0.0224 -0.4649 -0.7259
 1476ANI     HN20663   4.409   3.341   5.438  1.0219 -0.3681 -1.2376
 1476ANI     HN20664   4.486   3.394   5.580  0.9338  0.1193 -0.6821
 1477ANI     CN20665   5.659   6.244   4.593 -0.0227  0.5535 -0.6654
 1477ANI     CH20666   5.772   6.177   4.544 -0.0250  0.0402  0.0209
 1477ANI     CH20667   5.757   6.055   4.477  0.5327 -0.3886  0.6828
 1477ANI     CH20668   5.631   6.004   4.448  0.3742 -0.0786  0.8204
 1477ANI     CH20669   5.521   6.061   4.513  0.2586 -0.1920  0.7264
 1477ANI     CH20670   5.533   6.185   4.577  0.0648  0.1696  0.0756
 1477ANI     NH20671   5.669   6.371   4.634  0.4179  0.5217 -0.6685
 1477ANI     HC20672   5.866   6.230   4.554 -0.5768  1.5109 -2.0947
 1477ANI     HC20673   5.846   6.008   4.439 -0.5505 -2.0138  0.1389
 1477ANI     HC20674   5.612   5.917   4.387 -1.4909  1.9430 -1.6014
 1477ANI     HC20675   5.429   6.005   4.519  0.0793  0.1175  0.8622
 1477ANI     HC20676   5.445   6.229   4.622 -0.2951  0.4558 -0.9032
 1477ANI     HN20677   5.593   6.394   4.698  0.9988  0.4866  0.0386
 1477ANI     HN20678   5.759   6.400   4.670  0.7555 -0.5077 -0.6723
 1478ANI     CN20679   2.362   0.477   2.930  0.2008 -0.4052  0.1218
 1478ANI     CH20680   2.363   0.612   2.893 -0.1858 -0.3237  0.4058
 1478ANI     CH20681   2.483   0.674   2.856 -0.2933 -0.5367 -0.2902
 1478ANI     CH20682   2.605   0.606   2.864  0.0577  0.0660 -0.4654
 1478ANI     CH20683   2.602   0.475   2.914 -0.1835  0.3116  0.1746
 1478ANI     CH20684   2.483   0.408   2.942  0.2060 -0.3891  0.1672
 1478ANI     NH20685   2.246   0.417   2.961  0.0104  0.1656  0.5284
 1478ANI     HC20686   2.272   0.670   2.889  1.2091  1.7162 -4.2037
 1478ANI     HC20687   2.492   0.779   2.834 -0.0948 -0.5374 -0.2103
 1478ANI     HC20688   2.701   0.650   2.843  0.4709 -0.2556  0.7116
 1478ANI     HC20689   2.693   0.416   2.919 -2.0822 -2.7928 -0.4503
 1478ANI     HC20690   2.491   0.302   2.962  3.2210  0.1165  1.9019
 1478ANI     HN20691   2.216   0.335   2.909 -0.5649  1.3630 -1.0914
 1478ANI     HN20692   2.166   0.476   2.980 -1.5494 -2.4220  2.2200
 1479ANI     CN20693   4.015   2.671   4.350 -0.5775 -0.0920  0.3036
 1479ANI     CH20694   3.928   2.593   4.273  0.1010 -0.0878 -0.4732
 1479ANI     CH20695   3.817   2.656   4.216 -0.0712  0.5054  0.5118
 1479ANI     CH20696   3.789   2.792   4.237 -0.1389  0.7907 -1.3495
 1479ANI     CH20697   3.881   2.866   4.311  0.3910 -0.2009 -1.0044
 1479ANI     CH20698   3.998   2.809   4.363 -0.0566 -0.0197  0.2117
 1479ANI     NH20699   4.127   2.611   4.391 -0.3165  0.1662 -0.0333
 1479ANI     HC20700   3.954   2.488   4.264 -0.1718 -0.2836  0.8516
 1479ANI     HC20701   3.753   2.604   4.146  0.3243 -0.7957  1.1141
 1479ANI     HC20702   3.694   2.841   4.216 -0.2019  1.7415  1.0344
 1479ANI     HC20703   3.870   2.970   4.337  2.5773 -0.3013  0.4489
 1479ANI     HC20704   4.075   2.863   4.416 -1.6279  1.8546  0.6448
 1479ANI     HN20705   4.218   2.657   4.388 -0.9798  1.3903 -2.0772
 1479ANI     HN20706   4.134   2.511   4.379 -0.6188  0.1114  0.2474
 1480ANI     CN20707   0.207   5.267   3.967 -0.0014  0.1140  0.5143
 1480ANI     CH20708   0.307   5.357   3.929  0.1276 -0.3544 -0.2616
 1480ANI     CH20709   0.320   5.381   3.791 -0.7219  0.1988 -0.2487
 1480ANI     CH20710   0.250   5.299   3.702 -0.8271 -0.6370  0.5843
 1480ANI     CH20711   0.164   5.196   3.742 -0.0668 -1.4701  0.1029
 1480ANI     CH20712   0.141   5.181   3.880 -0.0627  0.3523  0.3248
 1480ANI     NH20713   0.183   5.259   4.099  0.5471 -0.4514  0.5793
 1480ANI     HC20714   0.361   5.423   3.995 -1.5519  2.9677 -2.0570
 1480ANI     HC20715   0.389   5.457   3.758  1.0286 -1.5482 -0.7156
 1480ANI     HC20716   0.257   5.319   3.596  0.9412  2.7955  1.2797
 1480ANI     HC20717   0.122   5.141   3.659 -0.3334  2.5790 -2.6174
 1480ANI     HC20718   0.076   5.102   3.914  0.1577  0.3094  0.6425
 1480ANI     HN20719   0.084   5.246   4.110  0.1471  1.7350 -0.3257
 1480ANI     HN20720   0.215   5.340   4.150 -1.7442  1.0724 -0.3648
 1481ANI     CN20721   4.962   5.231   1.627 -0.5833  0.3425  0.1791
 1481ANI     CH20722   4.931   5.324   1.727 -0.2914  0.5259  0.1004
 1481ANI     CH20723   4.925   5.283   1.860 -0.2751  0.1685 -0.0076
 1481ANI     CH20724   4.961   5.155   1.905 -0.0321  0.1174 -0.3508
 1481ANI     CH20725   5.000   5.066   1.804  0.3271  0.1673 -0.2571
 1481ANI     CH20726   5.002   5.103   1.669  0.3444  0.5123 -0.1627
 1481ANI     NH20727   4.968   5.264   1.497 -0.1430 -0.5894 -0.0472
 1481ANI     HC20728   4.905   5.425   1.701 -2.1823  0.3129  1.1196
 1481ANI     HC20729   4.896   5.352   1.938 -0.9900 -0.5393  0.3609
 1481ANI     HC20730   4.953   5.132   2.010 -2.0314 -0.1046 -0.5373
 1481ANI     HC20731   5.042   4.971   1.834 -0.2711 -0.5557 -1.6745
 1481ANI     HC20732   5.026   5.036   1.588 -1.0198 -0.3380  0.1090
 1481ANI     HN20733   4.975   5.195   1.424  0.0918  0.0450 -0.6267
 1481ANI     HN20734   5.036   5.336   1.478 -0.6472  0.2474  1.2079
 1482ANI     CN20735   0.511   5.596   0.867 -0.7685 -0.0139  0.1759
 1482ANI     CH20736   0.604   5.518   0.936 -0.1891 -0.5857 -1.2236
 1482ANI     CH20737   0.738   5.520   0.898  0.2309  0.5007  0.2779
 1482ANI     CH20738   0.771   5.592   0.782  0.1179 -0.0403 -0.0943
 1482ANI     CH20739   0.676   5.664   0.709  0.1012  0.2124  0.1751
 1482ANI     CH20740   0.543   5.671   0.752  0.0015 -0.6015 -0.0000
 1482ANI     NH20741   0.382   5.598   0.902 -0.9412  0.2726 -0.4598
 1482ANI     HC20742   0.574   5.456   1.020  1.2209 -0.3319 -0.5141
 1482ANI     HC20743   0.812   5.463   0.952  0.7054 -1.7856 -2.6510
 1482ANI     HC20744   0.874   5.604   0.752 -0.3862  1.9673 -1.0898
 1482ANI     HC20745   0.710   5.730   0.630 -2.8848  1.8840  0.1978
 1482ANI     HC20746   0.472   5.725   0.691 -0.2317 -1.7358 -0.7465
 1482ANI     HN20747   0.323   5.591   0.820  0.0995  2.2364 -1.4042
 1482ANI     HN20748   0.370   5.510   0.950  1.1309  0.5292  0.5960
 1483ANI     CN20749   5.248   4.955   3.135  0.0581 -0.2162 -0.3577
 1483ANI     CH20750   5.168   4.841   3.156 -0.6118  0.2961 -0.1093
 1483ANI     CH20751   5.030   4.849   3.176 -0.5328 -0.0255  0.5694
 1483ANI     CH20752   4.974   4.977   3.187 -0.3724  0.1114 -0.1993
 1483ANI     CH20753   5.048   5.094   3.167  0.2287 -0.0513  1.0773
 1483ANI     CH20754   5.186   5.080   3.145  0.0154 -0.2551 -0.1211
 1483ANI     NH20755   5.379   4.932   3.118  0.1433 -0.3666  0.4398
 1483ANI     HC20756   5.209   4.741   3.155 -0.8428  0.1974  0.2375
 1483ANI     HC20757   4.977   4.758   3.201  0.2927  0.2633  3.6090
 1483ANI     HC20758   4.868   4.990   3.199 -0.9075 -2.6215 -1.4272
 1483ANI     HC20759   5.017   5.197   3.172  2.5130  0.7475 -0.1951
 1483ANI     HC20760   5.257   5.161   3.146  2.2380 -2.1383  0.4847
 1483ANI     HN20761   5.418   4.846   3.153 -0.6375 -1.1179 -0.4853
 1483ANI     HN20762   5.450   5.001   3.138  1.9871 -2.5333  1.5089
 1484ANI     CN20763   2.598   3.891   3.460 -0.1717 -0.0525  0.6744
 1484ANI     CH20764   2.724   3.846   3.419 -0.5424 -0.2732 -0.2366
 1484ANI     CH20765   2.733   3.773   3.300  0.2895  0.0633 -0.3791
 1484ANI     CH20766   2.619   3.739   3.226 -0.2267 -0.1755  0.5265
 1484ANI     CH20767   2.494   3.785   3.270 -0.3757 -0.2869  0.2227
 1484ANI     CH20768   2.484   3.871   3.381 -0.0622 -0.9025  0.7322
 1484ANI     NH20769   2.588   3.968   3.569  0.4218  0.1340  0.5967
 1484ANI     HC20770   2.813   3.866   3.477 -1.2505 -0.3748  0.9009
 1484ANI     HC20771   2.828   3.743   3.258  1.7151  0.7011  2.2914
 1484ANI     HC20772   2.635   3.673   3.143 -0.3215  0.2527  0.1658
 1484ANI     HC20773   2.403   3.751   3.223 -0.5578  0.2524  0.1728
 1484ANI     HC20774   2.387   3.900   3.418 -0.8262 -0.4454 -1.5130
 1484ANI     HN20775   2.660   4.036   3.549  0.1054  0.0652 -0.8952
 1484ANI     HN20776   2.499   4.016   3.565  0.9190  1.1484  1.3795
 1485ANI     CN20777   4.122   4.575   4.963  0.0155  0.4065  0.4491
 1485ANI     CH20778   4.261   4.564   4.964 -0.0271 -0.1255  0.5311
 1485ANI     CH20779   4.340   4.679   4.954 -0.0178 -0.2245 -0.5492
 1485ANI     CH20780   4.277   4.804   4.962  0.5362  0.0078  0.1706
 1485ANI     CH20781   4.138   4.815   4.965  0.5419  0.0313  0.3807
 1485ANI     CH20782   4.058   4.700   4.968  0.0220  0.3974  0.7223
 1485ANI     NH20783   4.053   4.462   4.946  0.0674  0.3794  0.4164
 1485ANI     HC20784   4.313   4.470   4.952 -2.2533 -1.5145  1.5313
 1485ANI     HC20785   4.448   4.684   4.960  0.0248 -0.9582 -0.6525
 1485ANI     HC20786   4.342   4.891   4.958  0.4432  0.0361 -0.8770
 1485ANI     HC20787   4.084   4.908   4.953  0.3665 -0.3765 -2.1256
 1485ANI     HC20788   3.952   4.719   4.977 -0.4594 -2.4065  1.5564
 1485ANI     HN20789   3.959   4.480   4.912  0.0820  1.4118  0.9103
 1485ANI     HN20790   4.105   4.406   4.880  1.8323  0.2720  1.8738
 1486ANI     CN20791   5.408   2.892   2.851 -0.3460 -0.1564  0.3768
 1486ANI     CH20792   5.466   2.771   2.893  0.2314  0.0516  0.1841
 1486ANI     CH20793   5.605   2.759   2.902  0.2242 -0.3444 -0.2260
 1486ANI     CH20794   5.684   2.869   2.871 -0.7335  0.3306 -0.2919
 1486ANI     CH20795   5.630   2.987   2.817  0.1115  0.9053  0.0944
 1486ANI     CH20796   5.491   3.000   2.820 -0.0425 -0.5257 -0.1031
 1486ANI     NH20797   5.275   2.900   2.836 -0.3456 -0.0400  0.4378
 1486ANI     HC20798   5.403   2.693   2.932 -0.5963 -0.7361 -2.5716
 1486ANI     HC20799   5.646   2.667   2.943  2.4638  1.2355  1.1706
 1486ANI     HC20800   5.792   2.869   2.884 -0.7608  0.1471 -0.0803
 1486ANI     HC20801   5.694   3.065   2.778 -0.1164  1.4577  0.8256
 1486ANI     HC20802   5.450   3.096   2.792  0.3142 -0.6923 -1.2336
 1486ANI     HN20803   5.246   2.972   2.772 -1.2914 -0.9720 -0.1919
 1486ANI     HN20804   5.248   2.810   2.800  0.5750 -0.3239  0.4494
 1487ANI     CN20805   5.777   2.304   1.502 -0.6609  0.3252 -0.3980
 1487ANI     CH20806   5.789   2.428   1.438 -0.0653  0.3150 -0.3119
 1487ANI     CH20807   5.725   2.538   1.496 -0.3482  0.0704 -0.1588
 1487ANI     CH20808   5.655   2.533   1.617  0.5962  0.1949  0.3936
 1487ANI     CH20809   5.631   2.406   1.669  0.3112 -0.1369 -0.5429
 1487ANI     CH20810   5.690   2.293   1.612  0.2274 -0.5766  0.2226
 1487ANI     NH20811   5.861   2.203   1.476 -0.0323  0.5971  0.5225
 1487ANI     HC20812   5.857   2.439   1.355  0.3906 -1.6643 -0.2386
 1487ANI     HC20813   5.730   2.638   1.455 -1.1543 -0.9847 -2.9375
 1487ANI     HC20814   5.599   2.619   1.652 -0.1746  1.2777 -3.3100
 1487ANI     HC20815   5.559   2.404   1.750 -1.2327  1.9066 -1.8111
 1487ANI     HC20816   5.660   2.201   1.659 -1.3719 -0.7524 -1.0942
 1487ANI     HN20817   5.930   2.234   1.409  0.8120 -4.2426 -1.0446
 1487ANI     HN20818   5.816   2.124   1.432 -0.5116  1.0144  0.2539
 1488ANI     CN20819   4.731   2.320   3.822 -0.1201 -0.4632 -0.2183
 1488ANI     CH20820   4.812   2.424   3.775 -0.3595  0.0887  0.5773
 1488ANI     CH20821   4.772   2.494   3.661  0.2820  0.5246  0.6165
 1488ANI     CH20822   4.647   2.462   3.607  0.5531  0.1800  0.1807
 1488ANI     CH20823   4.565   2.358   3.652  0.5306  0.1618  0.0988
 1488ANI     CH20824   4.608   2.286   3.764 -0.0835 -0.6541 -0.1837
 1488ANI     NH20825   4.782   2.249   3.923 -0.3707 -0.3426 -0.0062
 1488ANI     HC20826   4.910   2.452   3.811 -1.2745  1.9240  1.7270
 1488ANI     HC20827   4.825   2.575   3.613 -2.1888  2.0707  0.4355
 1488ANI     HC20828   4.624   2.520   3.519 -0.5651 -2.7787 -1.5492
 1488ANI     HC20829   4.471   2.333   3.604 -1.6873  1.2514  3.6899
 1488ANI     HC20830   4.546   2.207   3.804  0.0464 -0.4458  0.4376
 1488ANI     HN20831   4.880   2.266   3.941 -0.3360  2.1876 -2.3607
 1488ANI     HN20832   4.786   2.150   3.905  0.8294 -0.2813 -0.0929
 1489ANI     CN20833   0.367   2.425   2.870 -0.3286 -0.4521 -0.3103
 1489ANI     CH20834   0.267   2.513   2.827  0.1851  0.3705  0.1783
 1489ANI     CH20835   0.136   2.464   2.831  0.2201  0.2416 -0.2545
 1489ANI     CH20836   0.096   2.347   2.897  0.4265  0.3942  0.1464
 1489ANI     CH20837   0.198   2.262   2.942 -0.0374 -0.3858 -0.2683
 1489ANI     CH20838   0.331   2.299   2.921  0.0283 -0.3162  0.2784
 1489ANI     NH20839   0.497   2.452   2.853 -0.2170 -0.5999  0.2796
 1489ANI     HC20840   0.287   2.610   2.785 -0.8703  0.1867 -0.7769
 1489ANI     HC20841   0.055   2.521   2.788  1.2371  1.3258 -0.7578
 1489ANI     HC20842  -0.004   2.308   2.906  0.9829 -1.6551 -1.7599
 1489ANI     HC20843   0.165   2.168   2.985 -2.1921  0.4446 -0.0577
 1489ANI     HC20844   0.407   2.236   2.964  0.2880 -1.8645 -2.3648
 1489ANI     HN20845   0.555   2.371   2.841  2.4523  1.5719 -2.2662
 1489ANI     HN20846   0.505   2.522   2.780 -1.5586  0.0993  0.7732
 1490ANI     CN20847   3.876   4.576   5.281  0.1407 -0.0664  0.4341
 1490ANI     CH20848   3.920   4.597   5.413  0.2455  0.0410  0.3822
 1490ANI     CH20849   3.863   4.704   5.482  0.3726  0.2368  0.1801
 1490ANI     CH20850   3.771   4.790   5.419 -0.1725 -0.0090  0.6417
 1490ANI     CH20851   3.736   4.771   5.285  0.2267 -0.4422  0.5953
 1490ANI     CH20852   3.787   4.661   5.215  0.0881 -0.2767  0.2323
 1490ANI     NH20853   3.923   4.465   5.224 -0.1139 -0.0419  0.1787
 1490ANI     HC20854   3.997   4.534   5.456  0.1096  1.2404  2.4384
 1490ANI     HC20855   3.882   4.724   5.586  1.6818 -0.1679  0.0266
 1490ANI     HC20856   3.726   4.867   5.480  0.5420 -0.3493  1.6244
 1490ANI     HC20857   3.653   4.830   5.249 -0.7833 -1.8639  0.5589
 1490ANI     HC20858   3.761   4.635   5.114  0.7814 -0.8957  0.2097
 1490ANI     HN20859   4.017   4.450   5.259 -0.0660 -0.1688 -0.0009
 1490ANI     HN20860   3.924   4.480   5.124 -1.3993 -0.9686  0.0087
 1491ANI     CN20861   3.760   3.276   0.594  0.1958 -0.1145  0.0391
 1491ANI     CH20862   3.825   3.157   0.627  0.0289  0.0360  0.9295
 1491ANI     CH20863   3.957   3.135   0.586  0.1306  0.3531  1.0816
 1491ANI     CH20864   4.029   3.240   0.529 -0.0629  0.2657  0.6695
 1491ANI     CH20865   3.966   3.363   0.506  0.3912  0.3411 -0.1897
 1491ANI     CH20866   3.830   3.381   0.532  0.5448  0.1036  0.7908
 1491ANI     NH20867   3.634   3.289   0.637  0.2965  0.5006  0.1581
 1491ANI     HC20868   3.790   3.079   0.693 -2.2361 -1.6579 -2.1630
 1491ANI     HC20869   3.999   3.037   0.607 -3.3654 -1.3465  0.5821
 1491ANI     HC20870   4.136   3.232   0.511 -0.2983  0.4436 -0.8641
 1491ANI     HC20871   4.019   3.450   0.469  1.8809 -1.1334 -1.5863
 1491ANI     HC20872   3.787   3.477   0.506 -1.4066 -1.3787 -1.6970
 1491ANI     HN20873   3.573   3.364   0.609 -0.7592 -0.1810  0.5834
 1491ANI     HN20874   3.586   3.201   0.643  0.7769  0.3023  1.3350
 1492ANI     CN20875   5.647   6.064   2.559 -0.6288  0.1225  0.0582
 1492ANI     CH20876   5.761   6.141   2.538 -0.9001  0.3717 -0.5003
 1492ANI     CH20877   5.789   6.201   2.414  0.4671  0.3161 -0.2302
 1492ANI     CH20878   5.705   6.177   2.305  0.0602 -0.5491  0.2643
 1492ANI     CH20879   5.592   6.098   2.326 -0.2240 -0.1601  0.2017
 1492ANI     CH20880   5.563   6.039   2.450 -0.8232  0.1333  0.2041
 1492ANI     NH20881   5.621   6.003   2.676  0.2540 -0.4909 -0.0637
 1492ANI     HC20882   5.816   6.174   2.625 -3.1647 -1.1690  1.5895
 1492ANI     HC20883   5.865   6.277   2.402 -0.6506  1.7828  1.7069
 1492ANI     HC20884   5.722   6.220   2.207  0.6522 -0.7974  0.2560
 1492ANI     HC20885   5.521   6.084   2.246 -0.2636 -1.4676  0.4412
 1492ANI     HC20886   5.472   5.983   2.467 -0.4554  0.2789  2.8032
 1492ANI     HN20887   5.539   5.944   2.677  0.2076 -0.4493 -0.8464
 1492ANI     HN20888   5.697   5.956   2.723 -0.6013  0.6724  2.5571
 1493ANI     CN20889   1.544   5.888   5.965 -0.1015  0.1399 -0.1011
 1493ANI     CH20890   1.424   5.960   5.961  0.1050  0.4583 -0.5792
 1493ANI     CH20891   1.305   5.891   5.937 -0.0567  0.4785  0.1834
 1493ANI     CH20892   1.309   5.753   5.911 -0.0638  0.5898 -0.3957
 1493ANI     CH20893   1.429   5.682   5.909  0.0228  0.7159  0.3965
 1493ANI     CH20894   1.548   5.750   5.938  0.4414  0.1101  0.1243
 1493ANI     NH20895   1.657   5.953   5.996  0.1919 -0.2454 -0.3449
 1493ANI     HC20896   1.425   6.065   5.983  0.5487  0.1274  1.0407
 1493ANI     HC20897   1.212   5.946   5.936  0.1881  0.8794 -0.3984
 1493ANI     HC20898   1.217   5.700   5.892  0.8473 -0.9878 -0.4895
 1493ANI     HC20899   1.425   5.574   5.910  1.3355  0.6423  2.2523
 1493ANI     HC20900   1.637   5.690   5.940  1.1358  1.1383  2.5334
 1493ANI     HN20901   1.652   6.054   5.998  0.1084 -0.2305 -1.2135
 1493ANI     HN20902   1.740   5.922   5.948 -0.2067  0.1913 -1.3250
 1494ANI     CN20903   5.022   5.013   0.838 -0.0908 -0.6461 -0.2426
 1494ANI     CH20904   5.057   4.917   0.934 -0.3303 -0.0314  0.4574
 1494ANI     CH20905   5.186   4.862   0.935 -0.1672  0.3451  0.0269
 1494ANI     CH20906   5.284   4.911   0.848 -0.0477 -0.1215 -0.0996
 1494ANI     CH20907   5.246   5.002   0.749 -0.3686 -0.0894  0.0559
 1494ANI     CH20908   5.117   5.057   0.745 -0.2530  0.1802 -0.0169
 1494ANI     NH20909   4.895   5.056   0.830  0.0770 -0.1052 -0.0030
 1494ANI     HC20910   4.982   4.884   1.005  0.7937 -1.1458  1.1603
 1494ANI     HC20911   5.211   4.790   1.010  1.7512  2.3521  1.3703
 1494ANI     HC20912   5.386   4.876   0.847 -0.2950 -1.1506  3.2028
 1494ANI     HC20913   5.323   5.038   0.683 -1.3400  2.9836  0.5154
 1494ANI     HC20914   5.077   5.120   0.667 -0.5873 -1.6443 -1.3549
 1494ANI     HN20915   4.850   5.090   0.914 -2.2204 -0.6156 -1.0175
 1494ANI     HN20916   4.879   5.113   0.749  0.8384 -0.0228 -0.0981
 1495ANI     CN20917   5.853   4.001   1.651  0.0553 -0.0382  0.0081
 1495ANI     CH20918   5.865   3.887   1.731  0.5504  0.0506  0.0619
 1495ANI     CH20919   5.869   3.760   1.672  0.1470  0.1772 -0.2409
 1495ANI     CH20920   5.860   3.751   1.532  0.0902 -0.3604 -0.2037
 1495ANI     CH20921   5.845   3.865   1.452 -0.0521  0.0021  0.3329
 1495ANI     CH20922   5.845   3.991   1.512 -0.4301  0.1506  0.0209
 1495ANI     NH20923   5.864   4.123   1.705  0.5876 -0.1753  0.2080
 1495ANI     HC20924   5.887   3.886   1.837  0.4260 -0.1666  0.0879
 1495ANI     HC20925   5.882   3.686   1.749  3.6176  1.3127  0.3669
 1495ANI     HC20926   5.858   3.654   1.487 -1.3888 -0.2170 -0.4711
 1495ANI     HC20927   5.817   3.852   1.349 -2.4335 -3.5044  1.3257
 1495ANI     HC20928   5.836   4.086   1.461  2.4128 -0.0507 -0.9579
 1495ANI     HN20929   5.807   4.185   1.649 -0.1203 -2.1606 -1.2927
 1495ANI     HN20930   5.848   4.122   1.805  0.3712  0.7200  0.1842
 1496ANI     CN20931   4.643   0.714   3.208 -0.4730 -0.0874  0.0018
 1496ANI     CH20932   4.716   0.700   3.327  0.0193  0.2711 -0.2576
 1496ANI     CH20933   4.718   0.809   3.415 -0.6005 -0.0035  0.0923
 1496ANI     CH20934   4.665   0.933   3.380  0.5928  0.4303 -0.1760
 1496ANI     CH20935   4.606   0.947   3.253  0.3566  0.0389 -0.1064
 1496ANI     CH20936   4.582   0.835   3.173  0.1284  0.1595 -0.2060
 1496ANI     NH20937   4.629   0.609   3.126 -0.3077  0.1024 -0.2723
 1496ANI     HC20938   4.772   0.615   3.361 -0.0189  0.5345  0.4567
 1496ANI     HC20939   4.771   0.797   3.508  2.1698 -1.2517 -1.6032
 1496ANI     HC20940   4.654   1.007   3.458 -0.2009 -0.5325  0.6347
 1496ANI     HC20941   4.537   1.028   3.239 -1.0849 -1.6116 -3.0268
 1496ANI     HC20942   4.526   0.836   3.080 -0.3257  1.6924  0.0724
 1496ANI     HN20943   4.706   0.544   3.137 -1.1866 -0.9254 -0.1503
 1496ANI     HN20944   4.643   0.632   3.029  1.7588 -0.3468 -0.1165
 1497ANI     CN20945   2.935   2.970   2.141 -0.2494 -0.3586  0.1353
 1497ANI     CH20946   2.809   2.928   2.185 -0.9026  0.9411 -0.4787
 1497ANI     CH20947   2.767   2.948   2.317  0.2504 -0.4558  0.1123
 1497ANI     CH20948   2.859   3.011   2.402 -0.1493  0.4664 -0.1356
 1497ANI     CH20949   2.990   3.043   2.364  0.0455 -0.3809 -0.1873
 1497ANI     CH20950   3.027   3.029   2.230 -0.1595  0.1697 -0.3044
 1497ANI     NH20951   2.957   2.944   2.012  0.0535 -0.6155  0.2353
 1497ANI     HC20952   2.751   2.873   2.113  0.9043  1.4110 -2.3588
 1497ANI     HC20953   2.671   2.915   2.351 -0.1046  0.8392  0.3931
 1497ANI     HC20954   2.825   3.035   2.502 -0.4125 -1.3082  0.2149
 1497ANI     HC20955   3.047   3.097   2.438  2.0098  1.4369 -2.9404
 1497ANI     HC20956   3.126   3.047   2.192  1.0500 -0.9781  2.1847
 1497ANI     HN20957   2.885   2.948   1.940  1.1067 -1.4969 -0.8724
 1497ANI     HN20958   3.027   3.004   1.971 -0.3707 -0.9764 -1.0407
 1498ANI     CN20959   6.009   3.952   3.100 -0.3376 -0.2231  0.0357
 1498ANI     CH20960   5.916   4.032   3.033  0.0509  0.1043 -0.1121
 1498ANI     CH20961   5.963   4.152   2.978 -0.2454  0.3742  0.2128
 1498ANI     CH20962   6.100   4.181   2.986 -0.1499  0.0545 -0.1805
 1498ANI     CH20963   6.190   4.105   3.062 -0.2023  0.0402 -0.1329
 1498ANI     CH20964   6.145   3.981   3.110 -0.3529 -0.0087 -0.4010
 1498ANI     NH20965   5.967   3.848   3.174 -0.4568 -0.1579  0.0590
 1498ANI     HC20966   5.810   4.009   3.033  0.2201 -0.6611 -0.0545
 1498ANI     HC20967   5.900   4.227   2.932  1.2070  0.3140 -2.0040
 1498ANI     HC20968   6.123   4.282   2.955  0.3758  1.0133  3.1209
 1498ANI     HC20969   6.287   4.141   3.093 -0.3148 -0.4927  0.8444
 1498ANI     HC20970   6.205   3.926   3.180  2.1938  2.1251 -0.8199
 1498ANI     HN20971   6.035   3.833   3.247 -0.1098 -0.4360 -0.3300
 1498ANI     HN20972   5.881   3.871   3.223 -0.3186 -0.2102  0.3257
 1499ANI     CN20973   3.461   3.112   2.497  0.0203 -0.4715  0.3183
 1499ANI     CH20974   3.425   3.111   2.633  0.5070 -0.1305  0.4527
 1499ANI     CH20975   3.321   3.027   2.673  0.6911 -0.3676  0.4341
 1499ANI     CH20976   3.258   2.941   2.583  0.3747 -0.5684  0.8459
 1499ANI     CH20977   3.300   2.935   2.450 -0.2325  0.0488  0.6213
 1499ANI     CH20978   3.405   3.019   2.409 -0.6285  0.2368 -0.0149
 1499ANI     NH20979   3.563   3.188   2.454 -0.2011 -0.0547  0.5252
 1499ANI     HC20980   3.461   3.185   2.703  0.1873 -2.4949  3.2118
 1499ANI     HC20981   3.268   3.034   2.767 -1.6662  1.2054 -0.9662
 1499ANI     HC20982   3.181   2.872   2.615  1.3383 -1.8307  0.4991
 1499ANI     HC20983   3.256   2.863   2.382  4.1746 -2.3688  0.0981
 1499ANI     HC20984   3.436   3.013   2.306 -2.8247  0.5363 -0.7273
 1499ANI     HN20985   3.607   3.252   2.518 -0.2039 -1.6661  2.1895
 1499ANI     HN20986   3.576   3.191   2.354  2.1404  0.0363  0.8064
 1500ANI     CN20987   1.803   3.056   5.567 -0.1360  0.4396  0.1331
 1500ANI     CH20988   1.687   3.061   5.488 -0.1241 -0.1030  0.0817
 1500ANI     CH20989   1.700   3.077   5.349  0.6517  1.0095  0.2693
 1500ANI     CH20990   1.826   3.072   5.290  0.4314 -0.0144 -0.1191
 1500ANI     CH20991   1.940   3.056   5.369  0.3356  0.5235  0.1293
 1500ANI     CH20992   1.930   3.049   5.509 -0.2044 -0.2314  0.0588
 1500ANI     NH20993   1.792   3.063   5.700 -0.3178 -0.0743  0.1471
 1500ANI     HC20994   1.591   3.061   5.536  0.3139 -2.4690  1.0094
 1500ANI     HC20995   1.615   3.093   5.285 -0.6356  0.2954  1.7592
 1500ANI     HC20996   1.828   3.077   5.182  0.2697 -1.7405 -0.2217
 1500ANI     HC20997   2.037   3.050   5.321  1.2013  0.7490  1.8162
 1500ANI     HC20998   2.013   3.031   5.576 -0.9318 -1.1735  0.7109
 1500ANI     HN20999   1.699   3.041   5.735 -0.1956  0.4875  0.8401
 1500ANI     HN21000   1.853   2.994   5.742  0.1587  0.7088  0.7519
 1501ANI     CN21001   2.838   0.936   0.864 -0.4918  0.3219  0.3847
 1501ANI     CH21002   2.931   0.934   0.760 -0.2642  0.0775  0.5915
 1501ANI     CH21003   2.921   0.840   0.656 -0.2929  0.3938  0.3057
 1501ANI     CH21004   2.807   0.760   0.649  0.1263 -0.1528 -0.3632
 1501ANI     CH21005   2.715   0.760   0.755 -0.1527 -0.5706 -0.6049
 1501ANI     CH21006   2.732   0.845   0.865 -0.5024  0.3118 -1.2299
 1501ANI     NH21007   2.851   1.029   0.960 -0.2045  0.0824  0.5783
 1501ANI     HC21008   3.013   1.004   0.756  0.2901 -0.5157  1.4348
 1501ANI     HC21009   2.992   0.828   0.576 -0.8297  2.9873 -0.6048
 1501ANI     HC21010   2.804   0.686   0.571  0.1146 -0.9803  0.4086
 1501ANI     HC21011   2.628   0.697   0.741 -0.4771 -0.5941  1.3594
 1501ANI     HC21012   2.653   0.852   0.938  0.2405 -0.1775 -0.3764
 1501ANI     HN21013   2.930   1.092   0.948  0.1635 -0.1265  1.8003
 1501ANI     HN21014   2.765   1.078   0.980 -0.3360  0.2374 -0.3599
 1502ANI     CN21015   2.115   4.281   5.490 -0.0714  0.1058 -0.1037
 1502ANI     CH21016   2.085   4.272   5.354  0.5439  0.3903 -0.2568
 1502ANI     CH21017   1.951   4.272   5.312  0.3857 -0.1664  0.2428
 1502ANI     CH21018   1.847   4.277   5.406  0.1847 -0.4654  0.0361
 1502ANI     CH21019   1.876   4.301   5.540 -0.0709  0.3459 -0.0533
 1502ANI     CH21020   2.010   4.306   5.580 -0.0387  0.5322 -0.1852
 1502ANI     NH21021   2.240   4.272   5.537 -0.1763  0.1631  0.1885
 1502ANI     HC21022   2.155   4.270   5.272 -0.4814 -0.2808 -1.1374
 1502ANI     HC21023   1.922   4.287   5.209  0.9300  0.6803  0.2081
 1502ANI     HC21024   1.748   4.288   5.365  0.4629  0.9656 -0.2490
 1502ANI     HC21025   1.801   4.313   5.617  0.4182  1.8739  0.1975
 1502ANI     HC21026   2.026   4.321   5.686  2.1704  1.7470 -0.6414
 1502ANI     HN21027   2.304   4.222   5.477  0.3144  0.9787  0.0304
 1502ANI     HN21028   2.237   4.226   5.627 -2.3180 -1.3451 -0.5926
 1503ANI     CN21029   6.184   3.287   1.010 -0.4350 -0.1758  0.0410
 1503ANI     CH21030   6.169   3.173   0.930 -0.9752  0.0776 -0.2227
 1503ANI     CH21031   6.196   3.047   0.985 -0.4134  0.3198  0.0610
 1503ANI     CH21032   6.208   3.032   1.124 -0.3483 -0.6759 -0.0536
 1503ANI     CH21033   6.230   3.144   1.205  0.4398 -0.2746 -0.8131
 1503ANI     CH21034   6.209   3.269   1.147  0.0178  0.0248 -0.0141
 1503ANI     NH21035   6.189   3.408   0.953 -0.0030 -0.2418 -0.0622
 1503ANI     HC21036   6.149   3.183   0.824 -0.2960  0.3912 -0.3220
 1503ANI     HC21037   6.184   2.959   0.924  0.4050  1.0351 -1.1510
 1503ANI     HC21038   6.220   2.933   1.166 -0.0604  0.1803  1.9169
 1503ANI     HC21039   6.247   3.130   1.311 -0.7386 -0.4774 -0.6461
 1503ANI     HC21040   6.232   3.358   1.203 -1.0465 -0.2765  0.9308
 1503ANI     HN21041   6.161   3.423   0.857 -0.1373  0.4900  0.0872
 1503ANI     HN21042   6.170   3.489   1.011  0.2057 -0.1437 -0.1331
 1504ANI     CN21043   3.995   2.053   4.559  0.6470 -0.3210 -0.1866
 1504ANI     CH21044   3.937   2.168   4.502 -0.1270 -0.7323 -0.2316
 1504ANI     CH21045   3.876   2.165   4.376 -0.6532  0.1985  0.0004
 1504ANI     CH21046   3.878   2.046   4.303 -0.1863  0.1342  0.1197
 1504ANI     CH21047   3.912   1.926   4.366  0.0981 -0.0979 -0.4681
 1504ANI     CH21048   3.975   1.932   4.491 -0.5816 -0.1597 -0.1224
 1504ANI     NH21049   4.049   2.062   4.681  0.0412  0.2221  0.0472
 1504ANI     HC21050   3.940   2.264   4.550 -3.2143  0.0087 -1.4056
 1504ANI     HC21051   3.846   2.257   4.328  2.7481  1.3438 -0.0314
 1504ANI     HC21052   3.834   2.047   4.205 -2.1689 -2.0211  0.9574
 1504ANI     HC21053   3.923   1.836   4.308  2.2641  0.1010 -0.4290
 1504ANI     HC21054   3.997   1.840   4.544  2.8448  0.5883 -0.1757
 1504ANI     HN21055   4.078   2.155   4.706 -2.9493  1.8904 -2.3500
 1504ANI     HN21056   4.120   1.992   4.701  0.1289 -0.2576 -1.8451
 1505ANI     CN21057   0.455   2.280   1.689  0.0858 -0.1184  0.2084
 1505ANI     CH21058   0.512   2.157   1.724  0.5279 -0.0315 -0.2035
 1505ANI     CH21059   0.428   2.048   1.749  0.0707  0.3691  0.0289
 1505ANI     CH21060   0.290   2.060   1.729  0.0674  0.2550 -0.0214
 1505ANI     CH21061   0.234   2.182   1.688 -0.1189  0.1827  0.0196
 1505ANI     CH21062   0.316   2.294   1.675  0.1417 -0.0428 -0.2942
 1505ANI     NH21063   0.535   2.386   1.677 -0.0748  0.0022  0.1919
 1505ANI     HC21064   0.619   2.146   1.732  0.4758 -0.1486  0.3585
 1505ANI     HC21065   0.470   1.951   1.774 -2.2098 -0.7438 -0.2931
 1505ANI     HC21066   0.228   1.972   1.737 -0.5219  0.7561  1.0710
 1505ANI     HC21067   0.130   2.184   1.658 -0.3471 -1.2312  0.6367
 1505ANI     HC21068   0.274   2.392   1.656 -2.9793 -0.6715  2.7039
 1505ANI     HN21069   0.510   2.453   1.605 -2.8638 -0.7165  0.4549
 1505ANI     HN21070   0.633   2.363   1.663  0.5508  1.9313  1.2838
 1506ANI     CN21071   3.000   4.122   2.604 -0.4820 -0.5022 -0.1991
 1506ANI     CH21072   3.049   4.143   2.474  0.0668 -0.3539  0.0301
 1506ANI     CH21073   3.166   4.217   2.452 -0.4089  0.4454  0.1957
 1506ANI     CH21074   3.237   4.269   2.560 -0.6500  0.7540  0.2095
 1506ANI     CH21075   3.191   4.239   2.689 -0.3010 -0.0183  0.1586
 1506ANI     CH21076   3.067   4.179   2.713 -0.1669 -0.5210 -0.3788
 1506ANI     NH21077   2.891   4.046   2.620 -0.4791 -0.4509  0.0600
 1506ANI     HC21078   2.988   4.114   2.390 -0.8697  0.5485  0.3847
 1506ANI     HC21079   3.204   4.232   2.352  0.5476 -0.0781  0.4805
 1506ANI     HC21080   3.336   4.309   2.545 -0.1866  0.3088  1.8932
 1506ANI     HC21081   3.256   4.260   2.773 -1.1009  1.8639  0.3111
 1506ANI     HC21082   3.036   4.165   2.816 -0.6249  2.4476 -0.0598
 1506ANI     HN21083   2.826   4.062   2.544 -1.4993 -4.3277 -0.0140
 1506ANI     HN21084   2.842   4.065   2.706 -0.5037  1.2575 -0.3227
 1507ANI     CN21085   4.750   5.931   5.524 -0.1294 -0.1372 -0.2305
 1507ANI     CH21086   4.616   5.898   5.549 -0.3009  0.7950  0.1034
 1507ANI     CH21087   4.575   5.870   5.680 -0.3319  0.7823  0.0910
 1507ANI     CH21088   4.666   5.875   5.786 -0.1718 -0.1866  0.0066
 1507ANI     CH21089   4.798   5.915   5.763 -0.1383 -0.4488 -0.2507
 1507ANI     CH21090   4.840   5.935   5.631 -0.2936  0.7731 -0.1209
 1507ANI     NH21091   4.790   5.945   5.397 -0.7720 -0.0642 -0.4266
 1507ANI     HC21092   4.547   5.892   5.467 -1.0569 -1.8400  0.9073
 1507ANI     HC21093   4.474   5.839   5.705  0.2086 -0.5862  0.6227
 1507ANI     HC21094   4.618   5.872   5.883  0.1421  0.1318  0.1716
 1507ANI     HC21095   4.872   5.928   5.841 -0.5935 -1.5503  0.3875
 1507ANI     HC21096   4.946   5.951   5.617 -0.3306  3.9531  2.4745
 1507ANI     HN21097   4.883   5.912   5.372 -0.8896  1.7890 -3.5315
 1507ANI     HN21098   4.717   5.904   5.342 -0.7278 -0.2705 -0.3335
 1508ANI     CN21099   2.991   5.782   5.669  0.2893  0.5352 -0.1772
 1508ANI     CH21100   2.977   5.643   5.670 -0.1342  0.5785  0.2914
 1508ANI     CH21101   3.056   5.571   5.760 -0.1146 -0.1587 -0.2995
 1508ANI     CH21102   3.132   5.640   5.856 -0.5370  0.2300 -0.2382
 1508ANI     CH21103   3.140   5.780   5.859 -0.0121  0.1980 -0.0078
 1508ANI     CH21104   3.078   5.851   5.755  0.4504  0.3426 -0.1851
 1508ANI     NH21105   2.937   5.853   5.569 -0.1553  0.0987 -0.2460
 1508ANI     HC21106   2.912   5.586   5.604  0.6184  1.4718 -1.2608
 1508ANI     HC21107   3.043   5.464   5.762  1.3450 -0.3489 -0.5533
 1508ANI     HC21108   3.181   5.579   5.930 -2.3104 -1.5524 -0.4855
 1508ANI     HC21109   3.207   5.831   5.926 -0.4765 -0.1423  0.7193
 1508ANI     HC21110   3.089   5.957   5.743 -0.9437  0.4681 -0.4588
 1508ANI     HN21111   2.867   5.802   5.517  0.4313 -0.0309 -0.9168
 1508ANI     HN21112   2.887   5.924   5.620 -0.3412 -0.0404 -0.2337
 1509ANI     CN21113   0.936   3.658   0.605 -0.1647  0.2288  0.0427
 1509ANI     CH21114   1.048   3.740   0.623 -0.2471  0.3383  0.0587
 1509ANI     CH21115   1.150   3.744   0.527 -0.3488 -0.0192 -0.0662
 1509ANI     CH21116   1.144   3.655   0.420  0.3451 -0.1641  0.0153
 1509ANI     CH21117   1.033   3.571   0.405  0.2955 -0.1373  0.2300
 1509ANI     CH21118   0.924   3.577   0.492  0.2056  0.0871  0.1038
 1509ANI     NH21119   0.850   3.656   0.708  0.2842 -0.0383  0.4162
 1509ANI     HC21120   1.059   3.808   0.706  0.2640 -0.3080  0.5283
 1509ANI     HC21121   1.231   3.815   0.540 -0.6882  0.2717  0.4903
 1509ANI     HC21122   1.228   3.652   0.352 -0.7662  0.6274 -1.4262
 1509ANI     HC21123   1.010   3.502   0.325  1.1991  1.4094 -1.4109
 1509ANI     HC21124   0.838   3.511   0.484  1.3762 -1.6281  1.2636
 1509ANI     HN21125   0.887   3.606   0.787 -0.6432  0.4125  1.1517
 1509ANI     HN21126   0.769   3.601   0.680  0.6986  0.0169 -0.9455
 1510ANI     CN21127   5.999   5.988   3.682  0.7296 -0.0303  0.0109
 1510ANI     CH21128   5.912   6.032   3.582  0.6294  0.7723  0.4477
 1510ANI     CH21129   5.964   6.123   3.489  0.2444 -0.2789 -0.8127
 1510ANI     CH21130   6.090   6.183   3.503  0.3126 -0.4008 -0.8962
 1510ANI     CH21131   6.171   6.138   3.607  0.0763 -0.1488 -0.6041
 1510ANI     CH21132   6.127   6.043   3.700  0.3440  0.7312  0.4442
 1510ANI     NH21133   5.965   5.899   3.777 -0.0779  0.6607  0.3699
 1510ANI     HC21134   5.814   5.987   3.578  0.5110  1.0856 -0.4046
 1510ANI     HC21135   5.895   6.144   3.408  1.5300 -1.2076 -2.1726
 1510ANI     HC21136   6.125   6.257   3.432  0.1956 -1.5036 -2.1356
 1510ANI     HC21137   6.272   6.173   3.621 -0.0778 -0.2470  0.8840
 1510ANI     HC21138   6.192   6.007   3.778  0.1851 -0.7160 -0.0702
 1510ANI     HN21139   6.038   5.843   3.818  1.7795  3.3101  0.7800
 1510ANI     HN21140   5.886   5.836   3.768 -0.8348  1.6643 -0.2085
 1511ANI     CN21141   0.614   5.317   2.753  0.5309 -0.7603 -0.1982
 1511ANI     CH21142   0.521   5.250   2.834 -0.1166  0.0827 -0.2386
 1511ANI     CH21143   0.557   5.163   2.937 -0.5609  0.3128  0.1128
 1511ANI     CH21144   0.693   5.131   2.948 -0.4097  0.9266  0.0215
 1511ANI     CH21145   0.789   5.194   2.868  0.4855  0.0840  0.4191
 1511ANI     CH21146   0.750   5.291   2.775  0.6290  0.4390  0.7225
 1511ANI     NH21147   0.575   5.413   2.669 -0.0369 -0.1948  0.6965
 1511ANI     HC21148   0.414   5.256   2.821 -0.3007 -1.7486  0.3440
 1511ANI     HC21149   0.487   5.111   3.001  1.3248 -0.8553  1.2751
 1511ANI     HC21150   0.731   5.071   3.030 -2.0672 -2.2664 -1.4659
 1511ANI     HC21151   0.890   5.165   2.891  0.9352  1.2000 -0.1255
 1511ANI     HC21152   0.819   5.349   2.716 -0.0593  0.3826 -0.1488
 1511ANI     HN21153   0.486   5.443   2.706 -0.1657  0.7625 -0.3282
 1511ANI     HN21154   0.643   5.489   2.672  0.6398 -0.8105  1.0598
 1512ANI     CN21155   1.491   1.986   4.624  0.9067 -0.1097  0.7217
 1512ANI     CH21156   1.587   2.045   4.541 -0.3268  0.2881 -0.4572
 1512ANI     CH21157   1.636   2.173   4.572  0.2932 -0.1034  0.2037
 1512ANI     CH21158   1.585   2.237   4.685 -0.0889 -0.1157  0.0380
 1512ANI     CH21159   1.497   2.175   4.776 -0.3108  0.0859 -0.0384
 1512ANI     CH21160   1.449   2.049   4.742  0.0479 -0.1862  0.4602
 1512ANI     NH21161   1.442   1.864   4.597 -0.1030  0.3417  0.4729
 1512ANI     HC21162   1.643   1.993   4.464  1.7703 -1.0179  1.8667
 1512ANI     HC21163   1.714   2.212   4.509 -0.1901 -1.1687 -1.0951
 1512ANI     HC21164   1.622   2.337   4.702 -1.2754  0.0330  1.9259
 1512ANI     HC21165   1.461   2.228   4.863 -2.4268  0.8047 -1.3209
 1512ANI     HC21166   1.367   2.006   4.797  1.6629 -2.6146  1.0786
 1512ANI     HN21167   1.403   1.874   4.505  0.4577  0.7827  0.2822
 1512ANI     HN21168   1.371   1.833   4.661  0.4739 -1.3827  0.2912
 1513ANI     CN21169   5.887   0.747   5.779 -0.1206 -0.2137 -0.0787
 1513ANI     CH21170   5.824   0.725   5.902 -0.4168 -0.1510 -0.2181
 1513ANI     CH21171   5.753   0.830   5.962  0.2081  0.1226  0.0506
 1513ANI     CH21172   5.747   0.959   5.907 -0.0795  0.1281  0.0914
 1513ANI     CH21173   5.821   0.983   5.791 -0.1985 -0.1475 -0.0402
 1513ANI     CH21174   5.886   0.877   5.726 -0.4519 -0.2409 -0.1443
 1513ANI     NH21175   5.947   0.644   5.719 -0.3989 -0.5492  0.2139
 1513ANI     HC21176   5.818   0.632   5.957 -0.1604  0.9073  1.6269
 1513ANI     HC21177   5.713   0.809   6.060 -0.0006 -0.0437 -0.0680
 1513ANI     HC21178   5.700   1.037   5.965  0.6735  0.9969 -0.4606
 1513ANI     HC21179   5.830   1.075   5.736  2.0189 -0.8257 -0.8837
 1513ANI     HC21180   5.931   0.906   5.632 -1.7155  1.4343 -0.2621
 1513ANI     HN21181   5.990   0.647   5.627  1.6132 -1.8220  1.0702
 1513ANI     HN21182   5.925   0.550   5.749  0.3237 -1.3094 -1.5046
 1514ANI     CN21183   2.276   5.491   0.707  0.2636  0.2117  0.0045
 1514ANI     CH21184   2.362   5.500   0.817 -0.1884  0.3032  0.3510
 1514ANI     CH21185   2.498   5.468   0.803 -0.4864 -0.7257 -0.2443
 1514ANI     CH21186   2.548   5.436   0.677 -0.3993  0.1135 -0.4228
 1514ANI     CH21187   2.464   5.433   0.565 -0.0753  0.6144 -0.6808
 1514ANI     CH21188   2.326   5.455   0.581 -0.0641  0.2937 -0.1499
 1514ANI     NH21189   2.148   5.525   0.724  0.1236 -0.3721  0.1061
 1514ANI     HC21190   2.339   5.543   0.913  0.8980  0.5831  0.4979
 1514ANI     HC21191   2.565   5.482   0.887 -1.9959 -4.0487  1.6614
 1514ANI     HC21192   2.655   5.425   0.665 -0.2747 -1.1601  1.6754
 1514ANI     HC21193   2.512   5.415   0.470  0.5503  1.6489 -0.5647
 1514ANI     HC21194   2.264   5.453   0.492 -1.3349  2.3422  0.6484
 1514ANI     HN21195   2.132   5.560   0.817  3.3122  1.9353 -0.1558
 1514ANI     HN21196   2.109   5.589   0.657 -0.4569 -2.4377 -1.5863
 1515ANI     CN21197   0.452   1.099   5.211 -0.5124  0.1770 -0.6537
 1515ANI     CH21198   0.366   1.180   5.135 -0.4825  0.2420 -0.6176
 1515ANI     CH21199   0.271   1.116   5.054 -0.4407  0.2913 -0.7046
 1515ANI     CH21200   0.252   0.978   5.054 -0.1889  0.2539  0.3590
 1515ANI     CH21201   0.335   0.898   5.134 -0.1849  0.0895  0.1910
 1515ANI     CH21202   0.438   0.959   5.206 -0.2889  0.1164  0.3167
 1515ANI     NH21203   0.554   1.148   5.282 -0.5613 -0.4578 -0.1368
 1515ANI     HC21204   0.379   1.287   5.131  0.5469  0.1336 -0.2594
 1515ANI     HC21205   0.207   1.162   4.980 -0.5268 -0.5938 -1.1849
 1515ANI     HC21206   0.179   0.932   4.989 -1.0809 -0.4203  1.8016
 1515ANI     HC21207   0.328   0.790   5.137  2.8931 -0.1159  1.5150
 1515ANI     HC21208   0.499   0.895   5.268 -1.2933 -0.2643  0.9245
 1515ANI     HN21209   0.521   1.213   5.351  0.8441  0.9508 -0.7647
 1515ANI     HN21210   0.602   1.078   5.337  0.7109  1.5042  1.3200
 1516ANI     CN21211   1.615   3.523   0.440  0.1303 -0.3406 -0.3146
 1516ANI     CH21212   1.701   3.428   0.496  0.3333 -0.2864 -0.5322
 1516ANI     CH21213   1.653   3.346   0.600  0.1216 -0.1236 -0.5010
 1516ANI     CH21214   1.520   3.348   0.642  0.2381 -0.4524 -0.1185
 1516ANI     CH21215   1.432   3.439   0.583  0.4396  0.0112  0.2923
 1516ANI     CH21216   1.483   3.528   0.487  0.3545  0.0446  0.2777
 1516ANI     NH21217   1.663   3.604   0.345  0.3816 -0.0534  0.0600
 1516ANI     HC21218   1.806   3.432   0.475  0.7442 -1.2540  1.1982
 1516ANI     HC21219   1.733   3.289   0.645 -0.0478 -0.4634 -0.6322
 1516ANI     HC21220   1.480   3.288   0.723 -3.1704  0.5116 -0.9864
 1516ANI     HC21221   1.330   3.443   0.619 -0.1739 -0.2842 -1.3527
 1516ANI     HC21222   1.420   3.601   0.439 -0.3619 -0.1779  0.8729
 1516ANI     HN21223   1.716   3.544   0.283  2.6365  2.6806 -0.7937
 1516ANI     HN21224   1.582   3.642   0.300  0.8935 -1.7063 -2.3704
 1517ANI     CN21225   1.986   4.020   3.219  0.1670 -0.2208 -0.4132
 1517ANI     CH21226   2.094   3.940   3.261 -0.2018 -0.3181  0.3577
 1517ANI     CH21227   2.082   3.805   3.297  0.1807 -0.3905  0.2131
 1517ANI     CH21228   1.958   3.745   3.272 -0.0548 -0.1431  0.7840
 1517ANI     CH21229   1.852   3.819   3.219  0.1935  0.0266  0.5262
 1517ANI     CH21230   1.864   3.957   3.194 -0.0003 -0.0568 -0.0131
 1517ANI     NH21231   2.001   4.148   3.185  0.5692 -0.1235  0.1313
 1517ANI     HC21232   2.188   3.992   3.265 -0.9300  1.1945 -1.2684
 1517ANI     HC21233   2.166   3.746   3.329  0.1233 -1.0964 -0.9089
 1517ANI     HC21234   1.940   3.643   3.302 -3.1217  0.9544  2.9258
 1517ANI     HC21235   1.757   3.770   3.206  1.5929 -2.7595  0.5016
 1517ANI     HC21236   1.782   3.993   3.133  0.6774 -2.5351 -2.5176
 1517ANI     HN21237   1.922   4.198   3.224  0.4279 -0.6694  0.5421
 1517ANI     HN21238   2.083   4.186   3.230 -0.0558 -0.6927  1.7980
 1518ANI     CN21239   5.960   5.380   5.574  0.0649 -0.0005  0.6930
 1518ANI     CH21240   6.035   5.404   5.458  0.2672 -0.3679  0.7464
 1518ANI     CH21241   6.106   5.301   5.396 -0.5619 -0.3883 -0.1664
 1518ANI     CH21242   6.095   5.172   5.450  0.2978 -0.2834  0.2577
 1518ANI     CH21243   6.011   5.149   5.559 -0.5975 -0.2075 -0.4140
 1518ANI     CH21244   5.946   5.252   5.630  0.1384 -0.1991  0.2569
 1518ANI     NH21245   5.882   5.479   5.618 -0.2981 -0.2244  0.5560
 1518ANI     HC21246   6.054   5.502   5.417  2.0827 -1.7658 -1.9018
 1518ANI     HC21247   6.183   5.320   5.323 -1.4766  0.1525 -1.0084
 1518ANI     HC21248   6.160   5.094   5.414 -3.8505 -4.2178  0.8594
 1518ANI     HC21249   6.008   5.047   5.596 -2.8317 -0.7883 -2.1006
 1518ANI     HC21250   5.900   5.229   5.724  0.5477 -0.0644  0.4894
 1518ANI     HN21251   5.900   5.563   5.566  0.7320 -0.5951  0.3096
 1518ANI     HN21252   5.781   5.467   5.618 -0.2078 -1.0245 -0.9802
 1519ANI     CN21253   5.216   4.346   3.901  0.0695 -0.5242 -0.1051
 1519ANI     CH21254   5.268   4.476   3.902 -0.1440 -0.4415  0.3950
 1519ANI     CH21255   5.240   4.567   4.004  0.4263 -0.2047  0.3454
 1519ANI     CH21256   5.138   4.537   4.096  0.1860 -0.3344  0.0386
 1519ANI     CH21257   5.080   4.410   4.091 -0.3196 -0.1276  0.6082
 1519ANI     CH21258   5.125   4.312   4.001  0.5640  0.2644  0.6176
 1519ANI     NH21259   5.257   4.257   3.809  0.7067 -0.2720 -0.0740
 1519ANI     HC21260   5.353   4.489   3.836  0.1506 -0.3124  0.7954
 1519ANI     HC21261   5.289   4.663   4.008 -0.0596  0.0647 -0.0696
 1519ANI     HC21262   5.116   4.602   4.180  1.1456  0.2416 -0.1456
 1519ANI     HC21263   5.015   4.379   4.172  1.0331 -2.0428  1.0164
 1519ANI     HC21264   5.095   4.208   4.001  0.7467  0.2123 -0.2930
 1519ANI     HN21265   5.347   4.264   3.763  0.2708 -2.3936 -1.3095
 1519ANI     HN21266   5.243   4.166   3.851  3.4317  0.7405  3.2274
 1520ANI     CN21267   3.099   0.431   4.440  0.2710  0.2861 -0.0706
 1520ANI     CH21268   3.051   0.537   4.519 -0.0608  0.0356  0.0639
 1520ANI     CH21269   2.953   0.625   4.472 -0.1552  0.0517  0.2929
 1520ANI     CH21270   2.904   0.602   4.343 -0.2323  0.2651  0.2849
 1520ANI     CH21271   2.937   0.488   4.269  0.1289  0.1866  0.5669
 1520ANI     CH21272   3.042   0.408   4.314 -0.0556 -0.2732  0.1805
 1520ANI     NH21273   3.203   0.358   4.482 -0.1074  0.2279  0.7757
 1520ANI     HC21274   3.096   0.548   4.617  2.0692 -0.7321 -0.7920
 1520ANI     HC21275   2.926   0.714   4.528  0.9942 -0.3271  1.4806
 1520ANI     HC21276   2.853   0.688   4.301  0.5805  0.7652  0.3043
 1520ANI     HC21277   2.889   0.473   4.174 -1.1477 -0.4997  1.3112
 1520ANI     HC21278   3.083   0.338   4.242  0.1761  0.5423 -0.4883
 1520ANI     HN21279   3.199   0.265   4.444  0.7458 -0.7691  3.0299
 1520ANI     HN21280   3.216   0.358   4.582 -1.3624 -1.0558  0.9555
 1521ANI     CN21281   3.278   2.774   0.347 -0.2554 -0.4603 -0.2844
 1521ANI     CH21282   3.244   2.723   0.472 -0.1668  0.2614  0.0394
 1521ANI     CH21283   3.281   2.590   0.500  0.3720  0.5325  0.6348
 1521ANI     CH21284   3.361   2.519   0.410  0.5846  0.9508  0.4907
 1521ANI     CH21285   3.413   2.577   0.294  0.2448 -0.2654 -0.2858
 1521ANI     CH21286   3.371   2.708   0.265 -0.2493 -0.4296 -0.3025
 1521ANI     NH21287   3.247   2.901   0.315  0.3146 -0.2756 -0.1109
 1521ANI     HC21288   3.195   2.787   0.544 -0.4998 -1.0449  0.9928
 1521ANI     HC21289   3.268   2.552   0.600  1.0119  1.8305  1.2213
 1521ANI     HC21290   3.383   2.417   0.437  0.8216  1.3349  1.7519
 1521ANI     HC21291   3.479   2.531   0.222  0.0028 -2.9928  1.2028
 1521ANI     HC21292   3.400   2.755   0.173 -1.4514  1.5287  0.2886
 1521ANI     HN21293   3.194   2.898   0.229 -1.3382 -0.9305  0.9064
 1521ANI     HN21294   3.185   2.941   0.383  1.0348 -0.2007  0.5186
 1522ANI     CN21295   2.101   4.957   5.917  0.1462 -0.4170 -0.0496
 1522ANI     CH21296   2.167   5.059   5.846  0.1968 -0.5137 -0.1426
 1522ANI     CH21297   2.180   5.049   5.707  0.1062  0.4498 -0.2195
 1522ANI     CH21298   2.122   4.945   5.634 -0.1332  0.1592  0.3877
 1522ANI     CH21299   2.070   4.835   5.704  0.6627 -0.6560 -0.2924
 1522ANI     CH21300   2.057   4.847   5.843 -0.2899  0.0051 -0.4291
 1522ANI     NH21301   2.105   4.966   6.051 -0.5760 -0.0307 -0.0516
 1522ANI     HC21302   2.204   5.143   5.903 -1.3519 -0.4390  0.7924
 1522ANI     HC21303   2.230   5.128   5.652  0.4313 -0.3967 -1.1588
 1522ANI     HC21304   2.119   4.943   5.526  0.3046  1.1061  0.3558
 1522ANI     HC21305   2.027   4.754   5.648 -1.4366 -0.2844  0.7298
 1522ANI     HC21306   2.018   4.758   5.891  0.1427  0.4423  0.7582
 1522ANI     HN21307   2.123   4.872   6.082 -1.7607 -0.1509  0.2799
 1522ANI     HN21308   2.175   5.029   6.088 -0.7209  0.5922 -0.8193
 1523ANI     CN21309   0.436   1.192   2.871  0.5627 -0.0104  0.3759
 1523ANI     CH21310   0.500   1.300   2.809 -0.1863 -0.0256 -0.4430
 1523ANI     CH21311   0.620   1.278   2.741  0.2881 -0.5335  0.5318
 1523ANI     CH21312   0.691   1.158   2.748  0.1792 -0.6085  0.3441
 1523ANI     CH21313   0.637   1.056   2.827  0.1833 -0.6274  0.3230
 1523ANI     CH21314   0.505   1.070   2.872 -0.0722 -0.3872 -0.4934
 1523ANI     NH21315   0.313   1.192   2.925  0.4117  0.3556  0.0337
 1523ANI     HC21316   0.459   1.399   2.817  2.4740  0.9459  2.3276
 1523ANI     HC21317   0.669   1.354   2.681 -1.1666  0.3357  0.4307
 1523ANI     HC21318   0.789   1.150   2.702 -0.2950  1.1669 -1.0218
 1523ANI     HC21319   0.690   0.964   2.844  0.6754 -0.0838  1.8864
 1523ANI     HC21320   0.456   0.985   2.915 -0.2859 -0.4335 -0.8287
 1523ANI     HN21321   0.307   1.265   2.994 -0.3658 -0.7883  1.2003
 1523ANI     HN21322   0.309   1.107   2.979 -1.8642 -0.3410 -1.1638
 1524ANI     CN21323   3.127   4.017   1.816  0.1898  0.1792  0.0011
 1524ANI     CH21324   3.073   4.117   1.897  0.1256 -0.3295  0.5966
 1524ANI     CH21325   3.069   4.093   2.035  0.3216  0.1603  0.6888
 1524ANI     CH21326   3.110   3.972   2.090 -0.3556 -0.5347 -0.3246
 1524ANI     CH21327   3.146   3.867   2.003  0.1858 -0.2258 -0.4771
 1524ANI     CH21328   3.160   3.890   1.866 -0.1314 -0.0959 -0.4887
 1524ANI     NH21329   3.161   4.048   1.691  0.5986  0.3467  0.1518
 1524ANI     HC21330   3.051   4.215   1.855 -0.4893 -0.0625  1.5290
 1524ANI     HC21331   3.042   4.174   2.102 -0.0606 -0.2792  1.0697
 1524ANI     HC21332   3.110   3.951   2.195  0.6934 -0.8845 -0.3885
 1524ANI     HC21333   3.155   3.771   2.051  0.0638  0.1862  0.3937
 1524ANI     HC21334   3.206   3.812   1.806 -1.1840 -1.6349  0.6734
 1524ANI     HN21335   3.249   4.015   1.653  1.3455  1.2637  1.0431
 1524ANI     HN21336   3.164   4.145   1.662 -0.9272  0.6320  0.9360
 1525ANI     CN21337   3.685   1.353   1.929 -0.3856 -0.4911  0.3326
 1525ANI     CH21338   3.790   1.354   2.022 -0.2728 -0.0026  0.1984
 1525ANI     CH21339   3.917   1.308   1.986 -0.2654 -0.1541  0.4173
 1525ANI     CH21340   3.937   1.256   1.858 -0.0425  0.7411  0.0863
 1525ANI     CH21341   3.838   1.269   1.760  0.1873 -0.3752 -0.3071
 1525ANI     CH21342   3.710   1.311   1.798  0.4403 -0.2487  0.4123
 1525ANI     NH21343   3.562   1.391   1.964 -0.3302 -0.2076  0.2176
 1525ANI     HC21344   3.766   1.390   2.122 -1.4230  0.9553 -0.3980
 1525ANI     HC21345   3.980   1.300   2.073  0.4493 -0.6447 -0.1440
 1525ANI     HC21346   4.022   1.199   1.824 -1.7941 -1.9066  0.0114
 1525ANI     HC21347   3.857   1.232   1.660  1.0099  1.9354 -1.0484
 1525ANI     HC21348   3.627   1.317   1.729 -1.6160 -1.9922  2.7033
 1525ANI     HN21349   3.557   1.350   2.056 -0.1444 -0.4064  0.1379
 1525ANI     HN21350   3.495   1.347   1.902  0.4974 -2.4114  0.8370
 1526ANI     CN21351   6.128   3.672   1.140  0.0596 -0.3529  0.0033
 1526ANI     CH21352   6.262   3.699   1.172  0.1118 -0.1310 -0.4087
 1526ANI     CH21353   6.331   3.798   1.101  0.4594 -0.0724  0.0098
 1526ANI     CH21354   6.264   3.867   0.999  0.2067 -0.5367 -0.1372
 1526ANI     CH21355   6.134   3.833   0.959  0.4071 -0.5497 -0.7912
 1526ANI     CH21356   6.065   3.736   1.033  0.4423  0.0125 -0.0048
 1526ANI     NH21357   6.066   3.581   1.217 -0.1233 -0.4249 -0.2290
 1526ANI     HC21358   6.327   3.657   1.247  1.5264 -0.6990 -1.9248
 1526ANI     HC21359   6.434   3.821   1.121  0.0287 -1.3082  4.0161
 1526ANI     HC21360   6.313   3.943   0.940  1.1987 -1.9036 -1.1111
 1526ANI     HC21361   6.090   3.876   0.871  0.6900  0.3400 -0.5042
 1526ANI     HC21362   5.962   3.716   1.007  1.0315 -3.4200  0.0925
 1526ANI     HN21363   6.117   3.554   1.300 -1.0999 -2.1032 -0.1442
 1526ANI     HN21364   5.970   3.595   1.245  0.3238  2.6399 -0.1065
 1527ANI     CN21365   2.147   5.621   5.060  0.1610 -0.3594 -0.1874
 1527ANI     CH21366   2.036   5.611   4.976 -0.3502  0.4112  0.3935
 1527ANI     CH21367   1.924   5.538   5.022 -0.2076  0.0609  0.1854
 1527ANI     CH21368   1.922   5.468   5.142  0.2981  0.0860  0.2101
 1527ANI     CH21369   2.039   5.474   5.220  0.4639 -0.0049 -0.0327
 1527ANI     CH21370   2.149   5.551   5.182  0.1455  0.6636  0.4044
 1527ANI     NH21371   2.256   5.692   5.028  0.2876 -0.3393  0.2877
 1527ANI     HC21372   2.033   5.652   4.877  1.3820 -1.6909 -0.5707
 1527ANI     HC21373   1.833   5.538   4.964 -0.9126  3.0798  1.1761
 1527ANI     HC21374   1.838   5.404   5.164 -0.4202 -0.0026 -2.6499
 1527ANI     HC21375   2.060   5.407   5.302 -0.5282  0.7572  0.8531
 1527ANI     HC21376   2.233   5.561   5.249  0.9958 -0.2584 -0.4991
 1527ANI     HN21377   2.266   5.719   4.931 -0.5156 -0.3115  0.2086
 1527ANI     HN21378   2.342   5.679   5.081 -0.7708 -1.2441  1.8298
 1528ANI     CN21379   3.533   1.544   5.863 -0.2319 -0.1068 -0.6286
 1528ANI     CH21380   3.511   1.487   5.737 -0.3720 -0.3524 -0.4922
 1528ANI     CH21381   3.460   1.357   5.727 -0.3420 -0.4011 -0.0506
 1528ANI     CH21382   3.425   1.287   5.843 -0.0163  0.0135  0.2978
 1528ANI     CH21383   3.442   1.345   5.969 -0.5264  0.4941  0.1442
 1528ANI     CH21384   3.498   1.473   5.979  0.7707 -0.0394 -0.2798
 1528ANI     NH21385   3.594   1.661   5.888  0.1499 -0.6582  1.0815
 1528ANI     HC21386   3.542   1.546   5.652 -0.5723  1.3929  0.6145
 1528ANI     HC21387   3.445   1.321   5.626  0.9474  1.1954 -0.8443
 1528ANI     HC21388   3.386   1.189   5.819  0.8853  0.0268 -1.2926
 1528ANI     HC21389   3.414   1.291   6.058 -1.5266  0.1653 -0.3640
 1528ANI     HC21390   3.512   1.512   6.079  1.3664  0.9039 -0.7198
 1528ANI     HN21391   3.632   1.703   5.805 -0.9392 -1.0468  0.3822
 1528ANI     HN21392   3.662   1.649   5.962 -0.7043  0.9225  2.1576
 1529ANI     CN21393   2.085   1.784   5.412 -0.0201 -0.1467  0.0898
 1529ANI     CH21394   2.151   1.906   5.394 -0.4121  0.0552  0.0287
 1529ANI     CH21395   2.077   2.023   5.371  0.1373  0.2027 -1.0120
 1529ANI     CH21396   1.938   2.020   5.356  0.0090  0.5068  0.1203
 1529ANI     CH21397   1.873   1.897   5.371  0.0750  0.5003  0.3647
 1529ANI     CH21398   1.947   1.780   5.393 -0.0588  0.3951  0.2596
 1529ANI     NH21399   2.157   1.675   5.443  0.2138 -0.1055 -0.3032
 1529ANI     HC21400   2.258   1.914   5.407 -0.6177 -0.2914  2.0842
 1529ANI     HC21401   2.129   2.118   5.372 -1.0848  0.9145  3.2629
 1529ANI     HC21402   1.883   2.110   5.331 -0.9078  0.6018  2.3123
 1529ANI     HC21403   1.766   1.897   5.354  0.2967  0.5504 -1.1105
 1529ANI     HC21404   1.898   1.685   5.408 -1.9084  0.9385 -2.0960
 1529ANI     HN21405   2.256   1.677   5.426  0.2276  0.8921 -0.1509
 1529ANI     HN21406   2.109   1.588   5.424 -3.3182  1.7372 -0.1398
 1530ANI     CN21407   4.170   1.910   3.212  0.1730 -0.3885 -0.0006
 1530ANI     CH21408   4.071   1.848   3.290 -0.2396  0.0374 -0.1816
 1530ANI     CH21409   3.987   1.753   3.231 -0.3631  0.1073 -0.1181
 1530ANI     CH21410   3.999   1.715   3.097  0.2186 -0.3448  0.0615
 1530ANI     CH21411   4.095   1.779   3.019 -0.2498 -0.0268 -0.2557
 1530ANI     CH21412   4.178   1.877   3.076 -0.4831  0.1175 -0.1661
 1530ANI     NH21413   4.254   1.998   3.267 -0.3040  0.6280 -0.8826
 1530ANI     HC21414   4.054   1.870   3.394  0.5966  2.4553 -0.5246
 1530ANI     HC21415   3.917   1.707   3.300  1.0595 -2.7045 -0.4713
 1530ANI     HC21416   3.929   1.652   3.045 -1.2957  0.7983  0.6857
 1530ANI     HC21417   4.105   1.753   2.914  1.2434  0.2965 -0.2191
 1530ANI     HC21418   4.254   1.928   3.019 -0.5511  0.6814  0.2362
 1530ANI     HN21419   4.327   2.009   3.198  2.1266  0.0246  1.5074
 1530ANI     HN21420   4.293   1.961   3.352 -0.6942  0.9238 -0.5697
 1531ANI     CN21421   1.201   2.445   5.985 -0.2687 -0.2870 -0.2434
 1531ANI     CH21422   1.122   2.480   5.874  0.0872  0.6383 -0.2120
 1531ANI     CH21423   1.052   2.380   5.807  0.3233  0.2845  0.0663
 1531ANI     CH21424   1.042   2.253   5.866 -0.3140 -0.0317 -0.6989
 1531ANI     CH21425   1.104   2.225   5.988 -0.3236  0.1566 -0.6501
 1531ANI     CH21426   1.189   2.320   6.046 -0.6663 -0.0393  0.1816
 1531ANI     NH21427   1.282   2.541   6.033  0.3547 -0.7149 -0.4323
 1531ANI     HC21428   1.118   2.582   5.838 -0.5000  0.1371 -1.5622
 1531ANI     HC21429   1.018   2.406   5.707  1.1537  0.8429 -0.0775
 1531ANI     HC21430   0.982   2.176   5.820 -0.3233 -1.3485  1.4672
 1531ANI     HC21431   1.099   2.128   6.036 -1.8068  0.6135  0.1487
 1531ANI     HC21432   1.253   2.291   6.128 -0.3864  0.6097  0.1987
 1531ANI     HN21433   1.339   2.493   6.101 -1.5332  1.1907  2.6073
 1531ANI     HN21434   1.331   2.574   5.951 -0.0025  0.5985 -0.1236
 1532ANI     CN21435   4.029   5.779   4.605 -0.3149 -0.1225 -0.1891
 1532ANI     CH21436   3.895   5.786   4.564 -0.1824 -0.1067 -0.6190
 1532ANI     CH21437   3.859   5.878   4.465  0.1938  0.3853 -0.3027
 1532ANI     CH21438   3.955   5.965   4.413  0.2484  0.1597 -0.5837
 1532ANI     CH21439   4.091   5.948   4.444 -0.0316 -0.6857  0.1983
 1532ANI     CH21440   4.126   5.862   4.549  0.1958 -0.2799  0.4552
 1532ANI     NH21441   4.068   5.682   4.689 -0.1246 -0.1060 -0.2580
 1532ANI     HC21442   3.817   5.727   4.611 -0.3110  0.4041 -0.1873
 1532ANI     HC21443   3.756   5.907   4.449 -0.2192  0.5616  2.4600
 1532ANI     HC21444   3.932   6.041   4.340  1.8239  0.4436 -0.8065
 1532ANI     HC21445   4.155   6.024   4.402  0.6868  1.0169  4.1966
 1532ANI     HC21446   4.231   5.845   4.564  0.0851 -0.2682  1.2701
 1532ANI     HN21447   3.991   5.616   4.698 -1.0726  0.9565 -0.4403
 1532ANI     HN21448   4.141   5.629   4.645  1.2039  2.5003 -1.2858
 1533ANI     CN21449   1.662   3.937   2.719 -0.4396  0.4725  0.8249
 1533ANI     CH21450   1.761   3.990   2.804 -0.0954 -0.3081  0.9170
 1533ANI     CH21451   1.844   3.905   2.877  0.4079 -0.3219  0.3332
 1533ANI     CH21452   1.837   3.767   2.855  0.6244 -0.2079 -0.4591
 1533ANI     CH21453   1.739   3.714   2.771 -0.1272  0.1718  0.1699
 1533ANI     CH21454   1.653   3.799   2.700  0.0264  0.5018  0.3823
 1533ANI     NH21455   1.582   4.021   2.651 -0.2827 -0.5121 -0.5872
 1533ANI     HC21456   1.772   4.098   2.805 -1.0800 -0.1435 -1.5916
 1533ANI     HC21457   1.921   3.952   2.936  0.9850  0.9985 -1.4106
 1533ANI     HC21458   1.890   3.696   2.917  1.6844  0.1382 -0.9469
 1533ANI     HC21459   1.733   3.609   2.744 -3.2520  1.0922 -3.1464
 1533ANI     HC21460   1.583   3.751   2.634  0.6772 -0.7236  0.5616
 1533ANI     HN21461   1.488   3.984   2.648 -0.4347 -0.1886  0.1227
 1533ANI     HN21462   1.594   4.118   2.677  2.4428 -1.2645  1.2856
 1534ANI     CN21463   6.241   4.101   1.679 -0.0478 -0.1012  0.0957
 1534ANI     CH21464   6.354   4.171   1.632 -0.0128 -0.1629  0.0887
 1534ANI     CH21465   6.443   4.232   1.721  0.3449 -0.1579 -0.2705
 1534ANI     CH21466   6.416   4.236   1.859 -0.1503 -0.2535 -0.3648
 1534ANI     CH21467   6.308   4.162   1.909 -0.3797  0.3933  0.0920
 1534ANI     CH21468   6.224   4.097   1.818  0.1217 -0.2859  0.1123
 1534ANI     NH21469   6.147   4.046   1.601 -0.2100  0.2551  0.0381
 1534ANI     HC21470   6.371   4.182   1.526 -1.5161 -0.8829 -0.2377
 1534ANI     HC21471   6.521   4.300   1.690  0.5945 -0.1077  0.4421
 1534ANI     HC21472   6.472   4.300   1.924 -2.4237 -0.3494  1.7690
 1534ANI     HC21473   6.296   4.155   2.016  0.4483 -0.3731  0.1323
 1534ANI     HC21474   6.145   4.033   1.854  0.7607  0.0087  2.0895
 1534ANI     HN21475   6.165   4.049   1.502 -1.0235 -0.3574 -0.1288
 1534ANI     HN21476   6.056   4.087   1.612  0.4339  1.6341  0.4025
 1535ANI     CN21477   1.356   5.772   2.913 -0.2952  0.0454  0.0847
 1535ANI     CH21478   1.311   5.728   3.039 -0.0183 -0.4328  0.0169
 1535ANI     CH21479   1.222   5.812   3.107 -0.0124 -0.3872 -0.0305
 1535ANI     CH21480   1.203   5.943   3.062 -0.3931 -0.5797 -0.4212
 1535ANI     CH21481   1.254   5.990   2.940  0.0108 -0.5157 -0.2265
 1535ANI     CH21482   1.327   5.899   2.863 -0.1329 -0.2280 -0.7031
 1535ANI     NH21483   1.423   5.680   2.843 -0.3798  0.5405 -0.6423
 1535ANI     HC21484   1.314   5.622   3.060 -2.9538 -0.3318  1.1248
 1535ANI     HC21485   1.175   5.776   3.197 -0.4748 -0.4148 -0.2859
 1535ANI     HC21486   1.143   6.013   3.118  1.3233  2.8959 -2.7470
 1535ANI     HC21487   1.236   6.094   2.916 -0.1792 -1.0510 -2.4769
 1535ANI     HC21488   1.367   5.932   2.768  0.6630 -1.5613 -0.8473
 1535ANI     HN21489   1.432   5.605   2.909  0.8892  0.0213 -1.3947
 1535ANI     HN21490   1.366   5.635   2.773  0.6769 -0.8279 -0.6481
 1536ANI     CN21491   4.777   5.150   3.643  0.6745 -0.2799 -0.5112
 1536ANI     CH21492   4.822   5.266   3.579 -0.2756  0.2772 -0.1738
 1536ANI     CH21493   4.944   5.324   3.615 -0.2393  0.0177  0.1306
 1536ANI     CH21494   5.020   5.267   3.717  0.0672 -0.1969 -0.2168
 1536ANI     CH21495   4.975   5.154   3.786 -0.6382  0.3013  0.1480
 1536ANI     CH21496   4.855   5.095   3.745 -0.4312 -0.2698  0.3525
 1536ANI     NH21497   4.649   5.120   3.616  0.3428  0.2146  0.5185
 1536ANI     HC21498   4.745   5.302   3.512 -1.0516 -0.4101  0.3326
 1536ANI     HC21499   4.980   5.407   3.555 -1.2265 -0.1742 -0.7443
 1536ANI     HC21500   5.105   5.322   3.755  1.6863 -0.4830 -3.2849
 1536ANI     HC21501   5.031   5.110   3.867 -1.5838 -2.0830 -0.4386
 1536ANI     HC21502   4.818   5.015   3.807 -1.3816 -0.4426 -0.4240
 1536ANI     HN21503   4.645   5.079   3.524 -1.6637 -0.3688  0.8336
 1536ANI     HN21504   4.613   5.052   3.682  1.3894  1.1383  2.0795
 1537ANI     CN21505   1.301   2.302   4.473  0.5448 -0.1681 -0.0231
 1537ANI     CH21506   1.193   2.289   4.561  0.6132  0.4798  0.1550
 1537ANI     CH21507   1.158   2.392   4.650  0.0358 -0.4291  0.9897
 1537ANI     CH21508   1.238   2.506   4.649  0.4318 -0.7042 -0.0756
 1537ANI     CH21509   1.338   2.523   4.552  0.2494 -0.4447 -0.2179
 1537ANI     CH21510   1.376   2.420   4.465  0.8175 -0.3450 -0.0868
 1537ANI     NH21511   1.318   2.205   4.382  0.0427 -0.3170  0.0404
 1537ANI     HC21512   1.138   2.196   4.555  1.4328  0.0739 -1.3203
 1537ANI     HC21513   1.082   2.369   4.722  0.6268 -0.5322  1.5812
 1537ANI     HC21514   1.219   2.590   4.715 -1.7565  0.2946 -1.8886
 1537ANI     HC21515   1.402   2.609   4.552 -0.9158  0.4664  1.7914
 1537ANI     HC21516   1.460   2.427   4.398  1.4176 -1.2698  0.5542
 1537ANI     HN21517   1.317   2.114   4.427 -1.1863 -0.3309  0.0205
 1537ANI     HN21518   1.394   2.216   4.317 -1.2877  1.0559 -1.3413
 1538ANI     CN21519   1.112   4.940   4.361 -0.0500 -0.1415  0.2742
 1538ANI     CH21520   1.125   5.072   4.405  0.3023 -0.1061  0.0683
 1538ANI     CH21521   1.075   5.103   4.532  0.6672 -0.4345  0.2953
 1538ANI     CH21522   1.012   5.008   4.613 -0.5166  0.1706  0.1090
 1538ANI     CH21523   1.007   4.876   4.565 -0.1677  0.2119 -0.0460
 1538ANI     CH21524   1.053   4.840   4.438  0.2481 -0.3305  0.2587
 1538ANI     NH21525   1.166   4.908   4.242  0.2184  0.3943  0.2465
 1538ANI     HC21526   1.172   5.151   4.348 -1.4713  1.5972  0.9183
 1538ANI     HC21527   1.068   5.208   4.558 -0.5291 -0.3094 -0.4689
 1538ANI     HC21528   0.954   5.041   4.698 -0.7538 -1.7373  0.7057
 1538ANI     HC21529   0.943   4.804   4.615 -0.8485  0.4473 -0.5660
 1538ANI     HC21530   1.029   4.740   4.406  2.7316 -0.7674 -0.2884
 1538ANI     HN21531   1.176   4.992   4.188 -1.1233  0.5494  0.2184
 1538ANI     HN21532   1.116   4.842   4.184  0.6170 -0.4058  0.7886
 1539ANI     CN21533   5.857   0.942   4.400 -0.2993  0.2276  0.6586
 1539ANI     CH21534   5.992   0.904   4.401 -0.2334  0.4419 -0.0109
 1539ANI     CH21535   6.090   1.003   4.421 -0.1093  0.2402  0.3851
 1539ANI     CH21536   6.056   1.136   4.450 -0.3486  0.2018  0.2813
 1539ANI     CH21537   5.920   1.166   4.462 -0.4529  0.0727 -0.5495
 1539ANI     CH21538   5.819   1.072   4.437 -0.7709 -0.1214  1.4050
 1539ANI     NH21539   5.761   0.856   4.365 -0.2653  0.4600 -0.0104
 1539ANI     HC21540   6.032   0.806   4.380  0.3037 -0.2119  3.7285
 1539ANI     HC21541   6.193   0.971   4.413 -0.4339 -0.5192 -1.0068
 1539ANI     HC21542   6.120   1.221   4.468 -0.8142  0.4038  0.9912
 1539ANI     HC21543   5.891   1.263   4.501 -1.2205 -1.1025  1.9065
 1539ANI     HC21544   5.715   1.101   4.432 -1.6054 -3.2302 -1.3193
 1539ANI     HN21545   5.677   0.873   4.418  1.1500  1.7172  1.9166
 1539ANI     HN21546   5.785   0.758   4.361  0.3613  0.5816  0.6574
 1540ANI     CN21547   1.016   3.917   0.115 -0.2774  0.4138  0.0882
 1540ANI     CH21548   1.059   3.905  -0.017  0.0074  0.3865  0.1831
 1540ANI     CH21549   0.980   3.845  -0.116  0.0706 -0.4857  0.6580
 1540ANI     CH21550   0.858   3.787  -0.079 -0.2263 -0.3642 -0.1255
 1540ANI     CH21551   0.815   3.795   0.054  0.1684  0.7884 -0.0698
 1540ANI     CH21552   0.895   3.857   0.151  0.0065  0.0895  0.5058
 1540ANI     NH21553   1.096   3.982   0.201  0.1739 -0.6046  0.4516
 1540ANI     HC21554   1.157   3.945  -0.038  1.3165 -1.2894  2.7635
 1540ANI     HC21555   1.012   3.843  -0.219  0.8351  0.8641  0.8583
 1540ANI     HC21556   0.793   3.749  -0.157  0.7109  0.6034 -1.3788
 1540ANI     HC21557   0.712   3.769   0.070  1.1482 -1.8599  2.2958
 1540ANI     HC21558   0.860   3.865   0.253 -1.0747 -1.6578  0.3042
 1540ANI     HN21559   1.191   3.983   0.167  0.4424 -1.8162  1.1336
 1540ANI     HN21560   1.098   3.943   0.294  0.0041 -0.4607  0.5163
 1541ANI     CN21561   5.761   5.624   3.692  0.0625  0.1438 -0.3752
 1541ANI     CH21562   5.626   5.640   3.657 -0.0757  0.1656  0.1636
 1541ANI     CH21563   5.585   5.602   3.528 -0.0574  1.1397 -0.1315
 1541ANI     CH21564   5.674   5.540   3.440 -0.1201  0.5563  0.2116
 1541ANI     CH21565   5.805   5.518   3.482 -0.1576  0.2722  0.1822
 1541ANI     CH21566   5.850   5.553   3.610  0.3726  0.0296  0.0642
 1541ANI     NH21567   5.801   5.659   3.814  0.0485 -0.1092 -0.2979
 1541ANI     HC21568   5.550   5.683   3.720 -1.4154 -3.5140  1.2041
 1541ANI     HC21569   5.482   5.622   3.503  0.5740  0.3458 -3.6139
 1541ANI     HC21570   5.636   5.505   3.345 -0.7818 -1.2978  1.1318
 1541ANI     HC21571   5.875   5.484   3.408 -0.9428 -1.4674  0.2236
 1541ANI     HC21572   5.950   5.535   3.647 -0.2367  0.4428  1.9788
 1541ANI     HN21573   5.726   5.638   3.879  0.0944 -0.8519 -0.4869
 1541ANI     HN21574   5.888   5.621   3.848  1.1945  1.6319 -1.2143
 1542ANI     CN21575   4.953   0.943   4.505  0.2563 -0.2042 -0.4362
 1542ANI     CH21576   4.843   1.029   4.518  0.7339  0.3389  0.0541
 1542ANI     CH21577   4.825   1.095   4.640 -1.1080 -0.8310  0.4342
 1542ANI     CH21578   4.910   1.081   4.750 -0.3441  0.0849 -0.0352
 1542ANI     CH21579   5.015   0.989   4.735 -0.1202  0.3996 -0.4199
 1542ANI     CH21580   5.042   0.928   4.612 -0.1212 -0.2018 -0.1243
 1542ANI     NH21581   4.962   0.855   4.405 -0.6304 -0.9934  0.1711
 1542ANI     HC21582   4.777   1.047   4.435 -1.2732 -1.3905  1.2085
 1542ANI     HC21583   4.737   1.158   4.637 -2.5729 -2.8800 -2.5552
 1542ANI     HC21584   4.886   1.146   4.832 -0.5925  0.7718 -0.6502
 1542ANI     HC21585   5.084   0.971   4.816 -1.4397 -1.7006  0.2890
 1542ANI     HC21586   5.128   0.866   4.593  0.2099  0.1906  0.0892
 1542ANI     HN21587   5.013   0.768   4.416  0.6352 -0.7485 -3.0436
 1542ANI     HN21588   4.870   0.838   4.367 -1.6900  2.2429  1.1742
 1543ANI     CN21589   2.476   5.844   4.141  0.1415  0.0886  0.4901
 1543ANI     CH21590   2.382   5.821   4.242 -0.0267 -0.4162  0.2251
 1543ANI     CH21591   2.317   5.697   4.243 -0.2805 -0.2888 -0.1543
 1543ANI     CH21592   2.349   5.595   4.153  0.4216 -0.1703 -0.0475
 1543ANI     CH21593   2.453   5.614   4.062  0.0476  0.2145 -0.4040
 1543ANI     CH21594   2.514   5.740   4.055 -0.0295  0.2818  0.1791
 1543ANI     NH21595   2.534   5.964   4.133  0.2819  0.0119  0.3498
 1543ANI     HC21596   2.359   5.886   4.326 -2.1402 -0.1010 -0.5692
 1543ANI     HC21597   2.246   5.670   4.320 -2.8606  0.6213 -2.1528
 1543ANI     HC21598   2.296   5.502   4.165 -2.2020  1.3444  0.5837
 1543ANI     HC21599   2.479   5.544   3.983  1.6002  1.2785 -0.8641
 1543ANI     HC21600   2.600   5.735   3.991  0.8007 -3.9502  1.4486
 1543ANI     HN21601   2.634   5.950   4.125  0.0491 -0.4809 -2.1531
 1543ANI     HN21602   2.522   6.007   4.224 -2.5821  1.0012 -0.4463
 1544ANI     CN21603   0.681   3.303   4.034 -0.4409 -0.4277  0.1965
 1544ANI     CH21604   0.569   3.387   4.035  0.5437  0.8958 -0.2395
 1544ANI     CH21605   0.480   3.376   3.927 -0.0466 -0.0715  0.3436
 1544ANI     CH21606   0.500   3.283   3.824  0.1148  0.2882  0.0509
 1544ANI     CH21607   0.606   3.192   3.835  0.1195  0.2772 -0.0802
 1544ANI     CH21608   0.702   3.206   3.936  0.1619 -0.0170 -0.0792
 1544ANI     NH21609   0.775   3.324   4.126 -0.0826  0.3507 -0.3460
 1544ANI     HC21610   0.551   3.459   4.114  0.9847 -0.3385  0.9974
 1544ANI     HC21611   0.395   3.441   3.923  0.8717  1.0889 -0.6631
 1544ANI     HC21612   0.435   3.276   3.739  0.8618 -0.3854 -0.4714
 1544ANI     HC21613   0.625   3.132   3.748 -2.4647  0.9837 -1.1965
 1544ANI     HC21614   0.790   3.143   3.933  0.8063  0.8797 -0.1248
 1544ANI     HN21615   0.795   3.421   4.148  0.1048 -0.4334  3.4278
 1544ANI     HN21616   0.861   3.288   4.086  0.3124  0.3112  0.5233
 1545ANI     CN21617   4.213   1.095   5.762  0.0637  0.1589 -0.3020
 1545ANI     CH21618   4.115   1.074   5.664 -0.4763  0.4258  0.1806
 1545ANI     CH21619   4.116   1.154   5.550  0.1073 -0.2429 -0.2884
 1545ANI     CH21620   4.220   1.245   5.528  0.0351 -0.0760  0.0556
 1545ANI     CH21621   4.315   1.269   5.628 -0.2021  0.6176  0.1141
 1545ANI     CH21622   4.312   1.192   5.744 -0.0203  0.2826 -0.1018
 1545ANI     NH21623   4.207   1.021   5.873 -0.0530  0.3978 -0.1468
 1545ANI     HC21624   4.043   0.993   5.670 -2.0691  1.6102 -1.9901
 1545ANI     HC21625   4.043   1.139   5.471 -2.0341  1.3707  1.3219
 1545ANI     HC21626   4.222   1.292   5.431  2.6048 -1.6972 -0.7042
 1545ANI     HC21627   4.373   1.360   5.626  0.0431  0.4751  0.7759
 1545ANI     HC21628   4.381   1.209   5.826 -0.7873 -1.0550  0.8341
 1545ANI     HN21629   4.254   1.068   5.949 -0.0582  0.4350 -0.1669
 1545ANI     HN21630   4.113   1.010   5.907  0.0177  1.2198  0.3389
 1546ANI     CN21631   1.339   5.348   2.360 -0.1140  0.2501  0.1126
 1546ANI     CH21632   1.252   5.319   2.466  0.3356  0.4407  0.5386
 1546ANI     CH21633   1.306   5.275   2.588  0.2588 -0.1168  0.3757
 1546ANI     CH21634   1.443   5.252   2.605  0.2937  0.0745  0.3605
 1546ANI     CH21635   1.527   5.279   2.497  0.1044 -0.3728  0.1034
 1546ANI     CH21636   1.477   5.325   2.375 -0.1771  0.0351  0.3739
 1546ANI     NH21637   1.290   5.405   2.249  1.0641  0.7929 -0.1490
 1546ANI     HC21638   1.148   5.340   2.448  0.2706 -0.7422 -0.5431
 1546ANI     HC21639   1.247   5.246   2.673  2.3433 -1.1001  1.5129
 1546ANI     HC21640   1.487   5.217   2.698 -0.0253  1.5062  1.0663
 1546ANI     HC21641   1.633   5.267   2.514 -0.0692 -1.8973  0.2061
 1546ANI     HC21642   1.547   5.351   2.297  0.3573  1.2551  1.2496
 1546ANI     HN21643   1.351   5.398   2.170  0.1743  0.2486 -0.8052
 1546ANI     HN21644   1.271   5.503   2.259  2.6059  1.0674  0.2421
 1547ANI     CN21645   5.509   2.568   0.432  0.5133  0.3408  0.4383
 1547ANI     CH21646   5.540   2.620   0.306  0.5190  0.2256  0.3924
 1547ANI     CH21647   5.494   2.748   0.271  0.0736 -0.1284 -0.3440
 1547ANI     CH21648   5.421   2.824   0.364 -0.1747 -0.0702 -0.5893
 1547ANI     CH21649   5.391   2.773   0.491 -0.2487  0.3590 -0.4351
 1547ANI     CH21650   5.429   2.641   0.521  0.0215  0.5046 -0.1339
 1547ANI     NH21651   5.544   2.445   0.469 -0.7832 -0.3305 -0.5200
 1547ANI     HC21652   5.606   2.573   0.234 -1.0764 -0.9057 -0.3702
 1547ANI     HC21653   5.518   2.787   0.173  0.6365 -0.2674 -0.2672
 1547ANI     HC21654   5.376   2.920   0.346 -1.6983 -0.4974  0.8173
 1547ANI     HC21655   5.344   2.828   0.571 -3.0802 -0.9123 -1.1780
 1547ANI     HC21656   5.409   2.611   0.622  0.5177  3.3370  0.8738
 1547ANI     HN21657   5.472   2.406   0.528 -1.5675  2.7816  0.6385
 1547ANI     HN21658   5.541   2.384   0.388 -0.2657 -2.3324  0.9108
 1548ANI     CN21659   5.737   2.122   4.964 -0.0997 -0.0531 -0.0732
 1548ANI     CH21660   5.758   2.069   5.092 -0.3249  0.4752  0.1795
 1548ANI     CH21661   5.814   1.942   5.111 -0.5620  0.2954 -0.3272
 1548ANI     CH21662   5.833   1.863   4.997  0.0314 -0.1261  0.0666
 1548ANI     CH21663   5.808   1.911   4.868 -0.3040 -0.3970  0.0303
 1548ANI     CH21664   5.764   2.043   4.851 -0.1716 -0.3430  0.1110
 1548ANI     NH21665   5.677   2.238   4.938 -0.6397 -0.3040  0.0384
 1548ANI     HC21666   5.749   2.130   5.181  1.4090 -0.7686  1.2329
 1548ANI     HC21667   5.845   1.907   5.208 -0.9512 -0.0629 -0.3296
 1548ANI     HC21668   5.887   1.770   5.010  0.3975  0.2121  1.0424
 1548ANI     HC21669   5.832   1.852   4.781 -1.1977 -0.7525  0.0192
 1548ANI     HC21670   5.741   2.079   4.752 -1.0811 -1.4396 -0.0946
 1548ANI     HN21671   5.648   2.235   4.841  1.6022 -0.2128 -0.6671
 1548ANI     HN21672   5.592   2.261   4.987 -2.4774  1.0408 -3.5416
 1549ANI     CN21673   4.467   6.244   1.219  0.0213  0.2959 -0.0121
 1549ANI     CH21674   4.578   6.255   1.135  0.0272 -0.4988 -0.1124
 1549ANI     CH21675   4.687   6.338   1.165 -0.5651  0.3531 -0.3066
 1549ANI     CH21676   4.681   6.416   1.282  0.1449  0.4284 -0.3171
 1549ANI     CH21677   4.580   6.394   1.377  0.5967 -0.2327  0.0073
 1549ANI     CH21678   4.476   6.307   1.344  0.5542 -0.2671  0.2353
 1549ANI     NH21679   4.370   6.156   1.193  0.1147  0.2482 -0.1987
 1549ANI     HC21680   4.580   6.194   1.046  1.5756 -1.5598  0.6370
 1549ANI     HC21681   4.769   6.343   1.095  0.1504  1.7210  0.6023
 1549ANI     HC21682   4.766   6.481   1.297  1.0598 -0.6984 -0.5522
 1549ANI     HC21683   4.585   6.432   1.478 -2.1257 -0.6561  0.3412
 1549ANI     HC21684   4.397   6.285   1.415 -0.2898 -0.9495 -0.9014
 1549ANI     HN21685   4.283   6.201   1.219  0.2943  0.6587 -0.3201
 1549ANI     HN21686   4.361   6.160   1.093  0.7950  2.0686 -0.2027
 1550ANI     CN21687   1.643   1.225   2.718 -0.2182 -0.0675  0.5013
 1550ANI     CH21688   1.633   1.091   2.758  0.4136 -0.2786 -0.0450
 1550ANI     CH21689   1.570   0.999   2.674  0.0925  0.0093 -0.1192
 1550ANI     CH21690   1.514   1.037   2.551 -0.5944 -0.0080  0.1854
 1550ANI     CH21691   1.512   1.174   2.524  0.5556 -0.0901 -0.3319
 1550ANI     CH21692   1.581   1.269   2.601 -0.1944 -0.1674  0.4512
 1550ANI     NH21693   1.697   1.317   2.799  0.2731  0.4705 -0.4252
 1550ANI     HC21694   1.686   1.059   2.846  0.0073 -0.8179  0.0077
 1550ANI     HC21695   1.568   0.898   2.712 -0.1698  0.6325  1.5522
 1550ANI     HC21696   1.472   0.966   2.481  0.7766 -0.5416 -0.1174
 1550ANI     HC21697   1.470   1.211   2.432 -0.6644  2.4687  1.1932
 1550ANI     HC21698   1.576   1.372   2.570  0.7935  0.2525  1.6416
 1550ANI     HN21699   1.630   1.348   2.868  1.6256 -1.4291  1.8337
 1550ANI     HN21700   1.768   1.278   2.860  0.2580  1.4443  0.2222
 1551ANI     CN21701   0.611   3.155   2.607  0.6522 -0.3637 -0.1018
 1551ANI     CH21702   0.530   3.113   2.501  0.2542  0.0359  0.0437
 1551ANI     CH21703   0.525   3.190   2.384  0.4034 -0.0371 -0.0103
 1551ANI     CH21704   0.610   3.301   2.373  0.4884 -0.0857  0.1553
 1551ANI     CH21705   0.684   3.349   2.481 -0.5402  0.4566  0.6298
 1551ANI     CH21706   0.681   3.277   2.602 -0.3085  0.2202  0.4952
 1551ANI     NH21707   0.623   3.078   2.715  0.1469 -0.1400  0.1129
 1551ANI     HC21708   0.475   3.021   2.508 -0.5037  0.4075 -0.8747
 1551ANI     HC21709   0.464   3.164   2.298  0.0250 -0.6660  0.4427
 1551ANI     HC21710   0.622   3.347   2.276  0.5760 -0.1940  0.1148
 1551ANI     HC21711   0.735   3.442   2.465 -0.0034 -0.0972 -1.0110
 1551ANI     HC21712   0.746   3.316   2.679 -0.2740 -0.1392  0.6467
 1551ANI     HN21713   0.707   3.098   2.767  1.5905  0.2974 -2.3263
 1551ANI     HN21714   0.640   2.981   2.693  2.5158  0.0107  1.0912
 1552ANI     CN21715   0.949   1.199   1.355 -0.3032  0.3004 -0.0089
 1552ANI     CH21716   0.924   1.323   1.415 -0.3091  0.1224  0.3514
 1552ANI     CH21717   1.018   1.426   1.406 -0.3330  0.0661 -0.5773
 1552ANI     CH21718   1.134   1.404   1.331 -0.0962 -0.1933 -0.1416
 1552ANI     CH21719   1.158   1.281   1.269 -0.3198 -0.0790 -0.4585
 1552ANI     CH21720   1.068   1.175   1.285 -0.2160 -0.0639  0.2646
 1552ANI     NH21721   0.853   1.106   1.354  0.1472 -0.1695  0.3229
 1552ANI     HC21722   0.837   1.337   1.478  0.5619 -1.4085  1.9472
 1552ANI     HC21723   1.007   1.523   1.452 -2.2092 -1.4454  2.2916
 1552ANI     HC21724   1.211   1.478   1.312 -1.3528  0.9063 -1.0359
 1552ANI     HC21725   1.243   1.260   1.206  0.6231 -0.5825  0.9473
 1552ANI     HC21726   1.084   1.085   1.227  0.4680  0.2601 -0.0569
 1552ANI     HN21727   0.844   1.078   1.257 -0.9660 -0.0004  0.3754
 1552ANI     HN21728   0.770   1.155   1.384 -0.4271 -0.9202 -0.0095
 1553ANI     CN21729   6.096   4.703   5.181 -0.2975 -0.1783  0.1929
 1553ANI     CH21730   6.073   4.585   5.253  0.0640 -0.3712 -0.0042
 1553ANI     CH21731   6.153   4.565   5.366  0.0342  0.1561  0.1131
 1553ANI     CH21732   6.252   4.654   5.407  0.7074 -0.2580 -0.6059
 1553ANI     CH21733   6.283   4.764   5.325  0.1983  0.0823 -0.3457
 1553ANI     CH21734   6.201   4.790   5.215  0.0504 -0.3830 -0.3469
 1553ANI     NH21735   6.027   4.735   5.071 -0.0431 -0.9334 -0.1906
 1553ANI     HC21736   5.997   4.514   5.225 -0.6331 -0.0028  0.9317
 1553ANI     HC21737   6.130   4.473   5.418 -2.7626 -0.1697 -1.5722
 1553ANI     HC21738   6.299   4.638   5.502  0.1988  1.3333 -0.0600
 1553ANI     HC21739   6.356   4.842   5.343  2.0106 -1.2345 -1.7894
 1553ANI     HC21740   6.229   4.872   5.152  0.2970  0.3975  0.7696
 1553ANI     HN21741   5.932   4.703   5.081 -0.3795 -0.3018 -1.2986
 1553ANI     HN21742   6.032   4.836   5.060 -0.8954 -1.1022 -2.3325
 1554ANI     CN21743   3.365   0.220   0.114  0.4025 -0.0509 -0.3415
 1554ANI     CH21744   3.495   0.264   0.083  0.5646 -0.1396  0.2010
 1554ANI     CH21745   3.522   0.343  -0.029 -0.1599 -0.7120 -0.3841
 1554ANI     CH21746   3.413   0.388  -0.106 -0.2125 -0.9960 -0.4778
 1554ANI     CH21747   3.282   0.356  -0.072 -0.2720 -0.3434 -0.0821
 1554ANI     CH21748   3.260   0.267   0.034 -0.0205 -0.0511  0.2155
 1554ANI     NH21749   3.336   0.145   0.221 -0.0706  0.3323 -0.1992
 1554ANI     HC21750   3.578   0.234   0.144  0.0277  1.0297  1.5184
 1554ANI     HC21751   3.624   0.354  -0.061 -0.2461  0.1194 -0.3927
 1554ANI     HC21752   3.433   0.450  -0.192  0.7331  1.7635  1.6201
 1554ANI     HC21753   3.198   0.408  -0.116  0.0204 -1.4674 -1.9875
 1554ANI     HC21754   3.156   0.244   0.051 -0.5023  3.3215  2.2908
 1554ANI     HN21755   3.415   0.098   0.264  0.8755  2.7563  0.8068
 1554ANI     HN21756   3.263   0.077   0.204 -1.0653  1.7643 -1.8172
 1555ANI     CN21757   2.799   1.155   5.184  0.2439  0.2041 -0.1226
 1555ANI     CH21758   2.864   1.035   5.219  0.5017  0.2908 -0.3030
 1555ANI     CH21759   2.984   1.036   5.291  0.1971  0.5111  0.2054
 1555ANI     CH21760   3.045   1.159   5.317 -0.0269  0.4914  0.8359
 1555ANI     CH21761   2.975   1.278   5.295 -0.0060  0.3981  0.2523
 1555ANI     CH21762   2.850   1.276   5.230 -0.1188  0.1314  0.4752
 1555ANI     NH21763   2.684   1.145   5.116  0.1911  0.2617 -0.0420
 1555ANI     HC21764   2.833   0.937   5.185 -0.7792 -0.5107  3.0161
 1555ANI     HC21765   3.031   0.944   5.320 -2.3117 -1.1651 -0.8882
 1555ANI     HC21766   3.137   1.170   5.373 -0.7005 -0.4800  2.1431
 1555ANI     HC21767   3.022   1.372   5.319 -0.3526  0.5319  0.4212
 1555ANI     HC21768   2.794   1.366   5.211  0.3911  0.3423 -0.0591
 1555ANI     HN21769   2.680   1.092   5.030  4.4961  1.4480 -1.1080
 1555ANI     HN21770   2.657   1.240   5.093  0.9779  0.0776 -1.8528
 1556ANI     CN21771   4.096   2.487   4.754  0.7324  0.9731  0.2805
 1556ANI     CH21772   4.224   2.457   4.706  0.7523  0.7636  0.4650
 1556ANI     CH21773   4.321   2.392   4.783  0.3392  0.1678  0.4871
 1556ANI     CH21774   4.289   2.355   4.914  0.1799 -0.8945  0.1525
 1556ANI     CH21775   4.159   2.378   4.961  0.0756 -0.2899 -0.4217
 1556ANI     CH21776   4.065   2.448   4.885  0.3223  0.5817  0.0674
 1556ANI     NH21777   4.001   2.538   4.674  0.2188  0.3047  0.4575
 1556ANI     HC21778   4.249   2.476   4.603 -3.1824  2.0589 -0.3484
 1556ANI     HC21779   4.418   2.369   4.742 -0.1529 -0.3417 -0.4226
 1556ANI     HC21780   4.358   2.293   4.968  1.1656 -1.9217 -2.2308
 1556ANI     HC21781   4.128   2.337   5.056  0.2870 -0.6207 -0.4954
 1556ANI     HC21782   3.968   2.471   4.927  0.4190  4.5455 -1.6178
 1556ANI     HN21783   3.944   2.602   4.727 -1.3548 -0.7531  0.0564
 1556ANI     HN21784   4.047   2.580   4.594 -0.4538  1.6767  0.7796
 1557ANI     CN21785   2.359   4.994   0.749 -0.7388 -0.5624 -0.5733
 1557ANI     CH21786   2.408   4.927   0.636  0.0887 -0.0598 -0.5162
 1557ANI     CH21787   2.495   4.820   0.655  0.0399  0.0733  0.4634
 1557ANI     CH21788   2.542   4.788   0.783  0.2704 -0.1772  0.3182
 1557ANI     CH21789   2.490   4.853   0.896 -0.3623  0.2103 -0.1895
 1557ANI     CH21790   2.398   4.956   0.878  0.0288  0.5095 -0.4825
 1557ANI     NH21791   2.275   5.095   0.721  0.0663  0.3406  0.2691
 1557ANI     HC21792   2.386   4.962   0.536  2.6977  2.1974 -0.3328
 1557ANI     HC21793   2.540   4.770   0.570  0.8531  2.1171 -0.3273
 1557ANI     HC21794   2.613   4.708   0.802 -0.3198 -1.1878 -1.6768
 1557ANI     HC21795   2.521   4.828   0.997 -0.6105 -0.0310 -0.1721
 1557ANI     HC21796   2.362   5.008   0.965 -0.3278  1.5463 -1.2411
 1557ANI     HN21797   2.312   5.121   0.631  0.6860 -0.9982  0.1205
 1557ANI     HN21798   2.287   5.175   0.782  2.4631  1.1076 -1.1168
 1558ANI     CN21799   4.126   3.720   2.344  0.2408 -0.4732 -0.5881
 1558ANI     CH21800   4.105   3.600   2.276 -0.4263 -0.4891 -0.3498
 1558ANI     CH21801   4.188   3.490   2.302 -0.2662 -0.2832  0.0151
 1558ANI     CH21802   4.298   3.501   2.387 -0.4767  0.2443  0.2177
 1558ANI     CH21803   4.334   3.625   2.441 -0.2956  0.1055  0.4174
 1558ANI     CH21804   4.239   3.727   2.427 -0.1651  0.1598 -0.0854
 1558ANI     NH21805   4.055   3.829   2.313  0.7198  0.0974  0.2840
 1558ANI     HC21806   4.018   3.594   2.212  0.7016  0.8651 -2.0346
 1558ANI     HC21807   4.172   3.389   2.265 -0.6602 -0.1251 -0.2539
 1558ANI     HC21808   4.351   3.411   2.415  1.8595  1.1062 -1.2979
 1558ANI     HC21809   4.417   3.641   2.509 -0.3997  1.4071  0.2531
 1558ANI     HC21810   4.250   3.821   2.478  0.7381 -1.1338  2.1660
 1558ANI     HN21811   3.968   3.798   2.272  0.2384 -0.8596  2.0144
 1558ANI     HN21812   4.037   3.899   2.383  1.0338  0.0475  0.4117
 1559ANI     CN21813   1.166   0.943   3.691 -0.6209  0.5575 -0.6676
 1559ANI     CH21814   1.242   0.925   3.575  0.7493 -1.0746  0.4575
 1559ANI     CH21815   1.342   1.008   3.524 -0.4227  0.2932  0.3445
 1559ANI     CH21816   1.366   1.118   3.607 -0.1010  0.7608 -0.3646
 1559ANI     CH21817   1.289   1.151   3.719 -0.2265 -0.2533 -0.1473
 1559ANI     CH21818   1.188   1.063   3.760 -0.3259  0.0163  0.1881
 1559ANI     NH21819   1.068   0.857   3.724  0.1411 -0.0049  0.1630
 1559ANI     HC21820   1.215   0.836   3.519  0.4103 -1.6117  1.4495
 1559ANI     HC21821   1.403   0.988   3.437  0.1360  1.5664  0.4363
 1559ANI     HC21822   1.451   1.173   3.570  0.2220 -1.4902 -3.1633
 1559ANI     HC21823   1.306   1.239   3.779 -1.1868 -0.6814  0.7786
 1559ANI     HC21824   1.123   1.078   3.845 -0.8683 -1.2999  0.0237
 1559ANI     HN21825   0.992   0.896   3.777  0.3284 -0.2804  0.6398
 1559ANI     HN21826   1.021   0.807   3.650  1.3831 -2.2558  0.8507
 1560ANI     CN21827   4.616   1.333   3.320  0.0874  0.6676 -0.2494
 1560ANI     CH21828   4.539   1.375   3.429  0.3042  0.0417  0.1452
 1560ANI     CH21829   4.414   1.432   3.401  0.3221  0.0284  0.0372
 1560ANI     CH21830   4.376   1.463   3.270  0.5409 -0.2881 -0.1015
 1560ANI     CH21831   4.456   1.423   3.162  0.4329  0.1104 -0.3304
 1560ANI     CH21832   4.577   1.357   3.188  0.2568 -0.2667 -0.4708
 1560ANI     NH21833   4.733   1.276   3.354 -0.0878  0.0888 -0.6307
 1560ANI     HC21834   4.568   1.344   3.528 -0.5509 -3.1588 -0.5322
 1560ANI     HC21835   4.345   1.453   3.481 -0.4291  2.0387 -1.1088
 1560ANI     HC21836   4.280   1.508   3.247  0.7208 -0.2445 -0.7894
 1560ANI     HC21837   4.425   1.433   3.059  0.2000  2.4606 -0.0623
 1560ANI     HC21838   4.636   1.324   3.104 -0.9954 -0.3984 -1.3150
 1560ANI     HN21839   4.781   1.322   3.430 -1.3490 -0.4142  0.4905
 1560ANI     HN21840   4.797   1.249   3.280 -0.1235 -0.6191 -0.4104
 1561ANI     CN21841   5.119   0.336   3.124 -0.2262 -0.1001 -0.1289
 1561ANI     CH21842   5.094   0.446   3.206 -0.1630 -0.0371 -0.1937
 1561ANI     CH21843   5.035   0.563   3.157 -0.1386  0.1881  0.3045
 1561ANI     CH21844   5.037   0.589   3.019  0.0716  0.4431  0.3558
 1561ANI     CH21845   5.082   0.489   2.933 -0.4003  0.2779  0.2991
 1561ANI     CH21846   5.120   0.366   2.987  0.3830  0.3730 -0.0253
 1561ANI     NH21847   5.180   0.227   3.173 -0.9235 -0.3470  0.2003
 1561ANI     HC21848   5.088   0.431   3.313 -0.0536 -0.8509 -0.3054
 1561ANI     HC21849   4.997   0.644   3.217 -4.5772 -1.5519  0.0923
 1561ANI     HC21850   5.003   0.685   2.981 -1.3839 -0.9084 -1.9136
 1561ANI     HC21851   5.082   0.505   2.826  1.2697  0.4792  0.3119
 1561ANI     HC21852   5.150   0.287   2.919  3.5644  0.6492  0.9604
 1561ANI     HN21853   5.122   0.189   3.246 -1.2860 -0.4838 -0.1573
 1561ANI     HN21854   5.208   0.157   3.105 -1.9376 -0.5285 -0.0246
 1562ANI     CN21855   4.757   2.281   6.083  0.0590 -0.0776 -0.3117
 1562ANI     CH21856   4.782   2.197   5.974  0.2970  0.2865 -0.5378
 1562ANI     CH21857   4.840   2.070   5.986 -0.1874  0.1066 -0.0658
 1562ANI     CH21858   4.871   2.026   6.115  0.4410 -0.0085 -0.2559
 1562ANI     CH21859   4.853   2.109   6.226 -0.1297  0.1296 -0.4514
 1562ANI     CH21860   4.789   2.232   6.211 -0.2456  0.1061 -0.1643
 1562ANI     NH21861   4.695   2.395   6.052  0.1173  0.1211  0.2823
 1562ANI     HC21862   4.766   2.229   5.873 -2.5329 -0.8813 -0.5003
 1562ANI     HC21863   4.874   2.012   5.901  2.8881  2.2688 -0.3788
 1562ANI     HC21864   4.930   1.936   6.124 -2.9863 -2.2447  0.6168
 1562ANI     HC21865   4.870   2.070   6.326  1.4480  1.7686 -0.0539
 1562ANI     HC21866   4.774   2.294   6.298  0.5346  2.0802 -1.4017
 1562ANI     HN21867   4.645   2.441   6.126 -2.1674 -1.5824 -0.1489
 1562ANI     HN21868   4.633   2.395   5.972  0.7116 -0.5814 -0.1850
 1563ANI     CN21869   3.157   5.840   0.999 -0.2410 -0.0032  0.1749
 1563ANI     CH21870   3.248   5.889   1.093 -0.1879  0.1496  0.0447
 1563ANI     CH21871   3.255   6.027   1.110  0.6662  0.1137  0.0289
 1563ANI     CH21872   3.194   6.115   1.019  0.4430  0.2989  0.3510
 1563ANI     CH21873   3.101   6.066   0.926 -0.0329  0.0474  0.9607
 1563ANI     CH21874   3.091   5.927   0.911  0.3780  0.1352 -0.1552
 1563ANI     NH21875   3.143   5.707   0.991  0.0266  0.0008 -0.3698
 1563ANI     HC21876   3.306   5.823   1.157  0.0719 -1.1039 -1.4467
 1563ANI     HC21877   3.328   6.060   1.182 -0.7213 -0.5914  1.8028
 1563ANI     HC21878   3.213   6.220   1.030  0.4076  0.3499 -0.0597
 1563ANI     HC21879   3.043   6.129   0.861  0.5351  1.3253  1.6649
 1563ANI     HC21880   3.019   5.877   0.847  0.3606  2.4928 -2.0727
 1563ANI     HN21881   3.111   5.671   0.902  0.1903  0.9810 -0.8389
 1563ANI     HN21882   3.228   5.658   1.011 -0.3614 -0.0825  1.1047
 1564ANI     CN21883   2.152   3.905   5.299 -0.0629 -0.4605 -0.0563
 1564ANI     CH21884   2.015   3.926   5.319  0.0287 -0.0339  0.1278
 1564ANI     CH21885   1.967   3.931   5.451  0.2169 -0.7555  0.2238
 1564ANI     CH21886   2.062   3.927   5.554  0.0909  0.0151  0.3695
 1564ANI     CH21887   2.199   3.908   5.535  0.0560  0.0120  0.1065
 1564ANI     CH21888   2.246   3.901   5.403 -0.0971  0.5300  0.0240
 1564ANI     NH21889   2.204   3.906   5.176  0.0153 -0.4791 -0.0241
 1564ANI     HC21890   1.947   3.933   5.236 -0.3186  1.3640  0.5076
 1564ANI     HC21891   1.859   3.938   5.458  0.0301 -0.3887 -2.3767
 1564ANI     HC21892   2.021   3.927   5.654 -2.9313  0.0802 -0.8123
 1564ANI     HC21893   2.262   3.894   5.622  0.2013  1.7689  0.2862
 1564ANI     HC21894   2.350   3.892   5.379  0.2770  1.6202  1.1838
 1564ANI     HN21895   2.140   3.951   5.112  1.7648 -0.0601 -1.5069
 1564ANI     HN21896   2.296   3.946   5.166 -0.4600  0.7659  0.4978
 1565ANI     CN21897   0.676   0.211   2.101  0.7822 -0.0022  0.2141
 1565ANI     CH21898   0.613   0.163   1.985 -0.0180  0.3276  0.5105
 1565ANI     CH21899   0.632   0.230   1.864 -0.2148  0.0725  0.3396
 1565ANI     CH21900   0.721   0.337   1.850  0.4546 -0.5116  0.0398
 1565ANI     CH21901   0.789   0.379   1.965 -0.4167  0.6483  0.1431
 1565ANI     CH21902   0.760   0.322   2.090  0.3062  0.3542  0.1792
 1565ANI     NH21903   0.648   0.159   2.221 -0.3514 -0.3092 -0.1780
 1565ANI     HC21904   0.552   0.077   2.008 -0.1324  0.5247  0.9656
 1565ANI     HC21905   0.585   0.204   1.770 -0.4332 -1.3132  0.8270
 1565ANI     HC21906   0.736   0.374   1.750 -2.3423  1.1302  0.1841
 1565ANI     HC21907   0.872   0.448   1.958 -0.4603  0.8634  1.5836
 1565ANI     HC21908   0.819   0.355   2.174  0.9878 -1.0372  0.2622
 1565ANI     HN21909   0.726   0.167   2.285 -0.0451 -1.1472 -0.4422
 1565ANI     HN21910   0.641   0.058   2.223 -0.7458 -0.2772  0.3464
 1566ANI     CN21911   2.403   2.620   1.644  0.1164  0.2224 -0.0316
 1566ANI     CH21912   2.328   2.732   1.607  0.3668  0.4260  0.0795
 1566ANI     CH21913   2.227   2.775   1.693  0.5274 -0.1944  0.5785
 1566ANI     CH21914   2.207   2.717   1.819  0.0241 -0.9446  0.1529
 1566ANI     CH21915   2.288   2.611   1.862 -0.3756 -1.2531  0.1539
 1566ANI     CH21916   2.383   2.563   1.770 -0.5090 -0.4340 -0.4194
 1566ANI     NH21917   2.509   2.582   1.571 -0.1388  0.4219 -0.5072
 1566ANI     HC21918   2.329   2.781   1.510 -1.3577 -1.6251 -0.9961
 1566ANI     HC21919   2.160   2.855   1.666 -0.0642 -0.9951 -0.3605
 1566ANI     HC21920   2.122   2.747   1.879  1.8056  3.3576  0.7294
 1566ANI     HC21921   2.279   2.572   1.962  0.8178  1.5649  1.4144
 1566ANI     HC21922   2.439   2.474   1.794  0.6789 -0.3929 -2.8940
 1566ANI     HN21923   2.519   2.482   1.569  0.5034  0.3567  2.7321
 1566ANI     HN21924   2.501   2.615   1.476  1.1165  2.2726 -0.0141
 1567ANI     CN21925   0.050   2.594   5.430 -0.2940  0.7808  0.2821
 1567ANI     CH21926   0.151   2.654   5.505  0.2703 -0.2707  0.3792
 1567ANI     CH21927   0.268   2.712   5.455  0.1687 -0.3185  0.0865
 1567ANI     CH21928   0.283   2.712   5.315  0.0290 -0.4183  0.0708
 1567ANI     CH21929   0.178   2.666   5.235  0.1042 -0.4072 -0.0338
 1567ANI     CH21930   0.067   2.600   5.291  0.1535 -0.2205  0.2851
 1567ANI     NH21931  -0.058   2.532   5.481 -0.0261  0.3499  0.3341
 1567ANI     HC21932   0.148   2.651   5.613  2.3214  1.6827  0.5230
 1567ANI     HC21933   0.353   2.742   5.514 -0.8734  0.1595  1.3731
 1567ANI     HC21934   0.380   2.747   5.284 -0.5018  0.1232 -0.9703
 1567ANI     HC21935   0.191   2.676   5.128  0.9045 -1.6903 -0.0635
 1567ANI     HC21936  -0.011   2.560   5.229  1.7960 -0.6120 -1.5670
 1567ANI     HN21937  -0.082   2.568   5.572  2.2542 -0.5988  1.3432
 1567ANI     HN21938  -0.144   2.541   5.428  0.1911  1.9542  0.2302
 1568ANI     CN21939   2.732   1.104   2.859 -0.3001  0.0246 -0.0771
 1568ANI     CH21940   2.742   1.135   2.996 -0.0242 -0.0801 -0.0725
 1568ANI     CH21941   2.834   1.232   3.036 -0.4208  0.2500  0.0339
 1568ANI     CH21942   2.912   1.294   2.938 -0.0927 -0.0785  0.0882
 1568ANI     CH21943   2.899   1.267   2.801 -0.2334 -0.1924  0.1239
 1568ANI     CH21944   2.813   1.164   2.762  0.4555 -0.7521  0.0698
 1568ANI     NH21945   2.640   1.019   2.813 -0.1180 -0.1697 -0.0792
 1568ANI     HC21946   2.682   1.092   3.074 -0.0993 -0.4547 -0.3332
 1568ANI     HC21947   2.848   1.252   3.141  0.5750  0.9769 -0.2338
 1568ANI     HC21948   2.979   1.373   2.969 -1.9810  2.2877 -1.7082
 1568ANI     HC21949   2.952   1.324   2.727  0.0840  1.5047  1.6150
 1568ANI     HC21950   2.807   1.134   2.658 -0.6555 -1.8126  0.4297
 1568ANI     HN21951   2.655   1.005   2.714  1.9224 -2.3621  0.4863
 1568ANI     HN21952   2.548   1.059   2.813 -0.5251 -0.9712 -2.9672
 1569ANI     CN21953   0.277   5.892   2.648  0.1180 -0.0039  0.3705
 1569ANI     CH21954   0.412   5.928   2.662  0.1813 -0.1174  0.0661
 1569ANI     CH21955   0.485   5.989   2.561  0.0158  0.1295  0.0965
 1569ANI     CH21956   0.419   6.034   2.446 -0.2235  0.0594  0.2074
 1569ANI     CH21957   0.283   6.004   2.432  0.0372 -0.9215 -0.2456
 1569ANI     CH21958   0.215   5.926   2.527  0.0506 -0.2118  0.3457
 1569ANI     NH21959   0.221   5.812   2.739  0.3104 -0.2130  0.3060
 1569ANI     HC21960   0.456   5.900   2.757 -1.6936 -1.4903  0.5714
 1569ANI     HC21961   0.584   6.027   2.583  0.5835 -3.0794  3.4818
 1569ANI     HC21962   0.472   6.093   2.372 -0.5070 -0.4054 -0.3748
 1569ANI     HC21963   0.233   6.030   2.340 -1.5910 -1.5918  0.4294
 1569ANI     HC21964   0.115   5.894   2.504 -0.3362  1.9325 -1.1318
 1569ANI     HN21965   0.255   5.829   2.832 -0.1861  1.7609  0.1326
 1569ANI     HN21966   0.120   5.816   2.742  0.3291  0.2261  0.2906
 1570ANI     CN21967   2.748   1.873   0.416  0.2571 -0.3944 -0.2866
 1570ANI     CH21968   2.725   1.857   0.553  0.2058  0.1032 -0.2359
 1570ANI     CH21969   2.630   1.940   0.615 -0.0300 -0.2666 -0.0934
 1570ANI     CH21970   2.563   2.043   0.547 -0.5666 -0.1628  0.5947
 1570ANI     CH21971   2.582   2.052   0.409  0.0125 -0.9181  0.6213
 1570ANI     CH21972   2.679   1.973   0.346 -0.0891 -0.4912 -0.0834
 1570ANI     NH21973   2.841   1.799   0.355 -0.0577 -0.3710 -0.7996
 1570ANI     HC21974   2.784   1.780   0.601  1.5066  0.9625 -0.4364
 1570ANI     HC21975   2.611   1.909   0.716 -0.4342  1.4652  0.3860
 1570ANI     HC21976   2.487   2.107   0.589  0.1873  0.6067  0.7894
 1570ANI     HC21977   2.526   2.125   0.352  1.5824 -2.2956 -2.8521
 1570ANI     HC21978   2.695   1.988   0.240  0.9261  2.0494  0.3889
 1570ANI     HN21979   2.858   1.707   0.393 -0.8262 -1.0534 -2.0834
 1570ANI     HN21980   2.820   1.786   0.257 -0.3901 -0.4989 -0.7107
 1571ANI     CN21981   0.034   0.008   2.364 -0.3999 -0.5541  0.4293
 1571ANI     CH21982  -0.034   0.089   2.272  0.0268  0.1887  0.7669
 1571ANI     CH21983   0.026   0.209   2.233  0.1404 -0.4038 -0.8879
 1571ANI     CH21984   0.136   0.263   2.300 -0.2058 -0.3978 -0.3202
 1571ANI     CH21985   0.201   0.181   2.393 -0.1676  0.3138  0.2814
 1571ANI     CH21986   0.155   0.052   2.420 -0.1561  0.1219 -0.6161
 1571ANI     NH21987  -0.016  -0.112   2.397 -0.0352 -0.7394  0.3149
 1571ANI     HC21988  -0.125   0.054   2.227 -1.7730  1.4208  3.3316
 1571ANI     HC21989  -0.027   0.272   2.162  0.2353  0.1528 -0.4695
 1571ANI     HC21990   0.188   0.356   2.278 -0.0124 -0.7615 -1.4251
 1571ANI     HC21991   0.290   0.217   2.442  1.8048  0.3108 -3.1589
 1571ANI     HC21992   0.202  -0.004   2.500 -2.6041  0.7683  1.3519
 1571ANI     HN21993   0.027  -0.143   2.483  0.9560  4.5210  1.9197
 1571ANI     HN21994  -0.116  -0.129   2.395 -0.1294 -0.2287  0.5356
 1572ANI     CN21995   0.836   3.504   2.947 -0.2763  0.0554  0.3079
 1572ANI     CH21996   0.891   3.547   3.068  0.2515 -0.0632  0.1108
 1572ANI     CH21997   0.983   3.653   3.069  0.7030 -0.4516  0.3000
 1572ANI     CH21998   1.026   3.710   2.948  0.0452 -0.2379  0.1607
 1572ANI     CH21999   0.971   3.672   2.826  0.0960  0.3102 -0.0357
 1572ANI     CH22000   0.880   3.565   2.829  0.1186  0.3061  0.5837
 1572ANI     NH22001   0.747   3.404   2.947 -0.1566 -0.0521 -0.3549
 1572ANI     HC22002   0.867   3.509   3.166 -0.3416  1.5284  0.5971
 1572ANI     HC22003   1.017   3.691   3.164 -0.7670  1.3314  0.1462
 1572ANI     HC22004   1.106   3.783   2.960 -1.0466  0.8817  0.7169
 1572ANI     HC22005   1.013   3.712   2.735 -1.2659  3.8910  0.8414
 1572ANI     HC22006   0.839   3.512   2.745  2.9565 -0.0589 -0.6375
 1572ANI     HN22007   0.684   3.393   2.869 -0.8160 -0.9818  0.2933
 1572ANI     HN22008   0.702   3.399   3.037 -0.2783 -0.0377 -0.4154
 1573ANI     CN22009   1.978   2.273   6.267  0.3309 -0.1796  0.0722
 1573ANI     CH22010   2.025   2.367   6.174  0.3792 -0.2239  0.0519
 1573ANI     CH22011   2.001   2.504   6.193  0.0157 -0.3576  0.5895
 1573ANI     CH22012   1.953   2.545   6.317  0.2503  0.1819  0.5065
 1573ANI     CH22013   1.913   2.455   6.417 -0.0315 -0.2296  0.0256
 1573ANI     CH22014   1.918   2.319   6.385  0.5514 -0.2535  0.2128
 1573ANI     NH22015   1.981   2.141   6.247 -0.0776 -0.2627  0.5637
 1573ANI     HC22016   2.067   2.335   6.080  0.7500  1.4103 -0.3600
 1573ANI     HC22017   2.040   2.571   6.117  1.5403  0.0974  1.7406
 1573ANI     HC22018   1.936   2.649   6.340  3.3906  1.0437 -0.8577
 1573ANI     HC22019   1.874   2.486   6.513 -2.1383  0.4475 -1.0187
 1573ANI     HC22020   1.869   2.252   6.454 -0.5620 -0.8437 -1.1095
 1573ANI     HN22021   2.074   2.102   6.235  0.0724  0.4562 -0.6595
 1573ANI     HN22022   1.926   2.093   6.317  0.5953 -0.0383  1.2537
 1574ANI     CN22023   0.338   5.442   0.072 -0.5304  0.2319 -0.3471
 1574ANI     CH22024   0.335   5.338   0.165  0.1426  0.7454  0.2518
 1574ANI     CH22025   0.233   5.332   0.261  0.1271 -0.2207  0.1851
 1574ANI     CH22026   0.136   5.433   0.263  0.1832 -0.1642  0.0177
 1574ANI     CH22027   0.142   5.537   0.168 -0.3921 -0.4750 -0.3647
 1574ANI     CH22028   0.239   5.540   0.067 -0.2064  0.5691 -0.1577
 1574ANI     NH22029   0.433   5.449  -0.022  0.2439  0.4022  0.4423
 1574ANI     HC22030   0.411   5.260   0.167 -1.0450 -0.4377 -0.0224
 1574ANI     HC22031   0.248   5.253   0.332  2.5795 -0.4421 -0.5465
 1574ANI     HC22032   0.057   5.439   0.336 -0.1396 -0.0242 -0.3426
 1574ANI     HC22033   0.074   5.621   0.167  1.0871  0.7493  0.0380
 1574ANI     HC22034   0.240   5.614  -0.011 -2.1707 -0.1047 -0.8688
 1574ANI     HN22035   0.471   5.539  -0.047  1.2621 -0.9938 -3.4438
 1574ANI     HN22036   0.505   5.379  -0.007 -0.2109  0.0263  0.8768
 1575ANI     CN22037   4.194   5.296   0.344  0.1581 -0.3546 -0.4075
 1575ANI     CH22038   4.142   5.399   0.264  0.3845 -0.1186 -0.2522
 1575ANI     CH22039   4.227   5.504   0.229  0.0151  0.2768  0.0300
 1575ANI     CH22040   4.356   5.516   0.284  0.0188 -0.3638  0.1623
 1575ANI     CH22041   4.407   5.409   0.358  0.3069 -0.1931  0.2118
 1575ANI     CH22042   4.327   5.298   0.389 -0.1210  0.1703  0.4113
 1575ANI     NH22043   4.121   5.193   0.388  0.6881 -0.6635 -0.2535
 1575ANI     HC22044   4.038   5.414   0.237  0.5376 -0.2717 -0.9211
 1575ANI     HC22045   4.192   5.586   0.168  3.3468  1.2725 -0.7016
 1575ANI     HC22046   4.416   5.602   0.257 -1.7605  1.5272  2.0372
 1575ANI     HC22047   4.507   5.413   0.398  1.0101  2.8638 -1.7594
 1575ANI     HC22048   4.370   5.211   0.437  0.2647  1.2214  2.0004
 1575ANI     HN22049   4.182   5.123   0.428  1.2348  0.0867  0.2600
 1575ANI     HN22050   4.055   5.160   0.320 -1.7183  3.1844  0.0588
 1576ANI     CN22051   5.934   3.847   2.653  0.2511  0.2156  0.6823
 1576ANI     CH22052   5.829   3.935   2.622  0.4621  0.1205 -0.3177
 1576ANI     CH22053   5.862   4.071   2.609  0.0386  0.2937  0.4002
 1576ANI     CH22054   5.995   4.113   2.613  0.0309  0.3553  0.0005
 1576ANI     CH22055   6.100   4.026   2.644 -0.0779  0.2301  0.0109
 1576ANI     CH22056   6.067   3.891   2.663  0.2862  0.1892  0.3568
 1576ANI     NH22057   5.903   3.718   2.673 -0.2841  0.2318 -0.0273
 1576ANI     HC22058   5.732   3.894   2.599 -0.4726  2.1591 -0.1474
 1576ANI     HC22059   5.774   4.130   2.586  0.3907 -0.0418 -1.9816
 1576ANI     HC22060   6.003   4.220   2.597 -1.0008  0.6710  1.5246
 1576ANI     HC22061   6.200   4.061   2.664 -0.0964  0.7408 -0.7477
 1576ANI     HC22062   6.143   3.816   2.676  1.4336  1.0558 -1.2365
 1576ANI     HN22063   5.844   3.694   2.751  1.9486  0.6796  1.8735
 1576ANI     HN22064   5.988   3.664   2.675 -0.4176  0.0679  1.6585
 1577ANI     CN22065   1.047   2.024   0.849 -0.3933  0.2630 -0.2384
 1577ANI     CH22066   1.062   2.102   0.734 -0.0157 -0.0521 -0.4064
 1577ANI     CH22067   0.980   2.080   0.623 -0.1715  0.1821 -0.3388
 1577ANI     CH22068   0.878   1.984   0.634  0.2532 -0.2127  0.1907
 1577ANI     CH22069   0.865   1.907   0.750  0.3430 -1.0395 -0.3456
 1577ANI     CH22070   0.952   1.922   0.859 -0.0053 -0.0983 -0.1939
 1577ANI     NH22071   1.123   2.055   0.955 -0.3341  0.2260 -0.2697
 1577ANI     HC22072   1.133   2.184   0.729 -0.3420  0.2365 -0.3803
 1577ANI     HC22073   0.985   2.132   0.529 -0.1785  0.3441 -0.2506
 1577ANI     HC22074   0.804   1.965   0.558 -1.5210  0.3043  1.7734
 1577ANI     HC22075   0.777   1.845   0.757 -0.7772 -0.3907 -6.4041
 1577ANI     HC22076   0.926   1.867   0.949 -2.3988  0.0913 -0.7228
 1577ANI     HN22077   1.119   1.987   1.029 -0.7266  0.2294 -0.2836
 1577ANI     HN22078   1.220   2.073   0.933 -0.4172  1.7052  0.4632
 1578ANI     CN22079   1.513   5.767   0.633  0.3006  0.0282 -0.0785
 1578ANI     CH22080   1.550   5.750   0.499 -0.5283  0.2161 -0.3310
 1578ANI     CH22081   1.652   5.827   0.444 -0.5263  0.2992 -0.2139
 1578ANI     CH22082   1.714   5.925   0.522 -0.3245  0.3400 -0.4224
 1578ANI     CH22083   1.673   5.945   0.655  0.4888 -0.3764 -0.0610
 1578ANI     CH22084   1.570   5.868   0.711  0.6171 -0.3590  0.2004
 1578ANI     NH22085   1.410   5.695   0.680  0.0894 -0.1519 -0.8233
 1578ANI     HC22086   1.493   5.670   0.453 -1.5378  0.6668  0.1059
 1578ANI     HC22087   1.684   5.817   0.341 -0.2383  1.3180 -0.2334
 1578ANI     HC22088   1.784   5.992   0.474  1.6023  0.1865  2.0676
 1578ANI     HC22089   1.720   6.019   0.718  1.1161 -0.3871 -0.5059
 1578ANI     HC22090   1.537   5.893   0.810 -1.7587 -0.2878 -0.5817
 1578ANI     HN22091   1.377   5.735   0.767  3.5726 -0.2253  0.6136
 1578ANI     HN22092   1.337   5.719   0.614  0.8390  0.4894 -1.4254
 1579ANI     CN22093   4.351   1.043   1.737 -0.2762 -0.0364 -0.0251
 1579ANI     CH22094   4.241   0.964   1.698  0.1781 -0.6655 -0.0350
 1579ANI     CH22095   4.143   0.928   1.791  0.1797  0.0126  0.2352
 1579ANI     CH22096   4.149   0.980   1.921 -0.1646  0.2426  0.1609
 1579ANI     CH22097   4.252   1.067   1.955 -0.2081  0.5716 -0.5442
 1579ANI     CH22098   4.359   1.093   1.867  0.2165  0.1952 -0.1423
 1579ANI     NH22099   4.438   1.078   1.641 -0.3577 -0.1828 -0.1533
 1579ANI     HC22100   4.217   0.929   1.599 -1.4778  0.2037  0.0522
 1579ANI     HC22101   4.051   0.876   1.765  0.0441  0.5313 -0.3564
 1579ANI     HC22102   4.073   0.958   1.995  0.8110  0.3440  1.1984
 1579ANI     HC22103   4.251   1.117   2.051  0.1965  1.8353 -1.1779
 1579ANI     HC22104   4.448   1.149   1.888  0.0859  0.1615  0.5233
 1579ANI     HN22105   4.433   1.007   1.569 -2.3901  1.5990 -1.8297
 1579ANI     HN22106   4.534   1.093   1.667 -0.8175  0.0637  1.4645
 1580ANI     CN22107   1.962   0.210   0.406  0.0229 -0.3327  0.3331
 1580ANI     CH22108   1.984   0.308   0.308  0.2507 -0.5616  0.1573
 1580ANI     CH22109   1.910   0.426   0.318  0.2188 -0.5306 -0.4198
 1580ANI     CH22110   1.807   0.446   0.411  0.0219 -0.7069 -0.6009
 1580ANI     CH22111   1.785   0.341   0.502  0.5491 -0.1423  0.1758
 1580ANI     CH22112   1.861   0.224   0.502 -0.0512 -0.5301  0.2833
 1580ANI     NH22113   2.033   0.098   0.393 -0.4786 -0.5498 -0.6100
 1580ANI     HC22114   2.057   0.292   0.230  0.9582  2.8496  0.0593
 1580ANI     HC22115   1.927   0.517   0.263  0.6068  0.9274  2.0118
 1580ANI     HC22116   1.759   0.542   0.411 -1.3105 -1.3438  2.2387
 1580ANI     HC22117   1.703   0.352   0.571 -1.5709  1.1511 -2.4356
 1580ANI     HC22118   1.827   0.143   0.565 -0.9714  0.8480  1.6028
 1580ANI     HN22119   2.134   0.110   0.390 -0.4802 -0.2371  0.4148
 1580ANI     HN22120   2.017   0.034   0.470 -0.3256 -1.9705 -1.7444
 1581ANI     CN22121   4.316   2.573   2.447 -0.3563 -0.4926 -0.2270
 1581ANI     CH22122   4.184   2.617   2.445 -0.1910  0.0067 -0.1425
 1581ANI     CH22123   4.149   2.724   2.362 -0.1087  0.1591  0.0196
 1581ANI     CH22124   4.242   2.780   2.274 -0.0061 -0.0296  0.0082
 1581ANI     CH22125   4.376   2.737   2.279 -0.2014 -0.6146  0.3077
 1581ANI     CH22126   4.412   2.632   2.363 -0.0068 -0.8790 -0.1025
 1581ANI     NH22127   4.351   2.471   2.527 -0.0322 -0.2296 -0.0327
 1581ANI     HC22128   4.102   2.572   2.499 -0.0738 -0.5558 -0.4324
 1581ANI     HC22129   4.044   2.752   2.370 -0.3975 -1.1058  0.7164
 1581ANI     HC22130   4.221   2.856   2.201 -0.7957 -0.8237 -0.6002
 1581ANI     HC22131   4.452   2.786   2.219  0.5921 -1.0599  0.9534
 1581ANI     HC22132   4.516   2.602   2.358  0.4633  0.6392  0.2681
 1581ANI     HN22133   4.285   2.455   2.601  0.6278 -0.6105  0.4853
 1581ANI     HN22134   4.445   2.462   2.563 -0.4900 -1.9243  0.7986
 1582ANI     CN22135   5.156   0.745   3.806 -0.0604  0.7967  0.2405
 1582ANI     CH22136   5.146   0.845   3.708 -0.0056  0.7164  0.1524
 1582ANI     CH22137   5.090   0.814   3.584  0.0272  0.1840  0.2691
 1582ANI     CH22138   5.033   0.688   3.561 -0.1336  0.2797  0.1360
 1582ANI     CH22139   5.044   0.591   3.661  0.1013  0.4815  0.3073
 1582ANI     CH22140   5.113   0.614   3.781  0.5420  0.6362  0.0273
 1582ANI     NH22141   5.216   0.789   3.917  0.5814  0.3235  0.0846
 1582ANI     HC22142   5.188   0.941   3.736 -1.6796  1.1440  1.2818
 1582ANI     HC22143   5.089   0.889   3.507  0.6858  1.3231  1.3517
 1582ANI     HC22144   4.988   0.658   3.468 -0.9365 -2.3341  1.3220
 1582ANI     HC22145   5.004   0.491   3.652  3.2643 -0.9168  0.9719
 1582ANI     HC22146   5.104   0.538   3.858  1.4798 -1.8466 -2.2201
 1582ANI     HN22147   5.262   0.713   3.966 -1.0598 -0.3577  0.6010
 1582ANI     HN22148   5.294   0.846   3.887 -0.5840  1.9699  0.1000
 1583ANI     CN22149   2.042   5.520   5.825 -0.1085  0.1471 -0.0137
 1583ANI     CH22150   1.930   5.586   5.773 -0.1672 -0.0933 -0.1944
 1583ANI     CH22151   1.802   5.529   5.778 -0.1477 -0.0948  0.3146
 1583ANI     CH22152   1.792   5.399   5.828  0.1700 -0.1703  0.1851
 1583ANI     CH22153   1.905   5.327   5.868  0.3948  0.0111 -0.1147
 1583ANI     CH22154   2.028   5.392   5.880  0.3307  0.1088  0.0138
 1583ANI     NH22155   2.162   5.578   5.812  0.1755 -0.3956  0.1858
 1583ANI     HC22156   1.935   5.687   5.734 -1.3640 -0.2117 -0.6817
 1583ANI     HC22157   1.723   5.580   5.725 -0.3866  0.4193  1.1537
 1583ANI     HC22158   1.701   5.343   5.815  0.1631  0.1804 -1.3939
 1583ANI     HC22159   1.890   5.224   5.899 -1.6420  0.9596  2.3027
 1583ANI     HC22160   2.117   5.336   5.902  0.8149  1.2768  1.1157
 1583ANI     HN22161   2.153   5.629   5.725 -1.4332  0.9768  1.1430
 1583ANI     HN22162   2.232   5.505   5.807  0.5473  0.0487 -1.6764
 1584ANI     CN22163   3.416   5.484   0.964  0.0823 -0.1170 -0.3255
 1584ANI     CH22164   3.356   5.362   0.995 -0.6054  0.3612  0.2397
 1584ANI     CH22165   3.372   5.249   0.914 -0.1280  0.4362  0.2289
 1584ANI     CH22166   3.446   5.258   0.795 -0.3040  0.1617  0.0982
 1584ANI     CH22167   3.517   5.376   0.770 -0.3319  0.2171  0.2774
 1584ANI     CH22168   3.489   5.491   0.845 -0.0349  0.7015 -0.3550
 1584ANI     NH22169   3.401   5.590   1.044 -0.1447 -0.2508 -0.1918
 1584ANI     HC22170   3.306   5.347   1.090 -0.9427 -1.0344 -0.1495
 1584ANI     HC22171   3.328   5.153   0.938  1.6348 -0.6874 -0.9228
 1584ANI     HC22172   3.470   5.170   0.737 -0.4879 -0.6005  1.1653
 1584ANI     HC22173   3.587   5.379   0.687 -1.9481  1.4719 -1.0759
 1584ANI     HC22174   3.550   5.575   0.814  1.0923 -0.2662 -0.8318
 1584ANI     HN22175   3.383   5.576   1.143 -0.3020 -2.1606 -0.4751
 1584ANI     HN22176   3.470   5.663   1.031 -0.6666 -0.1933 -2.8844
 1585ANI     CN22177   1.382   2.471   0.212  0.0118  0.2269  0.5890
 1585ANI     CH22178   1.475   2.465   0.107  0.3466  0.4425  0.8743
 1585ANI     CH22179   1.542   2.348   0.072 -0.2835  0.2145  0.4161
 1585ANI     CH22180   1.522   2.233   0.150  0.8853  0.0799  0.5237
 1585ANI     CH22181   1.433   2.239   0.258 -0.1645  0.3755 -0.3504
 1585ANI     CH22182   1.360   2.355   0.287 -0.8437 -0.1016 -0.1593
 1585ANI     NH22183   1.317   2.584   0.242 -0.1111  0.5477 -0.8455
 1585ANI     HC22184   1.493   2.549   0.042 -0.4110  0.4748  0.6974
 1585ANI     HC22185   1.614   2.340  -0.009  0.0045  0.3717  0.6550
 1585ANI     HC22186   1.575   2.141   0.128 -1.5694 -1.4812  1.0369
 1585ANI     HC22187   1.408   2.157   0.323  2.6118 -0.8040 -0.7038
 1585ANI     HC22188   1.284   2.364   0.363 -1.4104  0.4826 -0.7894
 1585ANI     HN22189   1.296   2.650   0.168  0.4111  1.8808  0.1592
 1585ANI     HN22190   1.228   2.566   0.285  0.8112  0.0363  0.9109
 1586ANI     CN22191   2.684   3.964   0.037  0.3143  0.0366  0.4061
 1586ANI     CH22192   2.574   4.016   0.107  0.7527  0.9404  0.4333
 1586ANI     CH22193   2.528   3.952   0.223  0.6792  0.5516  0.1924
 1586ANI     CH22194   2.601   3.845   0.277  0.2714  0.1585 -0.0368
 1586ANI     CH22195   2.718   3.806   0.211  0.0554 -0.3684 -0.1084
 1586ANI     CH22196   2.759   3.857   0.088  0.4707  0.0514  0.2031
 1586ANI     NH22197   2.726   4.026  -0.074 -0.1932  0.2033  0.3053
 1586ANI     HC22198   2.535   4.107   0.065  0.2257  0.5264  0.0135
 1586ANI     HC22199   2.455   3.989   0.294 -0.2580 -0.4202 -0.2587
 1586ANI     HC22200   2.578   3.803   0.374 -0.1073 -1.4136 -0.7859
 1586ANI     HC22201   2.787   3.732   0.248 -0.2153 -1.3021 -1.4389
 1586ANI     HC22202   2.842   3.822   0.028  0.4578 -0.5889  0.5651
 1586ANI     HN22203   2.823   4.002  -0.089 -0.6060 -0.0320 -2.1514
 1586ANI     HN22204   2.707   4.124  -0.086  1.4989  0.3152 -1.6757
 1587ANI     CN22205   2.609   2.834   4.715 -0.0845  0.5478 -0.6164
 1587ANI     CH22206   2.550   2.744   4.626 -0.3807  0.0077  0.1337
 1587ANI     CH22207   2.416   2.762   4.588 -0.3571 -0.0252  0.0374
 1587ANI     CH22208   2.338   2.860   4.650 -0.3813  0.1933 -0.3389
 1587ANI     CH22209   2.396   2.940   4.749 -0.3988 -0.0647 -0.1189
 1587ANI     CH22210   2.534   2.938   4.772 -0.3812  0.1061 -0.2049
 1587ANI     NH22211   2.742   2.828   4.730 -0.1606  0.5288  0.0661
 1587ANI     HC22212   2.613   2.668   4.583  2.5069  1.3064  1.8829
 1587ANI     HC22213   2.361   2.697   4.522 -1.0857 -2.2295  2.6857
 1587ANI     HC22214   2.231   2.874   4.639 -0.3597  0.2713 -0.4468
 1587ANI     HC22215   2.332   3.016   4.790 -0.2798 -0.7577  1.3780
 1587ANI     HC22216   2.577   3.012   4.838 -0.7754 -1.8749  2.3631
 1587ANI     HN22217   2.790   2.754   4.681 -0.4714 -0.3453  1.0685
 1587ANI     HN22218   2.776   2.819   4.825  1.5092 -0.0779 -0.5585
 1588ANI     CN22219   0.634   0.143   5.337 -0.4651  0.0333 -0.1337
 1588ANI     CH22220   0.724   0.168   5.233 -0.5571 -0.1323 -0.2548
 1588ANI     CH22221   0.792   0.063   5.171  0.3933 -0.2808  1.0235
 1588ANI     CH22222   0.771  -0.068   5.217  0.5558 -0.4457  0.6301
 1588ANI     CH22223   0.680  -0.091   5.321 -0.4681  0.3432 -0.0701
 1588ANI     CH22224   0.614   0.013   5.387 -0.4964  0.1614  0.1914
 1588ANI     NH22225   0.588   0.244   5.412  0.3738 -0.3026  0.8439
 1588ANI     HC22226   0.736   0.271   5.202  0.9832  0.2197  1.4077
 1588ANI     HC22227   0.861   0.076   5.089  0.1436  0.0057  0.8600
 1588ANI     HC22228   0.830  -0.146   5.172  0.2020 -0.4986  0.2540
 1588ANI     HC22229   0.674  -0.196   5.347  0.1886 -0.0190 -1.3578
 1588ANI     HC22230   0.551  -0.003   5.473  1.4529 -1.1953  1.3821
 1588ANI     HN22231   0.597   0.331   5.360  0.8640 -1.2403 -0.6597
 1588ANI     HN22232   0.496   0.217   5.444 -0.2998  1.6791  0.6470
 1589ANI     CN22233   2.415   3.214   6.222  0.1868 -0.1735 -0.0968
 1589ANI     CH22234   2.406   3.192   6.360  0.1109 -0.1446 -0.0971
 1589ANI     CH22235   2.438   3.301   6.442 -1.3416  0.0700  0.2079
 1589ANI     CH22236   2.473   3.424   6.387  0.3222 -0.5018 -0.0355
 1589ANI     CH22237   2.477   3.444   6.248  0.0185  0.2556  0.0645
 1589ANI     CH22238   2.461   3.333   6.165  0.4218 -0.0360  0.3790
 1589ANI     NH22239   2.387   3.110   6.142 -0.3640 -0.1444  0.0526
 1589ANI     HC22240   2.360   3.099   6.392  0.0487 -1.0435 -2.6519
 1589ANI     HC22241   2.435   3.291   6.549 -1.5716 -1.5955  0.0652
 1589ANI     HC22242   2.493   3.510   6.449 -2.9639 -0.9865  1.7708
 1589ANI     HC22243   2.509   3.539   6.207 -0.6006 -0.3300 -1.7961
 1589ANI     HC22244   2.459   3.340   6.057  0.9045 -1.3927  0.2649
 1589ANI     HN22245   2.426   3.114   6.048 -0.5786  2.0469  0.0246
 1589ANI     HN22246   2.397   3.015   6.174  0.9161 -0.0373 -0.0088
 1590ANI     CN22247   3.649   3.185   3.418  0.1543  0.9773 -0.4282
 1590ANI     CH22248   3.542   3.238   3.492 -0.0442 -0.5176  0.3712
 1590ANI     CH22249   3.566   3.301   3.615 -0.3741 -0.0135  0.1758
 1590ANI     CH22250   3.697   3.316   3.660 -0.3391 -0.4703  0.2247
 1590ANI     CH22251   3.806   3.273   3.584 -0.3013  0.1636 -0.0730
 1590ANI     CH22252   3.779   3.200   3.468  0.1037 -0.2287  0.0812
 1590ANI     NH22253   3.642   3.130   3.296  0.2692  0.0984 -0.0388
 1590ANI     HC22254   3.445   3.208   3.456 -0.3519 -1.1436  1.7031
 1590ANI     HC22255   3.478   3.330   3.670  0.1201 -0.0920  1.0022
 1590ANI     HC22256   3.725   3.364   3.753  0.6212  2.3186 -1.4619
 1590ANI     HC22257   3.910   3.295   3.605 -0.4882  0.9527  0.0533
 1590ANI     HC22258   3.866   3.164   3.413  0.0133 -0.1160 -0.1355
 1590ANI     HN22259   3.551   3.098   3.267  0.7701 -0.4750 -0.9992
 1590ANI     HN22260   3.715   3.067   3.266  1.3363  1.0535  0.5153
 1591ANI     CN22261   5.081   4.109   6.088 -0.5784  0.1465 -0.5541
 1591ANI     CH22262   5.161   4.008   6.143 -0.1879  0.7857  0.0549
 1591ANI     CH22263   5.107   3.922   6.239 -0.1428  0.0556 -0.5723
 1591ANI     CH22264   4.969   3.926   6.263 -0.0547  0.2838 -0.0998
 1591ANI     CH22265   4.892   4.029   6.208 -0.1786 -0.0918 -0.6359
 1591ANI     CH22266   4.948   4.128   6.127 -0.4705  0.3611 -0.2868
 1591ANI     NH22267   5.146   4.200   6.015 -0.0061 -0.1366 -0.3978
 1591ANI     HC22268   5.266   3.995   6.122  0.1387  0.3696  1.8254
 1591ANI     HC22269   5.171   3.852   6.291 -0.3530  0.0348 -0.3372
 1591ANI     HC22270   4.914   3.862   6.331 -0.2493  0.7005  0.1342
 1591ANI     HC22271   4.785   4.032   6.224 -0.0961  1.2368 -0.2618
 1591ANI     HC22272   4.885   4.211   6.098  0.6880  1.7059  0.9897
 1591ANI     HN22273   5.239   4.205   6.055  0.0578  0.7657 -0.6582
 1591ANI     HN22274   5.101   4.291   6.015 -0.7234 -0.4810  0.3328
 1592ANI     CN22275   2.085   3.627   6.039 -0.1898  0.2189 -0.2724
 1592ANI     CH22276   2.025   3.731   5.967 -0.5024  0.0746 -0.2204
 1592ANI     CH22277   2.052   3.862   6.008  0.4648 -0.3617  0.5452
 1592ANI     CH22278   2.128   3.897   6.120 -0.4599  0.4466  0.9225
 1592ANI     CH22279   2.182   3.791   6.194 -0.1733  0.0486  0.1499
 1592ANI     CH22280   2.164   3.660   6.149 -0.5924  0.1421  0.0409
 1592ANI     NH22281   2.076   3.498   6.004  0.6835 -0.0016  0.2891
 1592ANI     HC22282   1.966   3.702   5.881  0.4035  3.9769 -2.2548
 1592ANI     HC22283   2.013   3.947   5.954  0.8402 -0.6277 -0.1532
 1592ANI     HC22284   2.146   4.001   6.145 -0.0488  0.5361  0.2709
 1592ANI     HC22285   2.245   3.813   6.280 -1.1006 -0.5227  0.9813
 1592ANI     HC22286   2.225   3.581   6.192 -0.9281 -1.0548 -1.6526
 1592ANI     HN22287   2.081   3.426   6.074 -1.7818 -0.0504  0.4614
 1592ANI     HN22288   2.012   3.479   5.927  1.0583 -0.3445  0.0588
 1593ANI     CN22289   0.709   4.488   3.692 -0.1963 -0.0604 -0.0652
 1593ANI     CH22290   0.634   4.565   3.602  0.3979  0.5864 -0.0165
 1593ANI     CH22291   0.522   4.631   3.654  0.1604  0.1064  0.0819
 1593ANI     CH22292   0.479   4.607   3.785 -0.2041 -0.0103 -0.0553
 1593ANI     CH22293   0.559   4.539   3.878  0.2714  0.4805 -0.0966
 1593ANI     CH22294   0.675   4.479   3.828  0.2235  0.2534  0.0609
 1593ANI     NH22295   0.804   4.409   3.641 -0.3350 -0.2269 -0.0654
 1593ANI     HC22296   0.656   4.584   3.498 -1.8793 -0.7254 -0.7784
 1593ANI     HC22297   0.477   4.704   3.589  2.5589  2.4624  0.9925
 1593ANI     HC22298   0.394   4.665   3.818 -0.5784  0.8428 -2.4608
 1593ANI     HC22299   0.536   4.516   3.981  1.3126 -3.8933 -0.7112
 1593ANI     HC22300   0.734   4.409   3.884 -2.9614 -2.0671  0.6161
 1593ANI     HN22301   0.873   4.469   3.598  1.6819 -2.1312  0.4211
 1593ANI     HN22302   0.857   4.377   3.721  1.7400  2.9083 -0.1089
 1594ANI     CN22303   1.200   4.950   1.479  0.0879 -0.1888 -0.1523
 1594ANI     CH22304   1.092   5.015   1.541  0.0879 -0.7375  0.4307
 1594ANI     CH22305   1.036   5.132   1.489  0.6155 -0.5243  0.3323
 1594ANI     CH22306   1.097   5.191   1.378 -0.2617 -1.0027 -0.4246
 1594ANI     CH22307   1.214   5.138   1.323  0.2960 -0.1954 -0.0396
 1594ANI     CH22308   1.258   5.013   1.368  0.7049  0.0683  0.3037
 1594ANI     NH22309   1.250   4.832   1.518 -0.2529 -0.3255 -0.1328
 1594ANI     HC22310   1.052   4.973   1.632  2.1694 -1.3842  1.0803
 1594ANI     HC22311   0.947   5.170   1.537  0.6808  0.5220 -0.3655
 1594ANI     HC22312   1.064   5.282   1.331  3.0927 -0.4854 -1.9525
 1594ANI     HC22313   1.248   5.180   1.229  1.0230 -0.2162  0.2070
 1594ANI     HC22314   1.341   4.967   1.316 -0.1698 -0.7921 -0.3588
 1594ANI     HN22315   1.328   4.788   1.473 -0.5137  2.3631 -3.3543
 1594ANI     HN22316   1.222   4.782   1.602  3.1759 -3.5849 -0.8182
 1595ANI     CN22317   0.116   0.607   4.209  0.1802 -0.0190  0.2384
 1595ANI     CH22318   0.236   0.542   4.239  0.3038  0.2737  0.3775
 1595ANI     CH22319   0.330   0.599   4.326  0.3006  0.2919  0.3698
 1595ANI     CH22320   0.311   0.733   4.360 -0.0206  0.3338  0.0272
 1595ANI     CH22321   0.198   0.806   4.323  0.0541  0.4898  0.1068
 1595ANI     CH22322   0.096   0.738   4.255  0.3335  0.0381  0.1416
 1595ANI     NH22323   0.028   0.552   4.124  0.1993 -0.0720  0.2547
 1595ANI     HC22324   0.250   0.441   4.205  2.2991  1.2135 -1.7239
 1595ANI     HC22325   0.425   0.556   4.355 -0.1887 -2.6010 -2.0685
 1595ANI     HC22326   0.399   0.780   4.402  0.2861 -0.5572  0.3877
 1595ANI     HC22327   0.187   0.910   4.351 -0.4574  0.2391  0.8440
 1595ANI     HC22328  -0.003   0.777   4.238  0.3257  0.0208  0.1470
 1595ANI     HN22329   0.056   0.481   4.058  0.3459  0.3445 -0.1254
 1595ANI     HN22330  -0.006   0.630   4.070  0.4388  0.5076  0.9265
 1596ANI     CN22331   4.346   0.729   5.259  0.1130  0.0866 -0.2222
 1596ANI     CH22332   4.347   0.852   5.191  0.2359  0.0433 -0.2976
 1596ANI     CH22333   4.380   0.970   5.259 -0.4498  0.0511  0.0253
 1596ANI     CH22334   4.422   0.964   5.392 -0.3493 -0.0278 -0.0101
 1596ANI     CH22335   4.406   0.845   5.464 -0.0536  0.0147  0.1265
 1596ANI     CH22336   4.369   0.728   5.397 -0.5249  0.2970 -0.1099
 1596ANI     NH22337   4.329   0.608   5.204 -0.4936  0.1806 -0.2462
 1596ANI     HC22338   4.334   0.842   5.085 -1.7977 -0.9397  0.0269
 1596ANI     HC22339   4.393   1.063   5.207 -0.5275  0.0052 -0.0755
 1596ANI     HC22340   4.454   1.047   5.453 -1.7645  0.0936  0.5848
 1596ANI     HC22341   4.426   0.844   5.570  1.1254  1.5022 -0.0586
 1596ANI     HC22342   4.366   0.631   5.445 -0.1212 -0.8595 -2.3590
 1596ANI     HN22343   4.381   0.532   5.246 -2.0807 -0.6331  0.3249
 1596ANI     HN22344   4.342   0.601   5.104 -1.1511  2.8081 -0.5404
 1597ANI     CN22345   0.293   6.149   2.007  0.5047  0.0149  0.0931
 1597ANI     CH22346   0.301   6.010   2.018  0.7325  0.0356  0.2095
 1597ANI     CH22347   0.348   5.927   1.915  0.4227  0.0927  0.0191
 1597ANI     CH22348   0.390   5.992   1.799 -0.1708 -0.0269 -0.2647
 1597ANI     CH22349   0.392   6.131   1.787 -0.3654 -0.0284 -0.2921
 1597ANI     CH22350   0.334   6.210   1.888  0.0659 -0.0016 -0.0633
 1597ANI     NH22351   0.241   6.216   2.111  0.1729 -0.1690  0.0439
 1597ANI     HC22352   0.272   5.954   2.106 -1.9835  0.3134 -0.4459
 1597ANI     HC22353   0.328   5.821   1.921 -0.9177  0.2500 -1.5304
 1597ANI     HC22354   0.434   5.945   1.712  3.3102  2.6509 -0.0851
 1597ANI     HC22355   0.427   6.176   1.696  0.0412  0.1781 -0.0328
 1597ANI     HC22356   0.346   6.317   1.884  1.6840 -0.0527  2.7282
 1597ANI     HN22357   0.240   6.314   2.087  1.2537 -0.1476  0.0688
 1597ANI     HN22358   0.144   6.195   2.130 -0.6071  0.4115 -3.0910
 1598ANI     CN22359   1.072   2.445   3.607 -0.0433 -0.0798  0.2800
 1598ANI     CH22360   0.949   2.449   3.541  0.0205 -0.4418  0.1399
 1598ANI     CH22361   0.939   2.515   3.418  0.1249 -0.1878  0.2694
 1598ANI     CH22362   1.049   2.585   3.367 -0.3765  0.4494  0.0469
 1598ANI     CH22363   1.170   2.594   3.437 -0.5633  0.1604  0.4088
 1598ANI     CH22364   1.180   2.518   3.554  0.1197 -0.6542 -0.1791
 1598ANI     NH22365   1.087   2.371   3.717  0.2130 -0.5770 -0.0856
 1598ANI     HC22366   0.862   2.392   3.572 -2.1902  2.8781  0.3530
 1598ANI     HC22367   0.850   2.526   3.357 -0.1760  1.0126  0.8930
 1598ANI     HC22368   1.039   2.633   3.271 -1.3792 -0.1425 -0.1420
 1598ANI     HC22369   1.250   2.650   3.390  1.1550 -3.8660 -1.6354
 1598ANI     HC22370   1.276   2.513   3.604  0.0475 -1.5543 -0.1073
 1598ANI     HN22371   1.180   2.333   3.725  0.7355  0.8532  0.9907
 1598ANI     HN22372   1.022   2.294   3.713  1.1965 -1.4267  0.1399
 1599ANI     CN22373   2.698   1.560   3.902 -0.4104 -0.1499 -0.1331
 1599ANI     CH22374   2.764   1.568   3.778 -0.8362 -0.1871 -0.3605
 1599ANI     CH22375   2.752   1.683   3.700 -0.1305  0.0246 -0.1565
 1599ANI     CH22376   2.676   1.787   3.755 -0.2392 -0.2516  0.2166
 1599ANI     CH22377   2.614   1.784   3.881 -0.3244  0.0709  0.1823
 1599ANI     CH22378   2.614   1.662   3.949 -0.1694 -0.0205  0.0185
 1599ANI     NH22379   2.711   1.446   3.972 -0.1031 -0.2722 -0.3875
 1599ANI     HC22380   2.835   1.493   3.747  1.7203  3.0599 -2.5655
 1599ANI     HC22381   2.805   1.686   3.606  0.8417  3.1614  0.4202
 1599ANI     HC22382   2.672   1.880   3.700  3.3647  1.0389  1.9886
 1599ANI     HC22383   2.561   1.869   3.921 -0.3015 -0.1809  0.7523
 1599ANI     HC22384   2.569   1.655   4.047  0.2546 -2.3608  0.0807
 1599ANI     HN22385   2.693   1.475   4.067 -0.8688 -1.2951 -0.2143
 1599ANI     HN22386   2.809   1.420   3.967  0.3872  1.6132 -1.0707
 1600ANI     CN22387   1.317   2.305   3.974 -0.5711 -0.0038 -0.3213
 1600ANI     CH22388   1.331   2.172   3.932 -0.3629 -0.0137 -0.2167
 1600ANI     CH22389   1.402   2.140   3.816  0.3644  0.3696  0.1158
 1600ANI     CH22390   1.445   2.242   3.730 -0.6122  0.4403 -0.2872
 1600ANI     CH22391   1.430   2.373   3.776  0.1227  0.3275  0.2647
 1600ANI     CH22392   1.368   2.409   3.896 -0.0631  0.1560  0.2197
 1600ANI     NH22393   1.260   2.329   4.093 -0.2091 -0.0530 -0.1370
 1600ANI     HC22394   1.296   2.095   3.998 -0.5078  0.6022  0.4343
 1600ANI     HC22395   1.406   2.037   3.784 -1.8980 -0.3231  1.9666
 1600ANI     HC22396   1.494   2.219   3.636  0.9241  0.2457  0.5625
 1600ANI     HC22397   1.463   2.457   3.717 -0.9843 -1.1153 -2.4780
 1600ANI     HC22398   1.365   2.514   3.923 -0.8807  0.1683  0.0989
 1600ANI     HN22399   1.270   2.427   4.117 -2.9192 -0.0488  1.1448
 1600ANI     HN22400   1.289   2.271   4.170 -1.4037  1.9496  1.9227
 1601ANI     CN22401   0.565   4.179   6.187  0.2317  0.5408 -0.0850
 1601ANI     CH22402   0.616   4.061   6.131 -0.0398  0.2842  0.2108
 1601ANI     CH22403   0.530   3.967   6.072 -0.1233  0.4215  0.1120
 1601ANI     CH22404   0.392   3.985   6.082 -0.1291  0.3955  0.0789
 1601ANI     CH22405   0.337   4.106   6.128  0.0397  0.7166 -0.5532
 1601ANI     CH22406   0.427   4.198   6.183  0.1697  0.1371  0.2057
 1601ANI     NH22407   0.650   4.273   6.230  0.4551  0.5500 -0.5321
 1601ANI     HC22408   0.723   4.049   6.131 -0.2245 -1.4768  1.1247
 1601ANI     HC22409   0.555   3.871   6.029  1.5360  0.8305  0.0972
 1601ANI     HC22410   0.333   3.906   6.039  0.0762  0.1701  0.2147
 1601ANI     HC22411   0.229   4.114   6.134  0.0531  1.0766 -0.7944
 1601ANI     HC22412   0.385   4.288   6.225 -2.3648  0.2572 -2.4219
 1601ANI     HN22413   0.681   4.335   6.156  1.8549 -0.1269 -0.5279
 1601ANI     HN22414   0.733   4.225   6.261  0.7347 -0.4080 -2.7446
 1602ANI     CN22415   3.796   5.041   4.882 -0.5257  0.0355  0.2629
 1602ANI     CH22416   3.920   5.107   4.888 -0.6614  0.2913  0.3074
 1602ANI     CH22417   3.976   5.147   5.010  0.0464 -0.1161  0.1148
 1602ANI     CH22418   3.908   5.119   5.129  0.4818 -0.2826  0.3276
 1602ANI     CH22419   3.788   5.046   5.126 -0.1450  0.7691 -0.4923
 1602ANI     CH22420   3.733   5.008   5.003 -0.3689 -0.8531  0.1003
 1602ANI     NH22421   3.731   5.012   4.769  0.0119  0.1835 -0.0847
 1602ANI     HC22422   3.969   5.123   4.794  1.7898  1.1682  1.6963
 1602ANI     HC22423   4.069   5.201   5.008  1.0409 -1.6759  2.3544
 1602ANI     HC22424   3.943   5.145   5.228 -0.2241 -2.7915  1.2899
 1602ANI     HC22425   3.735   5.035   5.219  2.2180  0.6336  0.8814
 1602ANI     HC22426   3.642   4.952   4.993 -0.4004 -0.4992 -1.8009
 1602ANI     HN22427   3.655   5.076   4.752 -0.5542  0.3065  2.7647
 1602ANI     HN22428   3.794   5.028   4.691  0.2498 -2.0763 -0.3986
 1603ANI     CN22429   1.594   5.333   0.037 -0.5716 -0.0864 -0.3568
 1603ANI     CH22430   1.686   5.231   0.065 -0.0159  0.6210  0.4681
 1603ANI     CH22431   1.810   5.229   0.002 -0.1203  0.1695  0.2745
 1603ANI     CH22432   1.842   5.333  -0.087 -0.2363  0.3097  0.3983
 1603ANI     CH22433   1.754   5.440  -0.107 -0.6054 -0.0891 -0.1502
 1603ANI     CH22434   1.625   5.436  -0.052 -0.5376  0.2483  0.0353
 1603ANI     NH22435   1.473   5.324   0.093 -0.3424 -0.6462  0.0567
 1603ANI     HC22436   1.656   5.156   0.137  0.4203  2.1772  2.2978
 1603ANI     HC22437   1.874   5.143   0.016 -0.8084 -0.7240 -1.7782
 1603ANI     HC22438   1.938   5.335  -0.135 -0.0800  1.0680  0.7378
 1603ANI     HC22439   1.783   5.523  -0.169 -1.9409 -1.3186 -2.4616
 1603ANI     HC22440   1.568   5.523  -0.084 -2.2114 -0.1264  1.9466
 1603ANI     HN22441   1.467   5.273   0.180 -0.5825 -0.5170  0.1166
 1603ANI     HN22442   1.447   5.421   0.106  1.8427 -0.2791  1.9817
 1604ANI     CN22443   0.905   2.327   1.683 -0.0829  0.2693 -0.0406
 1604ANI     CH22444   1.002   2.238   1.634 -0.3100 -0.1754  0.3165
 1604ANI     CH22445   1.068   2.147   1.717  0.2215 -0.3790 -0.3287
 1604ANI     CH22446   1.036   2.146   1.853 -0.0809 -0.1082 -0.3973
 1604ANI     CH22447   0.940   2.235   1.903  0.0901  0.3003 -0.7940
 1604ANI     CH22448   0.876   2.327   1.819 -1.2477 -0.1612 -0.2851
 1604ANI     NH22449   0.837   2.401   1.593 -0.4339  0.4210  0.3503
 1604ANI     HC22450   1.022   2.244   1.528 -0.7956 -1.9103  0.1155
 1604ANI     HC22451   1.148   2.084   1.680 -0.5990 -2.2255  0.9585
 1604ANI     HC22452   1.072   2.072   1.923 -2.0397  0.1246  0.8910
 1604ANI     HC22453   0.910   2.211   2.003  0.1918 -4.0837 -1.7256
 1604ANI     HC22454   0.801   2.395   1.860 -0.0101  1.4541 -0.6327
 1604ANI     HN22455   0.891   2.407   1.508  0.2159 -1.7153  0.5625
 1604ANI     HN22456   0.807   2.494   1.620 -4.0463 -0.2964 -0.9256
 1605ANI     CN22457   0.197   3.161   6.081  0.3396 -0.4992 -0.2872
 1605ANI     CH22458   0.084   3.238   6.112  0.5016 -0.2195 -0.3936
 1605ANI     CH22459   0.059   3.272   6.245 -0.3797 -0.8681 -0.3925
 1605ANI     CH22460   0.142   3.234   6.351 -0.2345  0.2672 -0.0952
 1605ANI     CH22461   0.248   3.148   6.318 -0.4986 -0.1157  0.0492
 1605ANI     CH22462   0.269   3.105   6.187  0.2879  0.1411  0.0863
 1605ANI     NH22463   0.223   3.120   5.956  0.2293  0.4493 -0.6209
 1605ANI     HC22464   0.016   3.267   6.033 -0.9346 -1.8092  0.2181
 1605ANI     HC22465  -0.033   3.323   6.270  1.2661  1.3604  1.2891
 1605ANI     HC22466   0.115   3.272   6.448 -1.0039  1.8279 -0.8983
 1605ANI     HC22467   0.315   3.105   6.391  0.0187  1.1673  0.3532
 1605ANI     HC22468   0.343   3.030   6.163  1.0487  1.0764 -0.5600
 1605ANI     HN22469   0.156   3.149   5.886 -0.4797 -1.0548 -0.5895
 1605ANI     HN22470   0.232   3.020   5.947 -1.0018  0.4410 -2.0064
 1606ANI     CN22471   0.206   4.882   4.880 -0.4687  0.1362 -0.1047
 1606ANI     CH22472   0.261   5.008   4.854 -0.4415  0.1032 -0.2075
 1606ANI     CH22473   0.254   5.056   4.723  0.2791 -0.4265 -0.4477
 1606ANI     CH22474   0.209   4.979   4.615 -0.4507 -0.0218 -0.4406
 1606ANI     CH22475   0.158   4.852   4.648  0.1426 -0.2701 -0.4584
 1606ANI     CH22476   0.151   4.802   4.778 -0.1116  0.1475 -0.3101
 1606ANI     NH22477   0.201   4.846   5.009  0.0191 -0.3741 -0.2259
 1606ANI     HC22478   0.312   5.058   4.935 -0.1209  1.6559 -1.3451
 1606ANI     HC22479   0.297   5.154   4.708  0.8754 -0.2232  2.4042
 1606ANI     HC22480   0.225   5.010   4.513  0.8876  1.3907  0.1721
 1606ANI     HC22481   0.123   4.779   4.576 -0.9729 -2.6189  2.3696
 1606ANI     HC22482   0.123   4.700   4.798  0.9904 -0.0110  0.5038
 1606ANI     HN22483   0.188   4.916   5.080 -2.0279 -0.7070 -0.2429
 1606ANI     HN22484   0.139   4.768   5.027 -0.2054  0.0146  0.7039
 1607ANI     CN22485   5.931   4.843   2.041 -0.1855 -0.1363 -0.0045
 1607ANI     CH22486   5.889   4.960   2.107  0.1854  0.0285 -0.0592
 1607ANI     CH22487   5.919   5.084   2.050  0.3262  0.2539  0.5031
 1607ANI     CH22488   5.994   5.099   1.933 -0.1356 -0.2417  0.1385
 1607ANI     CH22489   6.053   4.982   1.885  0.1301 -0.2626  0.5162
 1607ANI     CH22490   6.020   4.854   1.934  0.3391 -0.3611  0.4014
 1607ANI     NH22491   5.889   4.723   2.083  0.0988 -0.2123  0.0650
 1607ANI     HC22492   5.822   4.956   2.191  0.4240 -3.0206  0.0712
 1607ANI     HC22493   5.883   5.174   2.097  4.6313  2.6670 -0.5457
 1607ANI     HC22494   6.030   5.195   1.899 -0.6618 -0.1525 -0.1659
 1607ANI     HC22495   6.122   4.978   1.802 -1.6881  1.8711 -1.1453
 1607ANI     HC22496   6.053   4.767   1.880  0.5496  0.5398 -0.9662
 1607ANI     HN22497   5.885   4.717   2.184 -0.9529  0.0197  0.0429
 1607ANI     HN22498   5.936   4.642   2.045  1.8655  0.5665  0.5214
 1608ANI     CN22499   5.229   2.347   0.690  0.4554 -0.3139  0.0889
 1608ANI     CH22500   5.234   2.276   0.810  0.2077  0.3203  0.4788
 1608ANI     CH22501   5.199   2.336   0.932  0.3267 -0.3066  0.8262
 1608ANI     CH22502   5.162   2.471   0.933 -0.0984 -0.4093 -0.4158
 1608ANI     CH22503   5.158   2.540   0.811  0.7255  0.0462 -0.1866
 1608ANI     CH22504   5.182   2.479   0.688  0.1484 -0.4263 -0.0682
 1608ANI     NH22505   5.270   2.288   0.577  0.1917 -0.0101 -0.1682
 1608ANI     HC22506   5.266   2.173   0.802  0.8917  0.6381 -0.9661
 1608ANI     HC22507   5.212   2.290   1.029 -0.1970 -0.6684  0.7270
 1608ANI     HC22508   5.141   2.528   1.022  1.7177 -1.4271  0.6919
 1608ANI     HC22509   5.126   2.643   0.803 -0.3715 -0.3444 -0.9826
 1608ANI     HC22510   5.176   2.536   0.596  2.0855 -0.3214 -0.1517
 1608ANI     HN22511   5.258   2.189   0.561  1.8237 -0.2126 -0.1839
 1608ANI     HN22512   5.233   2.348   0.505 -0.3508 -2.5642 -2.0878
 1609ANI     CN22513   0.188   3.777   1.574 -0.1346 -0.4351 -0.4070
 1609ANI     CH22514   0.190   3.879   1.479 -0.0478  0.2509  0.3233
 1609ANI     CH22515   0.291   3.879   1.382  0.0017  0.0268  0.3748
 1609ANI     CH22516   0.385   3.776   1.373  0.3333  0.3087  0.6369
 1609ANI     CH22517   0.384   3.673   1.468  0.1087 -0.2331  0.0496
 1609ANI     CH22518   0.287   3.678   1.569 -0.4949 -0.7963 -0.4950
 1609ANI     NH22519   0.087   3.766   1.662  0.1989  0.5004  0.0930
 1609ANI     HC22520   0.114   3.956   1.478 -0.7530 -0.4334  0.4568
 1609ANI     HC22521   0.291   3.958   1.309  0.7602 -0.5523 -0.2604
 1609ANI     HC22522   0.459   3.765   1.295  0.7489  0.2412  1.0342
 1609ANI     HC22523   0.450   3.587   1.476 -0.8616 -1.0223 -0.4061
 1609ANI     HC22524   0.289   3.596   1.639 -2.9469 -0.4966 -0.0275
 1609ANI     HN22525   0.040   3.856   1.658  0.2388  0.5071 -0.2655
 1609ANI     HN22526   0.119   3.745   1.756  1.3115  0.6462 -0.2502
 1610ANI     CN22527   0.938   2.398   0.046  0.1604  0.0330 -0.2623
 1610ANI     CH22528   0.824   2.328   0.005  0.4998 -0.1185 -0.9521
 1610ANI     CH22529   0.803   2.194   0.040  0.0901  0.0972 -0.3767
 1610ANI     CH22530   0.897   2.127   0.120 -0.0629  0.2527 -0.0658
 1610ANI     CH22531   1.015   2.192   0.156  0.1501 -0.2038  0.0571
 1610ANI     CH22532   1.033   2.325   0.117 -0.1088 -0.2355 -0.1753
 1610ANI     NH22533   0.950   2.527   0.010  0.2061  0.2039  0.3663
 1610ANI     HC22534   0.748   2.371  -0.059  0.2696 -0.3322 -0.8276
 1610ANI     HC22535   0.713   2.149   0.002  1.1786 -2.2229 -0.2672
 1610ANI     HC22536   0.877   2.023   0.140 -2.2017  0.2500 -1.9239
 1610ANI     HC22537   1.099   2.136   0.194  1.0383 -1.3937 -3.4355
 1610ANI     HC22538   1.122   2.376   0.153  0.2521 -0.5138 -0.6736
 1610ANI     HN22539   0.895   2.558  -0.069 -0.3714  0.6686  0.9429
 1610ANI     HN22540   1.028   2.589   0.026 -0.5363  0.8481  1.5798
 1611ANI     CN22541   0.997   5.462   5.865 -0.0518 -0.8356  0.3400
 1611ANI     CH22542   1.077   5.469   5.980 -0.0106 -0.5597  0.2940
 1611ANI     CH22543   1.048   5.564   6.078 -0.0501  0.1613 -0.4100
 1611ANI     CH22544   0.946   5.659   6.060 -0.3475  0.0317  0.5678
 1611ANI     CH22545   0.876   5.657   5.939  0.3635  0.1448  0.1525
 1611ANI     CH22546   0.896   5.556   5.844 -0.0027 -0.6529  0.9149
 1611ANI     NH22547   1.029   5.367   5.775  0.7044 -0.3433  0.0837
 1611ANI     HC22548   1.156   5.400   6.007  2.0436  1.7600  0.4223
 1611ANI     HC22549   1.091   5.559   6.177 -2.4875 -0.4180  0.6611
 1611ANI     HC22550   0.930   5.724   6.145  1.5659  3.1867 -1.3885
 1611ANI     HC22551   0.793   5.725   5.932  0.4159  0.2216  0.2755
 1611ANI     HC22552   0.831   5.553   5.758 -0.4897 -0.8032  1.2893
 1611ANI     HN22553   1.094   5.303   5.816  2.4150  1.1909 -0.1550
 1611ANI     HN22554   0.949   5.325   5.731  0.8131  0.3655 -0.8111
 1612ANI     CN22555   4.247   3.274   1.752  0.0228 -0.4956 -0.2844
 1612ANI     CH22556   4.152   3.275   1.649 -0.0239  0.1224 -0.2364
 1612ANI     CH22557   4.017   3.296   1.677  0.0152  0.0043  0.0389
 1612ANI     CH22558   3.969   3.314   1.808 -0.2493  0.1133 -0.0716
 1612ANI     CH22559   4.065   3.313   1.910 -0.2910 -0.4314 -0.0408
 1612ANI     CH22560   4.200   3.293   1.882 -0.3408 -0.1956 -0.4553
 1612ANI     NH22561   4.376   3.244   1.733  0.0622 -0.6166  0.1818
 1612ANI     HC22562   4.180   3.260   1.545 -0.1202 -0.9105 -0.1122
 1612ANI     HC22563   3.947   3.296   1.595  2.1596 -3.0198 -1.8595
 1612ANI     HC22564   3.864   3.332   1.824 -0.2067 -1.1731  1.8690
 1612ANI     HC22565   4.040   3.327   2.014  1.7233  0.1473  0.3727
 1612ANI     HC22566   4.264   3.308   1.968  1.6075  0.2461 -1.9566
 1612ANI     HN22567   4.429   3.248   1.819 -1.2334  0.4767  0.9572
 1612ANI     HN22568   4.421   3.302   1.663  2.1975 -0.9416  1.2274
 1613ANI     CN22569   3.051   4.900   1.073  0.1301 -0.0001  0.0320
 1613ANI     CH22570   3.103   4.777   1.031 -0.5552 -0.2988  0.0396
 1613ANI     CH22571   3.023   4.705   0.941 -0.0392 -1.0090  0.1410
 1613ANI     CH22572   2.893   4.748   0.912  0.2836  0.2511  0.5082
 1613ANI     CH22573   2.845   4.874   0.950  0.0382  0.1930  0.3944
 1613ANI     CH22574   2.929   4.953   1.029  0.3792  0.3988 -0.1734
 1613ANI     NH22575   3.127   4.973   1.154  0.3283 -0.1919  0.0208
 1613ANI     HC22576   3.198   4.740   1.067 -0.9814 -0.3924  1.0852
 1613ANI     HC22577   3.051   4.610   0.899  0.7264 -0.5290 -0.4524
 1613ANI     HC22578   2.821   4.689   0.857 -0.5596  0.6951  1.1361
 1613ANI     HC22579   2.752   4.908   0.907 -0.1768  0.0241  0.7229
 1613ANI     HC22580   2.886   5.046   1.064 -0.5784  0.6500 -1.9523
 1613ANI     HN22581   3.206   4.917   1.182  0.4392 -1.0041 -1.8739
 1613ANI     HN22582   3.077   5.002   1.237  1.9834  0.4948  0.7965
 1614ANI     CN22583   5.407   0.192   1.110  0.4609 -0.1728 -0.1189
 1614ANI     CH22584   5.427   0.079   1.030  0.1133 -0.5104  0.2678
 1614ANI     CH22585   5.340  -0.030   1.045 -0.5040  0.0030  0.4463
 1614ANI     CH22586   5.242  -0.028   1.144 -0.3060 -0.5779  0.6581
 1614ANI     CH22587   5.229   0.087   1.224  0.5442 -0.0117 -0.0068
 1614ANI     CH22588   5.301   0.205   1.201  0.0156  0.1807 -0.6878
 1614ANI     NH22589   5.496   0.289   1.089 -0.0999  0.4363  0.2949
 1614ANI     HC22590   5.504   0.071   0.955 -0.2492 -0.0174 -0.1563
 1614ANI     HC22591   5.357  -0.114   0.979 -1.2145  0.1688  0.0526
 1614ANI     HC22592   5.186  -0.119   1.158  1.4576 -1.4727  2.1485
 1614ANI     HC22593   5.151   0.082   1.299  1.7592  2.1316  1.4394
 1614ANI     HC22594   5.285   0.295   1.258 -0.1924 -0.5961  0.5025
 1614ANI     HN22595   5.544   0.277   1.001 -0.2097 -0.4048  0.3458
 1614ANI     HN22596   5.454   0.381   1.100 -0.7388  0.6134 -2.9990
 1615ANI     CN22597   0.852   4.478   6.047 -0.4761 -0.4727  0.0342
 1615ANI     CH22598   0.747   4.555   5.997  0.2206  0.2901 -0.2701
 1615ANI     CH22599   0.658   4.498   5.906 -0.2631 -0.0346  0.3994
 1615ANI     CH22600   0.684   4.369   5.859  0.6373  0.2021  0.2475
 1615ANI     CH22601   0.801   4.301   5.895 -0.0860 -1.0089  0.3426
 1615ANI     CH22602   0.889   4.355   5.990 -0.1681 -0.3940  0.0667
 1615ANI     NH22603   0.934   4.527   6.141  0.0319  0.0903 -0.6952
 1615ANI     HC22604   0.726   4.650   6.044  1.0658  0.3026  0.0902
 1615ANI     HC22605   0.571   4.553   5.872 -0.6142 -1.1214 -0.4769
 1615ANI     HC22606   0.612   4.329   5.789 -0.0777  1.1171  0.4566
 1615ANI     HC22607   0.816   4.202   5.854 -1.1083 -1.3138  0.6902
 1615ANI     HC22608   0.983   4.305   6.010  1.1189  0.6642 -3.0036
 1615ANI     HN22609   0.887   4.591   6.203  0.0948 -0.1218 -0.4307
 1615ANI     HN22610   0.966   4.449   6.197 -0.9419 -0.7071 -1.2285
 1616ANI     CN22611   0.916   1.006   5.462 -0.0599  0.0431 -0.1685
 1616ANI     CH22612   0.979   0.923   5.556 -0.0367  0.6518  0.3567
 1616ANI     CH22613   1.111   0.884   5.534 -0.4888 -0.3972 -0.5490
 1616ANI     CH22614   1.183   0.925   5.421  0.1124 -0.2751 -0.1284
 1616ANI     CH22615   1.118   1.009   5.329  0.2432 -0.2931 -0.2356
 1616ANI     CH22616   0.986   1.050   5.348  0.2128 -0.4190 -0.1808
 1616ANI     NH22617   0.789   1.039   5.486 -0.1428 -0.1242 -0.3718
 1616ANI     HC22618   0.926   0.897   5.646  0.7558 -0.3660  0.5281
 1616ANI     HC22619   1.167   0.833   5.612  0.4631  1.8530  0.2723
 1616ANI     HC22620   1.289   0.912   5.408  0.5308  0.0181  2.6870
 1616ANI     HC22621   1.177   1.048   5.247  1.3503 -1.4626 -0.0116
 1616ANI     HC22622   0.942   1.109   5.270  3.8035  1.2859 -0.9908
 1616ANI     HN22623   0.782   1.058   5.585  3.4664  0.3272 -0.1420
 1616ANI     HN22624   0.773   1.132   5.450 -0.8578  0.9721  2.5538
 1617ANI     CN22625   3.148   2.060   4.777  0.4820  0.5429  0.2675
 1617ANI     CH22626   3.206   2.002   4.890  0.0840 -0.6677 -0.1402
 1617ANI     CH22627   3.131   1.998   5.009  0.1051 -0.8112 -0.1302
 1617ANI     CH22628   3.005   2.059   5.015  0.4622 -0.1010  0.2995
 1617ANI     CH22629   2.955   2.129   4.905  0.2182 -0.4835  0.1643
 1617ANI     CH22630   3.027   2.130   4.786 -0.0668 -0.3598 -0.0076
 1617ANI     NH22631   3.223   2.065   4.667 -0.0170 -0.1969 -0.1122
 1617ANI     HC22632   3.307   1.963   4.898  0.1055 -0.8382 -1.1942
 1617ANI     HC22633   3.167   1.959   5.103 -1.2960  3.4057  2.2971
 1617ANI     HC22634   2.945   2.044   5.104 -1.0458 -0.4526 -0.7633
 1617ANI     HC22635   2.860   2.182   4.908  1.5589  2.1239 -1.6122
 1617ANI     HC22636   2.991   2.195   4.707  0.9630  1.1671  0.7601
 1617ANI     HN22637   3.293   1.993   4.653  0.8995  0.7425 -0.5019
 1617ANI     HN22638   3.170   2.073   4.582 -0.7073  1.7389  0.4740
 1618ANI     CN22639   2.337   0.897   2.490  0.0379 -0.0239 -0.0401
 1618ANI     CH22640   2.450   0.815   2.490 -0.0817 -0.1889  0.4674
 1618ANI     CH22641   2.424   0.680   2.517 -0.0631 -0.2940 -0.0285
 1618ANI     CH22642   2.298   0.632   2.558 -0.0973  0.1576  0.4008
 1618ANI     CH22643   2.193   0.724   2.563 -0.1461  0.0720  0.9005
 1618ANI     CH22644   2.208   0.859   2.527  0.1072 -0.1899  0.0298
 1618ANI     NH22645   2.357   1.026   2.461 -0.2032  0.0351  0.0599
 1618ANI     HC22646   2.554   0.844   2.484 -0.6608  1.9315  0.6026
 1618ANI     HC22647   2.514   0.621   2.517  1.0545  1.3377 -3.1459
 1618ANI     HC22648   2.293   0.528   2.585 -0.0636 -0.3221 -1.3617
 1618ANI     HC22649   2.099   0.679   2.591  0.6528 -1.6114  0.9299
 1618ANI     HC22650   2.133   0.934   2.544 -1.2180 -1.0926 -1.6340
 1618ANI     HN22651   2.280   1.066   2.408 -0.0980  0.1938  0.0285
 1618ANI     HN22652   2.446   1.045   2.418  0.2325 -2.3444 -0.1476
 1619ANI     CN22653   4.796   0.973   1.667 -0.1909  0.0804  0.4321
 1619ANI     CH22654   4.862   0.866   1.606 -0.5016  0.2938 -0.2879
 1619ANI     CH22655   4.854   0.739   1.663 -0.0754  0.1715 -0.4980
 1619ANI     CH22656   4.792   0.724   1.788 -0.0424 -0.2172 -0.5276
 1619ANI     CH22657   4.735   0.833   1.854  0.2763 -0.2806 -0.1435
 1619ANI     CH22658   4.729   0.957   1.789 -0.5539 -0.1339  0.2059
 1619ANI     NH22659   4.788   1.093   1.607 -0.4434 -0.1577 -0.0146
 1619ANI     HC22660   4.910   0.878   1.510 -1.6092 -1.2903 -1.0544
 1619ANI     HC22661   4.912   0.657   1.623 -0.4038 -0.6297  0.6294
 1619ANI     HC22662   4.792   0.630   1.842 -2.3561  0.1717  0.2336
 1619ANI     HC22663   4.679   0.816   1.945  0.4506  0.7831  0.1761
 1619ANI     HC22664   4.666   1.035   1.831 -0.3690  0.2723 -0.2596
 1619ANI     HN22665   4.780   1.159   1.683 -0.7650 -0.0172 -0.1699
 1619ANI     HN22666   4.866   1.125   1.551 -1.2756 -0.4024 -1.3175
 1620ANI     CN22667   6.095   1.614   5.675 -0.1212  0.0656  0.2167
 1620ANI     CH22668   6.040   1.576   5.798 -0.5013  0.0990  0.0574
 1620ANI     CH22669   6.054   1.656   5.911  0.3024 -0.4036  0.3172
 1620ANI     CH22670   6.123   1.778   5.897  0.1725 -0.4054 -0.3548
 1620ANI     CH22671   6.189   1.814   5.780  0.5700  0.3922  0.1131
 1620ANI     CH22672   6.174   1.729   5.670 -0.4434  0.2908  0.3263
 1620ANI     NH22673   6.091   1.533   5.568 -0.3994 -0.3303  0.5230
 1620ANI     HC22674   5.983   1.484   5.798  0.5684 -0.5710  0.5442
 1620ANI     HC22675   5.984   1.638   5.991  0.3369  1.0208  0.6899
 1620ANI     HC22676   6.117   1.838   5.987  0.2928 -1.7515  0.5658
 1620ANI     HC22677   6.240   1.909   5.774  0.5911  0.3794  0.0868
 1620ANI     HC22678   6.226   1.751   5.578  1.2039  1.4306  1.5031
 1620ANI     HN22679   6.088   1.433   5.580  1.5185 -0.5224 -0.2928
 1620ANI     HN22680   6.156   1.570   5.499 -0.3124 -2.2703 -0.4775
 1621ANI     CN22681   4.929   0.250   5.326  0.4831  0.2641  0.3265
 1621ANI     CH22682   4.855   0.134   5.352  0.2448  0.2478 -0.3886
 1621ANI     CH22683   4.901   0.015   5.295  0.0947  0.1236 -0.2483
 1621ANI     CH22684   5.018   0.007   5.218 -0.0895 -0.5151 -0.4688
 1621ANI     CH22685   5.084   0.126   5.186 -0.2816 -0.3023 -0.0781
 1621ANI     CH22686   5.037   0.248   5.237 -0.2452 -0.0775 -0.5741
 1621ANI     NH22687   4.879   0.367   5.367 -0.1007  0.0709  0.1751
 1621ANI     HC22688   4.772   0.132   5.421  1.0860 -1.7109  0.6205
 1621ANI     HC22689   4.851  -0.080   5.312  0.7849  0.2064  2.4745
 1621ANI     HC22690   5.044  -0.083   5.165 -2.1209 -1.4684  0.1012
 1621ANI     HC22691   5.165   0.129   5.115 -0.7038 -0.1475 -0.5545
 1621ANI     HC22692   5.089   0.333   5.196 -0.0196 -1.0174 -2.2932
 1621ANI     HN22693   4.782   0.364   5.395  0.2611  1.1195  1.6096
 1621ANI     HN22694   4.897   0.429   5.290 -0.7873  1.5443  1.1673
 1622ANI     CN22695   2.157   1.146   4.125  0.5273  0.1688 -0.1948
 1622ANI     CH22696   2.240   1.062   4.050 -0.0628 -0.2934 -0.3320
 1622ANI     CH22697   2.193   0.935   4.014 -0.1605 -0.2048 -0.5184
 1622ANI     CH22698   2.067   0.891   4.057 -0.0286 -0.1282 -0.0558
 1622ANI     CH22699   1.986   0.976   4.134  0.0795 -0.1258  0.0565
 1622ANI     CH22700   2.033   1.102   4.172  0.6597 -0.2499 -0.2305
 1622ANI     NH22701   2.191   1.274   4.141  0.0329  0.3115 -0.2728
 1622ANI     HC22702   2.333   1.089   4.003 -0.8655  1.0142 -1.1955
 1622ANI     HC22703   2.257   0.880   3.947 -0.9509 -0.7350 -0.8431
 1622ANI     HC22704   2.023   0.795   4.033  1.3719 -0.6002 -0.8033
 1622ANI     HC22705   1.891   0.934   4.161 -0.6740  0.2328 -1.9464
 1622ANI     HC22706   1.972   1.171   4.229  2.3854  0.4910  0.7338
 1622ANI     HN22707   2.127   1.337   4.095 -0.9767 -1.5263 -1.4115
 1622ANI     HN22708   2.279   1.287   4.093 -0.5062  0.7391 -1.1449
 1623ANI     CN22709   4.061   5.501   5.151  0.3229 -0.0363  0.1216
 1623ANI     CH22710   3.944   5.554   5.208  0.0869 -0.1043 -0.2950
 1623ANI     CH22711   3.910   5.526   5.340  0.3426  0.7229 -0.0512
 1623ANI     CH22712   4.000   5.451   5.416 -0.0485  0.2533 -0.0486
 1623ANI     CH22713   4.123   5.405   5.367 -0.3537 -0.4661 -0.1523
 1623ANI     CH22714   4.154   5.438   5.234  0.2189 -0.3369  0.0096
 1623ANI     NH22715   4.082   5.533   5.022  0.0995 -0.2803  0.0221
 1623ANI     HC22716   3.885   5.620   5.146 -0.5319 -0.7957 -0.4459
 1623ANI     HC22717   3.817   5.567   5.377  0.9052  0.2367  1.9564
 1623ANI     HC22718   3.972   5.414   5.514  0.7980 -0.0931  0.0696
 1623ANI     HC22719   4.195   5.357   5.431  0.4545  0.3599 -0.4308
 1623ANI     HC22720   4.246   5.417   5.182 -1.2876  0.9023 -3.2865
 1623ANI     HN22721   4.085   5.633   5.007 -0.1816  0.3508  3.5732
 1623ANI     HN22722   4.168   5.490   4.991  0.0962  0.6532 -1.3259
 1624ANI     CN22723   4.337   3.660   1.402  0.7006 -0.2580  0.5589
 1624ANI     CH22724   4.447   3.644   1.317  0.5725  0.1840  0.3105
 1624ANI     CH22725   4.458   3.521   1.252  0.1389  0.0831  0.4239
 1624ANI     CH22726   4.356   3.425   1.246  0.0567  0.1992 -0.0304
 1624ANI     CH22727   4.240   3.454   1.318 -0.0137  0.3394 -0.1989
 1624ANI     CH22728   4.231   3.569   1.397  0.3464  0.1786  0.0767
 1624ANI     NH22729   4.327   3.784   1.451  0.1637 -0.0320 -0.1152
 1624ANI     HC22730   4.526   3.717   1.314  0.7057  0.1012  1.6319
 1624ANI     HC22731   4.549   3.497   1.198  0.1797 -1.8111  1.2750
 1624ANI     HC22732   4.367   3.336   1.185  1.7457  1.0044 -0.9461
 1624ANI     HC22733   4.155   3.387   1.326  1.2931 -1.2953  0.2434
 1624ANI     HC22734   4.147   3.593   1.461 -0.0566  0.6982 -0.6487
 1624ANI     HN22735   4.228   3.801   1.455  0.0494 -0.7840  0.2880
 1624ANI     HN22736   4.388   3.855   1.412  0.8015 -0.7952 -0.5057
 1625ANI     CN22737   3.661   2.128   6.070 -0.0062  0.0085 -0.2263
 1625ANI     CH22738   3.644   2.055   5.951  0.0086 -0.1270 -0.1452
 1625ANI     CH22739   3.759   2.006   5.888  0.1290  0.0544 -0.0722
 1625ANI     CH22740   3.888   2.025   5.938  0.1791  0.1936 -0.2573
 1625ANI     CH22741   3.904   2.100   6.055 -0.0966  0.3856 -0.3419
 1625ANI     CH22742   3.791   2.155   6.116 -0.0773  0.2128 -0.1504
 1625ANI     NH22743   3.557   2.154   6.149  0.5246 -0.1650  0.5390
 1625ANI     HC22744   3.544   2.038   5.915 -0.1522  0.1127  0.1885
 1625ANI     HC22745   3.747   1.950   5.796  2.6392 -1.8181  0.7031
 1625ANI     HC22746   3.970   1.982   5.883  0.1547  0.4972 -0.5350
 1625ANI     HC22747   4.003   2.116   6.095 -0.0303 -2.5453  0.7549
 1625ANI     HC22748   3.817   2.211   6.205 -0.9921 -1.8112  1.4403
 1625ANI     HN22749   3.557   2.249   6.184 -0.5323 -0.2955  0.9203
 1625ANI     HN22750   3.468   2.138   6.103  0.3443  1.3601  0.3155
 1626ANI     CN22751   4.700   5.262   3.095 -0.9319 -0.1760  0.4112
 1626ANI     CH22752   4.761   5.343   3.192  0.6213 -0.2608 -0.4774
 1626ANI     CH22753   4.782   5.480   3.172 -0.0400 -0.1533 -0.4391
 1626ANI     CH22754   4.736   5.537   3.053 -0.7199  0.2192  0.0020
 1626ANI     CH22755   4.660   5.461   2.963 -0.4273 -0.3822  0.2597
 1626ANI     CH22756   4.649   5.323   2.979 -0.4211 -0.4073  0.0596
 1626ANI     NH22757   4.691   5.130   3.115  0.1390 -0.2718  0.3013
 1626ANI     HC22758   4.790   5.299   3.286  0.9261 -0.1229 -0.5063
 1626ANI     HC22759   4.827   5.541   3.249 -1.0635 -1.4743  1.2520
 1626ANI     HC22760   4.749   5.639   3.018  0.6359 -0.1592 -0.6090
 1626ANI     HC22761   4.619   5.507   2.874  1.8406  0.2326 -0.5058
 1626ANI     HC22762   4.605   5.275   2.892 -3.5462  0.0423  1.3207
 1626ANI     HN22763   4.659   5.069   3.042  1.4527  0.9338 -1.3202
 1626ANI     HN22764   4.646   5.109   3.203  0.3940 -1.4917  0.1472
 1627ANI     CN22765   5.241   3.143   0.001  0.1007  0.1646  0.4771
 1627ANI     CH22766   5.148   3.227  -0.062  0.5342  0.4686  0.2346
 1627ANI     CH22767   5.155   3.257  -0.199  0.4198  0.2409  0.1792
 1627ANI     CH22768   5.259   3.198  -0.272 -0.3374 -0.3419 -0.4408
 1627ANI     CH22769   5.357   3.118  -0.212 -0.3480 -0.0206  0.0071
 1627ANI     CH22770   5.347   3.091  -0.075 -0.1190  0.2891  0.0848
 1627ANI     NH22771   5.224   3.131   0.133 -0.6365  0.3707  0.4013
 1627ANI     HC22772   5.058   3.264  -0.016 -0.8052  0.4059 -2.2440
 1627ANI     HC22773   5.084   3.319  -0.251  0.6265  0.8406  0.6045
 1627ANI     HC22774   5.256   3.206  -0.380 -0.3358  1.1498 -0.3378
 1627ANI     HC22775   5.420   3.048  -0.266 -1.6994 -1.1301 -0.1759
 1627ANI     HC22776   5.421   3.028  -0.027 -1.9421 -1.5616  0.5452
 1627ANI     HN22777   5.159   3.206   0.152 -0.3169  0.9692 -0.8248
 1627ANI     HN22778   5.309   3.167   0.173  0.1728 -2.9391  1.7999
 1628ANI     CN22779   2.187   5.458   3.432 -0.6586 -0.0200 -0.3402
 1628ANI     CH22780   2.314   5.427   3.383 -0.4759 -0.0581  0.1448
 1628ANI     CH22781   2.338   5.408   3.246 -0.0228  0.0199  0.2137
 1628ANI     CH22782   2.232   5.424   3.156 -0.1496 -0.1899  0.3263
 1628ANI     CH22783   2.104   5.447   3.206 -0.4235 -0.1075 -0.4108
 1628ANI     CH22784   2.079   5.457   3.343 -0.5998 -0.6000 -0.4040
 1628ANI     NH22785   2.171   5.482   3.563  0.1683  0.8781 -0.3951
 1628ANI     HC22786   2.401   5.425   3.447 -0.8827  1.9448  0.7915
 1628ANI     HC22787   2.443   5.391   3.225 -0.1222  1.4712 -1.6030
 1628ANI     HC22788   2.247   5.431   3.049  1.4129  1.0700  0.5919
 1628ANI     HC22789   2.017   5.467   3.144 -2.0136  1.7477  2.3215
 1628ANI     HC22790   1.979   5.482   3.373 -0.7486 -1.3229 -0.3041
 1628ANI     HN22791   2.241   5.553   3.582 -0.4013  1.2337  0.4169
 1628ANI     HN22792   2.080   5.522   3.579  0.0313 -0.7735  3.7626
 1629ANI     CN22793   3.814   0.178   2.090  0.0482 -0.1837 -0.3925
 1629ANI     CH22794   3.943   0.130   2.066  0.4280  0.4882  0.2625
 1629ANI     CH22795   3.975   0.078   1.940  0.2202  0.5289  0.1923
 1629ANI     CH22796   3.887   0.097   1.833  0.3625  0.6239  0.0911
 1629ANI     CH22797   3.759   0.148   1.855 -0.2599 -0.6808 -0.4292
 1629ANI     CH22798   3.723   0.188   1.985  0.1477 -0.1501 -0.4757
 1629ANI     NH22799   3.775   0.203   2.216  0.3717  0.8999 -0.5020
 1629ANI     HC22800   4.021   0.143   2.140 -0.5620 -0.5712  1.4978
 1629ANI     HC22801   4.071   0.036   1.913  0.3879 -0.0311  1.6476
 1629ANI     HC22802   3.927   0.062   1.739 -0.9896  1.8760 -0.9856
 1629ANI     HC22803   3.690   0.157   1.772 -0.7739 -0.6160 -0.0037
 1629ANI     HC22804   3.618   0.207   2.005  0.1528 -0.2454 -0.3587
 1629ANI     HN22805   3.677   0.192   2.237  0.8865 -2.5785  0.4080
 1629ANI     HN22806   3.816   0.144   2.288  0.4529 -0.0179 -1.2976
 1630ANI     CN22807   4.819   6.112   4.139  0.7560 -0.4694  0.2224
 1630ANI     CH22808   4.833   6.250   4.156 -0.0283 -0.3160 -0.3466
 1630ANI     CH22809   4.761   6.321   4.253 -0.5658 -0.6814 -0.4728
 1630ANI     CH22810   4.658   6.251   4.317 -0.6366 -0.0974  0.0632
 1630ANI     CH22811   4.649   6.112   4.306  0.2961 -0.1774  0.3455
 1630ANI     CH22812   4.739   6.038   4.228  0.1971 -0.0258  0.0914
 1630ANI     NH22813   4.886   6.052   4.040  0.3588 -0.0595 -0.2992
 1630ANI     HC22814   4.900   6.307   4.094  1.9596 -1.6543  0.5108
 1630ANI     HC22815   4.779   6.427   4.258  0.0942 -0.7717 -0.8944
 1630ANI     HC22816   4.585   6.303   4.378 -1.4155  0.4312 -1.2758
 1630ANI     HC22817   4.571   6.057   4.357  0.2185  0.0495  0.4710
 1630ANI     HC22818   4.735   5.930   4.231  0.2758 -0.0250  0.1908
 1630ANI     HN22819   4.841   5.970   4.002  0.8749 -0.3816 -0.2307
 1630ANI     HN22820   4.907   6.122   3.971 -0.8563 -0.4292 -1.0560
 1631ANI     CN22821   3.868   0.483   3.172 -0.5787  0.1296  0.0382
 1631ANI     CH22822   3.854   0.348   3.207 -0.1459  0.0975  0.0899
 1631ANI     CH22823   3.870   0.245   3.114 -0.4003  0.3243 -0.2069
 1631ANI     CH22824   3.893   0.279   2.980 -0.4882  0.0070 -0.3034
 1631ANI     CH22825   3.917   0.411   2.942 -0.5927 -0.1052 -0.7609
 1631ANI     CH22826   3.898   0.511   3.038 -0.3050 -0.7017 -0.0802
 1631ANI     NH22827   3.850   0.583   3.259 -0.0438 -0.0406  0.3478
 1631ANI     HC22828   3.838   0.314   3.308  0.6536 -1.1278 -0.1780
 1631ANI     HC22829   3.858   0.141   3.141  0.6641  0.4240  0.6925
 1631ANI     HC22830   3.908   0.197   2.912  1.5073  1.4171 -1.6183
 1631ANI     HC22831   3.942   0.424   2.838  0.6684 -0.3083 -0.4850
 1631ANI     HC22832   3.918   0.614   3.014 -0.4579 -0.8621 -0.9142
 1631ANI     HN22833   3.835   0.556   3.355 -0.2904  0.8402  0.5680
 1631ANI     HN22834   3.910   0.664   3.263 -1.2287  0.8523  0.3396
 1632ANI     CN22835   5.962   5.726   0.838  0.3338  0.3764 -0.3889
 1632ANI     CH22836   6.092   5.742   0.888  0.3492  0.0226 -0.3138
 1632ANI     CH22837   6.104   5.755   1.027  0.3499 -0.2941 -0.2839
 1632ANI     CH22838   5.998   5.747   1.117  0.4258  0.1625 -0.1506
 1632ANI     CH22839   5.868   5.742   1.064  0.3444 -0.1041  0.0738
 1632ANI     CH22840   5.853   5.729   0.926  0.6686 -0.3402  0.0581
 1632ANI     NH22841   5.945   5.693   0.709  0.1957  0.1743 -0.3184
 1632ANI     HC22842   6.178   5.735   0.823  0.0713  2.0689 -0.9457
 1632ANI     HC22843   6.206   5.755   1.063  1.4161  4.1339 -2.9139
 1632ANI     HC22844   6.010   5.750   1.224 -0.6888 -1.1573  0.0331
 1632ANI     HC22845   5.787   5.739   1.136 -0.1862  1.4387 -0.4424
 1632ANI     HC22846   5.757   5.696   0.888 -0.9668  1.6508  2.2928
 1632ANI     HN22847   6.022   5.705   0.645 -0.8097 -0.2806 -1.6145
 1632ANI     HN22848   5.851   5.707   0.676  0.0234  1.7227  0.8059
 1633ANI     CN22849   3.452   1.440   1.545  0.3313 -0.0468  0.6111
 1633ANI     CH22850   3.469   1.302   1.537 -0.1854 -0.0843  0.1333
 1633ANI     CH22851   3.380   1.213   1.598  0.0185 -0.3460  0.0504
 1633ANI     CH22852   3.268   1.267   1.663 -0.0740 -0.3695 -0.0890
 1633ANI     CH22853   3.247   1.405   1.670 -0.7374 -0.4638 -0.2804
 1633ANI     CH22854   3.337   1.491   1.608 -0.4850 -0.7421 -0.2991
 1633ANI     NH22855   3.528   1.527   1.477 -0.2782 -0.1519 -0.2149
 1633ANI     HC22856   3.560   1.258   1.497  0.0262 -1.4187  2.0296
 1633ANI     HC22857   3.399   1.106   1.595 -1.9543 -0.6679 -1.3009
 1633ANI     HC22858   3.187   1.205   1.698 -0.6256 -0.1442 -0.9660
 1633ANI     HC22859   3.164   1.451   1.721  0.2779  3.2271 -1.8302
 1633ANI     HC22860   3.321   1.597   1.620  2.2486 -0.4404  1.1566
 1633ANI     HN22861   3.474   1.594   1.423 -2.1098 -1.4490 -0.0418
 1633ANI     HN22862   3.588   1.478   1.413  0.8977  0.7135  0.2072
 1634ANI     CN22863   0.901   0.942   4.287  0.1154 -0.9910  0.0957
 1634ANI     CH22864   0.912   0.895   4.156  0.3265 -0.1368 -0.1930
 1634ANI     CH22865   1.038   0.878   4.096  0.3227 -0.2603 -0.1664
 1634ANI     CH22866   1.152   0.911   4.169  0.0671 -0.2489  0.2293
 1634ANI     CH22867   1.147   0.948   4.304 -0.1498 -0.3103  0.2385
 1634ANI     CH22868   1.019   0.957   4.360 -0.1041 -0.8279  0.4220
 1634ANI     NH22869   0.779   0.952   4.343 -0.0494 -0.4433 -0.3622
 1634ANI     HC22870   0.823   0.873   4.100 -0.4844  2.5534 -0.0176
 1634ANI     HC22871   1.041   0.853   3.991 -3.2663 -0.6179 -0.2714
 1634ANI     HC22872   1.247   0.891   4.120  1.9286  3.8893  1.8641
 1634ANI     HC22873   1.231   0.971   4.368 -0.7422  1.2453  0.4887
 1634ANI     HC22874   1.019   0.979   4.466  1.9909  0.1395  0.2479
 1634ANI     HN22875   0.705   0.941   4.275 -0.0434 -1.7701 -0.1571
 1634ANI     HN22876   0.761   1.041   4.386 -1.8562 -1.3197  0.7393
 1635ANI     CN22877   3.805   3.149   6.147  0.8090 -0.1464 -0.3299
 1635ANI     CH22878   3.842   3.250   6.057  0.6655  0.0542 -0.1671
 1635ANI     CH22879   3.821   3.235   5.919 -0.3797  0.0062 -0.0061
 1635ANI     CH22880   3.773   3.114   5.867 -0.2561 -0.0501  0.0108
 1635ANI     CH22881   3.738   3.015   5.959 -0.6192  0.1789  0.1208
 1635ANI     CH22882   3.749   3.031   6.097 -0.3710  0.2208  0.0960
 1635ANI     NH22883   3.821   3.159   6.280  0.6461 -0.0693 -0.3155
 1635ANI     HC22884   3.879   3.346   6.090 -1.1177  0.8560 -0.4676
 1635ANI     HC22885   3.851   3.309   5.846 -0.7704  0.8112  0.6435
 1635ANI     HC22886   3.767   3.094   5.761  0.1686  0.2847 -0.0811
 1635ANI     HC22887   3.705   2.917   5.925  0.9599 -0.3004 -0.0904
 1635ANI     HC22888   3.715   2.951   6.162 -1.5491 -0.6915 -1.6225
 1635ANI     HN22889   3.822   3.251   6.322  2.7803 -1.2752  2.3927
 1635ANI     HN22890   3.763   3.100   6.338  0.2466 -1.7539 -2.3619
 1636ANI     CN22891   0.520   1.817   5.389 -0.1688  0.2957 -0.0606
 1636ANI     CH22892   0.507   1.768   5.519  0.0311  0.4553  0.0180
 1636ANI     CH22893   0.626   1.727   5.581 -0.0136 -0.0614 -0.2361
 1636ANI     CH22894   0.749   1.723   5.515 -0.0199  0.2764 -0.2670
 1636ANI     CH22895   0.755   1.780   5.387  0.0349  0.4488 -0.1893
 1636ANI     CH22896   0.641   1.823   5.318 -0.2077 -0.1569 -0.1660
 1636ANI     NH22897   0.412   1.858   5.321 -0.5413  0.2890  0.5266
 1636ANI     HC22898   0.414   1.766   5.573  2.2057  2.5869  4.0800
 1636ANI     HC22899   0.625   1.698   5.685  1.4481 -0.0221 -0.2054
 1636ANI     HC22900   0.840   1.686   5.559 -1.0872  0.8070  2.5009
 1636ANI     HC22901   0.851   1.798   5.339 -0.9475  1.2349 -1.9316
 1636ANI     HC22902   0.642   1.862   5.218  1.1709  0.1023 -0.0604
 1636ANI     HN22903   0.327   1.855   5.377 -0.1691  1.7353  1.1902
 1636ANI     HN22904   0.424   1.939   5.262 -0.9217 -1.6292 -2.3038
 1637ANI     CN22905   3.627   2.619   3.388 -0.5131 -0.1269  0.8760
 1637ANI     CH22906   3.715   2.656   3.491  0.0330  0.2515  0.2757
 1637ANI     CH22907   3.772   2.556   3.570 -0.2748 -0.0666  0.0992
 1637ANI     CH22908   3.720   2.426   3.563  0.6470 -0.4386  0.0161
 1637ANI     CH22909   3.623   2.391   3.469  0.3956 -0.1567  0.1691
 1637ANI     CH22910   3.580   2.487   3.376 -0.1004 -0.2257  0.3265
 1637ANI     NH22911   3.581   2.714   3.306  0.7064 -0.3475 -0.0824
 1637ANI     HC22912   3.747   2.758   3.487  0.5134  0.0533 -1.7843
 1637ANI     HC22913   3.846   2.576   3.646 -2.4944  0.9106  2.0402
 1637ANI     HC22914   3.754   2.353   3.635  2.6555  0.0824 -0.3901
 1637ANI     HC22915   3.570   2.297   3.468 -1.5894  0.8688  3.0937
 1637ANI     HC22916   3.504   2.478   3.300  0.7618  1.8200 -0.8300
 1637ANI     HN22917   3.570   2.672   3.215  0.7037 -1.5309  0.4679
 1637ANI     HN22918   3.630   2.801   3.292 -0.4600  0.6700  1.8581
 1638ANI     CN22919   2.045   4.572   3.600  0.2140 -0.6410  0.1426
 1638ANI     CH22920   2.056   4.637   3.476 -0.5880 -0.4113  0.1884
 1638ANI     CH22921   1.991   4.584   3.364  0.1599  0.0333 -0.4639
 1638ANI     CH22922   1.912   4.469   3.376 -0.1615  0.2576 -0.4311
 1638ANI     CH22923   1.899   4.407   3.501  0.0433 -0.7057 -0.8859
 1638ANI     CH22924   1.960   4.462   3.614 -0.2541 -0.4110 -0.8681
 1638ANI     NH22925   2.102   4.622   3.711 -0.7149 -0.2585  0.4534
 1638ANI     HC22926   2.135   4.710   3.467  0.0896 -1.3666 -1.9569
 1638ANI     HC22927   2.010   4.612   3.261  0.0942 -0.6394 -0.6608
 1638ANI     HC22928   1.852   4.431   3.295 -0.6763 -0.0340  0.0809
 1638ANI     HC22929   1.838   4.317   3.505 -0.8024 -0.0879  0.6568
 1638ANI     HC22930   1.950   4.415   3.711 -1.1161  3.0614  0.8077
 1638ANI     HN22931   2.107   4.722   3.705  1.2977 -0.3197  0.6173
 1638ANI     HN22932   2.067   4.591   3.800 -1.3461 -0.3082  0.1895
 1639ANI     CN22933   0.500   5.503   4.783  0.3967  0.6863 -0.7425
 1639ANI     CH22934   0.445   5.405   4.698  0.6102 -0.2924  0.2405
 1639ANI     CH22935   0.536   5.322   4.631  0.3548 -0.0958 -0.3420
 1639ANI     CH22936   0.674   5.330   4.651  0.2474 -0.1260  0.4156
 1639ANI     CH22937   0.725   5.431   4.733  0.3299  0.3896 -0.2685
 1639ANI     CH22938   0.638   5.522   4.796  0.3840  0.6419 -0.5534
 1639ANI     NH22939   0.421   5.586   4.851  0.5279  0.5223 -0.3922
 1639ANI     HC22940   0.339   5.393   4.689  0.6219 -1.4452  1.5234
 1639ANI     HC22941   0.496   5.245   4.567 -1.2747  2.3052 -2.3565
 1639ANI     HC22942   0.743   5.253   4.619 -1.3495 -2.5471  2.6163
 1639ANI     HC22943   0.832   5.443   4.746  0.1225  0.9053  1.0816
 1639ANI     HC22944   0.673   5.605   4.856 -0.3926  1.6603 -1.5062
 1639ANI     HN22945   0.438   5.684   4.834 -0.5994  1.1513  1.8437
 1639ANI     HN22946   0.326   5.578   4.819  0.4255 -1.0410  0.2484
 1640ANI     CN22947   5.945   1.822   2.422 -0.2108 -0.2303  0.4892
 1640ANI     CH22948   6.042   1.776   2.332 -0.5440  0.2091 -0.1017
 1640ANI     CH22949   6.007   1.739   2.202 -0.1423 -0.2681 -0.0762
 1640ANI     CH22950   5.873   1.729   2.161 -0.0073  0.1966 -0.6467
 1640ANI     CH22951   5.777   1.768   2.256 -0.0916  0.0715 -0.6814
 1640ANI     CH22952   5.812   1.824   2.379  0.0799 -0.5363 -0.4519
 1640ANI     NH22953   5.978   1.890   2.533 -0.1671  0.0286  0.3188
 1640ANI     HC22954   6.149   1.779   2.346 -0.5686 -1.8080  0.6135
 1640ANI     HC22955   6.086   1.707   2.136 -0.8356 -2.4432  0.1207
 1640ANI     HC22956   5.851   1.702   2.059  1.6330  1.2655 -1.3066
 1640ANI     HC22957   5.673   1.761   2.231 -0.7988  0.7741  1.9749
 1640ANI     HC22958   5.737   1.859   2.449  0.2892 -1.2109  0.1184
 1640ANI     HN22959   5.934   1.981   2.542  2.8802  1.5597  0.4423
 1640ANI     HN22960   6.077   1.902   2.548 -0.6826  3.6277  1.3780
 1641ANI     CN22961   0.775   1.039   5.934 -0.0523 -0.3364 -0.8750
 1641ANI     CH22962   0.672   1.130   5.906 -0.0218  0.0293  0.1663
 1641ANI     CH22963   0.702   1.260   5.864 -0.0101 -0.1718 -0.4625
 1641ANI     CH22964   0.835   1.304   5.864  0.0315 -0.2911 -0.0606
 1641ANI     CH22965   0.935   1.214   5.901 -0.3918 -0.3481  0.9738
 1641ANI     CH22966   0.908   1.082   5.937  0.0574 -0.7300 -0.0495
 1641ANI     NH22967   0.743   0.916   5.975  0.0898 -0.2426 -0.4828
 1641ANI     HC22968   0.568   1.102   5.908  0.2433 -0.9183  1.0893
 1641ANI     HC22969   0.628   1.328   5.823 -0.4711 -1.0688 -1.1392
 1641ANI     HC22970   0.869   1.402   5.831 -0.6724  0.0011  0.0671
 1641ANI     HC22971   1.041   1.234   5.913 -0.0680 -1.7915  0.6247
 1641ANI     HC22972   0.988   1.017   5.971  1.4235  1.2112  0.5211
 1641ANI     HN22973   0.797   0.834   5.949 -0.4449 -0.8301  0.2331
 1641ANI     HN22974   0.647   0.887   5.961 -0.0158  0.2821 -0.8500
 1642ANI     CN22975   0.602   3.076   1.215  0.0133  0.0122  0.6241
 1642ANI     CH22976   0.560   2.952   1.265 -0.2004 -0.1185  0.1234
 1642ANI     CH22977   0.428   2.906   1.253 -0.1418 -0.2525 -0.0029
 1642ANI     CH22978   0.332   2.999   1.212  0.0674 -0.0035  0.0674
 1642ANI     CH22979   0.369   3.130   1.179  0.8098 -0.1015  0.5036
 1642ANI     CH22980   0.503   3.169   1.181  0.6054  0.6062  0.5157
 1642ANI     NH22981   0.731   3.113   1.217  0.2980 -0.9130 -0.2067
 1642ANI     HC22982   0.629   2.892   1.323 -0.4614 -1.8551 -1.3284
 1642ANI     HC22983   0.395   2.810   1.290  0.4980  0.0366  1.3649
 1642ANI     HC22984   0.230   2.965   1.216 -0.2685  0.9127 -0.5501
 1642ANI     HC22985   0.288   3.190   1.140 -0.3086 -1.4755  0.6612
 1642ANI     HC22986   0.537   3.263   1.139  0.4528  0.0762 -0.8120
 1642ANI     HN22987   0.762   3.187   1.157 -2.3323 -0.0491 -0.5510
 1642ANI     HN22988   0.794   3.034   1.204 -0.3352 -1.5721  0.6331
 1643ANI     CN22989   3.058   6.235   0.250 -0.0641 -0.1774  0.3712
 1643ANI     CH22990   3.062   6.261   0.387  0.4507 -0.0542  0.3312
 1643ANI     CH22991   3.171   6.208   0.458  0.5465 -0.2960  0.0011
 1643ANI     CH22992   3.272   6.135   0.394  0.4542 -0.1757 -0.2848
 1643ANI     CH22993   3.264   6.109   0.257 -0.6184  0.0093 -0.2590
 1643ANI     CH22994   3.155   6.159   0.185 -0.7413 -0.4151 -0.3715
 1643ANI     NH22995   2.946   6.272   0.186  0.2152 -0.3486 -0.2209
 1643ANI     HC22996   2.996   6.327   0.442  1.2698 -0.7813  2.2695
 1643ANI     HC22997   3.184   6.233   0.562 -3.4341  1.2227  0.2186
 1643ANI     HC22998   3.357   6.096   0.450  1.1115  1.6167 -0.0010
 1643ANI     HC22999   3.344   6.052   0.211 -0.3967 -0.8195  1.1299
 1643ANI     HC23000   3.148   6.143   0.078  1.0217 -0.1354 -0.5511
 1643ANI     HN23001   2.870   6.293   0.249  0.7133  1.3827 -0.1726
 1643ANI     HN23002   2.910   6.198   0.128 -0.3362  0.8803 -1.4801
 1644ANI     CN23003   0.777   3.221   4.452 -0.1089  0.2352  0.0806
 1644ANI     CH23004   0.905   3.167   4.430 -0.1282  0.4164 -0.4821
 1644ANI     CH23005   1.018   3.218   4.496 -0.3570  0.1840  0.0950
 1644ANI     CH23006   0.998   3.308   4.601 -0.2827  0.1592  0.1296
 1644ANI     CH23007   0.870   3.358   4.628 -0.3127  0.1993 -0.0928
 1644ANI     CH23008   0.758   3.308   4.560 -0.3860  0.7433 -0.3771
 1644ANI     NH23009   0.676   3.195   4.369  0.1352 -0.2198 -0.0758
 1644ANI     HC23010   0.917   3.095   4.351  1.2820 -0.2451  0.3209
 1644ANI     HC23011   1.110   3.166   4.475 -0.1407 -0.6405  2.9465
 1644ANI     HC23012   1.079   3.358   4.652 -0.7948  0.1082  1.0234
 1644ANI     HC23013   0.865   3.440   4.698  0.2932 -0.1536  0.3630
 1644ANI     HC23014   0.658   3.348   4.567  0.2981  2.8827 -2.3401
 1644ANI     HN23015   0.702   3.222   4.275  0.8089 -2.1072 -0.4484
 1644ANI     HN23016   0.591   3.244   4.395 -0.2182 -0.2261 -1.1779
 1645ANI     CN23017   2.549   4.079   2.692  0.1181  0.4170  0.4106
 1645ANI     CH23018   2.553   3.968   2.777 -0.2946  0.2564  0.2236
 1645ANI     CH23019   2.627   3.976   2.896 -0.7838  0.7229  0.4928
 1645ANI     CH23020   2.694   4.096   2.922  0.8667 -0.0586 -0.1131
 1645ANI     CH23021   2.691   4.209   2.839  0.1920  0.2145  0.2770
 1645ANI     CH23022   2.624   4.195   2.717  0.0766  0.4665  0.3105
 1645ANI     NH23023   2.492   4.069   2.571  0.2449  0.3575  0.3559
 1645ANI     HC23024   2.493   3.880   2.759 -0.2413  0.1289  0.6607
 1645ANI     HC23025   2.630   3.888   2.958  1.0720 -0.5203 -1.2926
 1645ANI     HC23026   2.739   4.101   3.020  0.0624  1.0646  0.2091
 1645ANI     HC23027   2.742   4.297   2.874 -0.3285  1.5981 -2.3161
 1645ANI     HC23028   2.624   4.284   2.656 -2.8992 -1.0363 -2.0256
 1645ANI     HN23029   2.419   3.999   2.563  1.7412 -1.1740 -0.3465
 1645ANI     HN23030   2.437   4.153   2.561 -0.1308  0.0078 -0.5448
 1646ANI     CN23031   3.565   3.313   2.134 -0.5073 -0.2441  0.0531
 1646ANI     CH23032   3.462   3.398   2.094 -0.1303  0.2341  0.1013
 1646ANI     CH23033   3.485   3.536   2.095 -0.1812  0.2404  0.3047
 1646ANI     CH23034   3.612   3.590   2.120  0.0818 -0.2817  0.0899
 1646ANI     CH23035   3.722   3.505   2.141  0.3029 -0.1128 -0.3702
 1646ANI     CH23036   3.691   3.369   2.158 -0.7527  0.2022  0.2940
 1646ANI     NH23037   3.550   3.180   2.138  0.4757 -0.3516  0.3077
 1646ANI     HC23038   3.367   3.349   2.088 -0.7813  1.2579  1.8326
 1646ANI     HC23039   3.404   3.607   2.086 -0.5228  0.2397  2.8850
 1646ANI     HC23040   3.642   3.693   2.109 -0.6852 -0.2439 -1.6819
 1646ANI     HC23041   3.821   3.546   2.142  0.0365  0.5088  0.7067
 1646ANI     HC23042   3.772   3.300   2.177 -0.8524 -0.2421 -0.8453
 1646ANI     HN23043   3.637   3.127   2.145  0.6009 -0.5089 -1.8766
 1646ANI     HN23044   3.495   3.142   2.063  2.0114  0.9043 -1.5087
 1647ANI     CN23045   3.992   2.378   1.264 -0.3298 -0.6405 -0.5542
 1647ANI     CH23046   3.874   2.425   1.324  0.3683  0.2467  0.1490
 1647ANI     CH23047   3.782   2.334   1.378  0.2091  0.1896 -0.2174
 1647ANI     CH23048   3.812   2.198   1.387  0.4180  0.2463 -0.0700
 1647ANI     CH23049   3.935   2.155   1.335 -0.0710 -0.8449 -0.3292
 1647ANI     CH23050   4.021   2.241   1.265  0.1272 -0.5431  0.2838
 1647ANI     NH23051   4.070   2.474   1.213 -0.0377 -0.3991  0.3234
 1647ANI     HC23052   3.866   2.531   1.336 -0.3577 -0.1211  3.1546
 1647ANI     HC23053   3.698   2.377   1.430 -0.2525 -0.5161 -0.3774
 1647ANI     HC23054   3.743   2.127   1.430  1.7903 -0.2435  1.3766
 1647ANI     HC23055   3.960   2.052   1.358 -0.2460 -0.5125  1.3899
 1647ANI     HC23056   4.109   2.201   1.217  0.0647 -0.3591  0.0161
 1647ANI     HN23057   4.039   2.490   1.118 -0.1826  1.2624  0.6384
 1647ANI     HN23058   4.162   2.437   1.195 -0.2580 -0.0730 -1.6130
 1648ANI     CN23059   2.733   5.087   2.328 -0.4228 -0.0554  0.3042
 1648ANI     CH23060   2.614   5.014   2.322 -0.2426 -0.3528  0.3163
 1648ANI     CH23061   2.603   4.896   2.397 -0.2455 -0.6928 -0.2185
 1648ANI     CH23062   2.700   4.859   2.490 -0.0704  0.1018 -0.0777
 1648ANI     CH23063   2.821   4.930   2.489 -0.1685  0.2745  0.4273
 1648ANI     CH23064   2.838   5.043   2.409 -0.0169 -0.2958 -0.3513
 1648ANI     NH23065   2.751   5.194   2.249 -0.7517  0.0102  0.3184
 1648ANI     HC23066   2.536   5.035   2.250 -1.1582  0.2778  1.4698
 1648ANI     HC23067   2.517   4.832   2.407 -1.2154  0.5323 -0.4556
 1648ANI     HC23068   2.692   4.767   2.547 -0.4109 -0.2565 -0.6970
 1648ANI     HC23069   2.893   4.908   2.567  0.8183 -0.7889 -0.7806
 1648ANI     HC23070   2.935   5.090   2.417  0.0519 -0.4722 -0.1518
 1648ANI     HN23071   2.667   5.231   2.206 -0.8433 -2.2176 -1.5333
 1648ANI     HN23072   2.804   5.270   2.288 -0.2019 -0.5530  0.6768
 1649ANI     CN23073   5.777   3.273   2.254 -0.0414  0.2821  0.1161
 1649ANI     CH23074   5.871   3.377   2.256 -0.1566  0.3930 -0.3326
 1649ANI     CH23075   5.996   3.366   2.316 -0.4969  0.1061  0.3271
 1649ANI     CH23076   6.028   3.247   2.383 -0.0789  0.0973  0.1144
 1649ANI     CH23077   5.930   3.147   2.392 -0.3613  0.3907  0.2922
 1649ANI     CH23078   5.804   3.160   2.332  0.0647 -0.3123 -0.7742
 1649ANI     NH23079   5.658   3.291   2.195  0.0012 -0.6544 -0.2673
 1649ANI     HC23080   5.848   3.466   2.198  1.0229  0.2869 -0.9701
 1649ANI     HC23081   6.066   3.449   2.311 -1.2563  0.7614  0.5485
 1649ANI     HC23082   6.127   3.227   2.421  0.3287  0.5419 -0.6949
 1649ANI     HC23083   5.954   3.059   2.450  1.8781  1.3675  0.8966
 1649ANI     HC23084   5.720   3.092   2.331 -0.2706  0.0501  0.7762
 1649ANI     HN23085   5.651   3.352   2.115  2.0577  0.3272  0.2536
 1649ANI     HN23086   5.624   3.198   2.175 -2.1913 -0.1539  0.9466
 1650ANI     CN23087   5.605   0.007   5.264  0.0045  0.0440 -0.5622
 1650ANI     CH23088   5.684   0.114   5.309  0.1048 -0.2022 -0.1547
 1650ANI     CH23089   5.626   0.193   5.408 -0.1039 -0.6799  0.1082
 1650ANI     CH23090   5.490   0.197   5.444 -0.2162  0.4845 -0.4177
 1650ANI     CH23091   5.408   0.111   5.369 -0.0952 -0.2698  0.3078
 1650ANI     CH23092   5.468   0.011   5.291  0.1628 -0.0893  0.2720
 1650ANI     NH23093   5.659  -0.100   5.206 -0.0386 -0.3024  0.0317
 1650ANI     HC23094   5.787   0.126   5.279  0.3412 -0.0956  0.6781
 1650ANI     HC23095   5.684   0.265   5.465 -1.1397 -0.2761  0.6787
 1650ANI     HC23096   5.460   0.272   5.515 -4.7488  1.4409 -3.1573
 1650ANI     HC23097   5.301   0.111   5.379 -0.0281  1.9894  1.5086
 1650ANI     HC23098   5.415  -0.062   5.232  2.0335 -2.0535  0.9816
 1650ANI     HN23099   5.756  -0.090   5.177 -0.2222  0.1532 -0.4185
 1650ANI     HN23100   5.606  -0.131   5.125  1.8773 -2.6906 -0.3923
 1651ANI     CN23101   1.495   3.603   4.917 -0.0068  0.4231 -0.3663
 1651ANI     CH23102   1.452   3.519   5.020  0.1255  0.2834 -0.4239
 1651ANI     CH23103   1.446   3.383   4.987  0.0023  0.1849  0.0030
 1651ANI     CH23104   1.484   3.332   4.863  0.3065 -0.1250  0.2236
 1651ANI     CH23105   1.536   3.416   4.764 -0.0992 -0.4112 -0.2335
 1651ANI     CH23106   1.537   3.553   4.793  0.5334 -0.5052  0.1818
 1651ANI     NH23107   1.503   3.735   4.936 -1.1267  0.3935  0.2998
 1651ANI     HC23108   1.425   3.543   5.122 -0.1258  1.8520 -0.8419
 1651ANI     HC23109   1.406   3.315   5.061  0.2760  0.4256  0.3755
 1651ANI     HC23110   1.447   3.237   4.827  0.5900  0.5989 -2.0396
 1651ANI     HC23111   1.560   3.385   4.663  1.4936 -2.1185  0.6502
 1651ANI     HC23112   1.578   3.621   4.719 -0.2767 -0.7850 -0.5218
 1651ANI     HN23113   1.593   3.764   4.902  1.1338 -3.6204  2.4808
 1651ANI     HN23114   1.503   3.746   5.037 -0.3541 -2.8425  0.7063
 1652ANI     CN23115   0.199   4.323   3.759 -0.4890 -0.1492 -0.3899
 1652ANI     CH23116   0.250   4.352   3.632 -0.0205 -0.0586 -0.1833
 1652ANI     CH23117   0.227   4.475   3.569 -0.7811 -0.2839 -0.3540
 1652ANI     CH23118   0.147   4.569   3.634 -0.3429 -0.4194  0.3940
 1652ANI     CH23119   0.103   4.542   3.764 -0.2901 -0.1484  0.4697
 1652ANI     CH23120   0.133   4.423   3.832  0.5248 -0.0064  0.3511
 1652ANI     NH23121   0.225   4.209   3.826  0.2667  0.4132  0.2783
 1652ANI     HC23122   0.297   4.271   3.578  0.0768 -0.6225  0.7251
 1652ANI     HC23123   0.249   4.486   3.464  1.6868 -0.8343  0.0604
 1652ANI     HC23124   0.109   4.655   3.581  1.9873 -0.6283 -1.6756
 1652ANI     HC23125   0.046   4.619   3.814  0.9193  0.6668  0.6117
 1652ANI     HC23126   0.108   4.399   3.934 -0.1774  0.5609  0.3129
 1652ANI     HN23127   0.247   4.124   3.777  1.5640  1.5037 -1.1201
 1652ANI     HN23128   0.173   4.184   3.908 -2.3760  0.4039 -1.3580
 1653ANI     CN23129   1.424   6.101   4.007  0.3390  0.5595 -0.1552
 1653ANI     CH23130   1.372   6.023   3.903  0.6547  0.1952 -0.0407
 1653ANI     CH23131   1.449   5.928   3.835 -0.4801 -0.3010 -0.6448
 1653ANI     CH23132   1.580   5.902   3.879 -0.6651  0.2489  0.2511
 1653ANI     CH23133   1.630   5.978   3.985  0.3591 -0.2718  0.1388
 1653ANI     CH23134   1.556   6.080   4.046  0.0263 -0.5943  0.2757
 1653ANI     NH23135   1.357   6.206   4.058  0.4201  0.3958  0.2879
 1653ANI     HC23136   1.266   6.027   3.881  0.3608  1.1805  1.4969
 1653ANI     HC23137   1.402   5.861   3.764 -2.6917  1.4495 -0.8915
 1653ANI     HC23138   1.639   5.835   3.819  0.1753  1.4865 -0.3247
 1653ANI     HC23139   1.728   5.953   4.024  0.2718 -0.7596  0.0551
 1653ANI     HC23140   1.608   6.138   4.121 -0.9780  0.8813 -0.1741
 1653ANI     HN23141   1.416   6.283   4.086 -0.1478  1.5053 -1.4827
 1653ANI     HN23142   1.273   6.244   4.018  0.4328  0.2911  0.1614
 1654ANI     CN23143   4.943   5.479   5.580  0.1418  0.3325  0.0701
 1654ANI     CH23144   4.824   5.406   5.590  0.0023  0.6372  0.6353
 1654ANI     CH23145   4.821   5.266   5.590  0.1682  0.6252 -0.7351
 1654ANI     CH23146   4.945   5.201   5.585 -0.2076 -0.1033 -0.7028
 1654ANI     CH23147   5.067   5.270   5.576 -0.1131 -0.1305  0.2397
 1654ANI     CH23148   5.065   5.410   5.574 -0.1101 -0.1312  0.2503
 1654ANI     NH23149   4.944   5.612   5.584  0.0048  0.3294  0.2066
 1654ANI     HC23150   4.735   5.467   5.589 -0.2877  0.2161 -0.9781
 1654ANI     HC23151   4.725   5.217   5.594 -0.0391  1.0650 -0.2249
 1654ANI     HC23152   4.953   5.093   5.585  0.8893 -0.0582 -3.2018
 1654ANI     HC23153   5.151   5.204   5.561  0.8775  1.6111 -2.1367
 1654ANI     HC23154   5.157   5.467   5.570 -1.3159  1.7861 -0.6502
 1654ANI     HN23155   4.864   5.665   5.613  0.5793 -0.0077  2.5114
 1654ANI     HN23156   5.029   5.649   5.625 -0.8192  2.1381  0.3493
   6.27452   6.27452   6.27452
