Generated by trjconv : ethanol t= 1020.00000
 4181
    1EOH      O    1   4.487   3.265   3.393
    1EOH      C    2   4.389   3.157   3.389
    1EOH      C    3   4.376   3.069   3.517
    1EOH      H    4   4.458   3.330   3.324
    1EOH      H    5   4.285   3.182   3.376
    1EOH      H    6   4.409   3.098   3.298
    1EOH      H    7   4.449   2.987   3.502
    1EOH      H    8   4.374   3.117   3.619
    1EOH      H    9   4.279   3.026   3.495
    2EOH      O   10   3.831   0.998   4.059
    2EOH      C   11   3.844   1.113   4.142
    2EOH      C   12   3.964   1.187   4.081
    2EOH      H   13   3.804   0.922   4.108
    3EOH      O   14   2.026   2.250   1.618
    3EOH      C   15   1.956   2.139   1.674
    3EOH      C   16   2.008   2.088   1.810
    3EOH      H   17   2.110   2.250   1.662
    4EOH      O   18   0.253   3.915   0.993
    4EOH      C   19   0.173   3.950   1.106
    4EOH      C   20   0.248   4.047   1.200
    4EOH      H   21   0.212   3.844   0.945
    5EOH      O   22   1.554   4.084   2.466
    5EOH      C   23   1.627   3.962   2.483
    5EOH      C   24   1.774   3.980   2.526
    5EOH      H   25   1.553   4.101   2.373
    6EOH      O   26   2.141   3.559   1.802
    6EOH      C   27   2.276   3.526   1.836
    6EOH      C   28   2.372   3.641   1.800
    6EOH      H   29   2.093   3.481   1.779
    7EOH      O   30   3.164   0.201   2.090
    7EOH      C   31   3.095   0.302   2.017
    7EOH      C   32   3.014   0.238   1.902
    7EOH      H   33   3.116   0.120   2.088
    8EOH      O   34   4.284   4.200   1.827
    8EOH      C   35   4.177   4.108   1.803
    8EOH      C   36   4.233   3.970   1.842
    8EOH      H   37   4.265   4.263   1.895
    9EOH      O   38   3.867   4.429   3.474
    9EOH      C   39   4.000   4.471   3.509
    9EOH      C   40   4.021   4.487   3.661
    9EOH      H   41   3.852   4.345   3.515
   10EOH      O   42   1.470   0.744   4.550
   10EOH      C   43   1.394   0.764   4.431
   10EOH      C   44   1.411   0.906   4.374
   10EOH      H   45   1.459   0.656   4.582
   11EOH      O   46   2.478   3.820   0.383
   11EOH      C   47   2.576   3.729   0.333
   11EOH      C   48   2.673   3.707   0.451
   11EOH      H   49   2.392   3.782   0.368
   12EOH      O   50   0.994   0.642   2.230
   12EOH      C   51   1.096   0.563   2.168
   12EOH      C   52   1.202   0.640   2.087
   12EOH      H   53   0.937   0.579   2.270
   13EOH      O   54   2.226   3.610   2.780
   13EOH      C   55   2.266   3.499   2.699
   13EOH      C   56   2.275   3.370   2.782
   13EOH      H   57   2.133   3.597   2.786
   14EOH      O   58   0.576   3.166   3.254
   14EOH      C   59   0.646   3.230   3.361
   14EOH      C   60   0.549   3.253   3.477
   14EOH      H   61   0.616   3.193   3.173
   15EOH      O   62   3.680   2.425   1.915
   15EOH      C   63   3.712   2.545   1.845
   15EOH      C   64   3.853   2.599   1.876
   15EOH      H   65   3.652   2.442   2.003
   16EOH      O   66   0.464   1.812   2.210
   16EOH      C   67   0.368   1.713   2.248
   16EOH      C   68   0.431   1.626   2.359
   16EOH      H   69   0.464   1.864   2.289
   17EOH      O   70   2.202   4.642   1.842
   17EOH      C   71   2.092   0.016   1.900
   17EOH      C   72   2.066   0.145   1.820
   17EOH      H   73   2.170   4.604   1.762
   18EOH      O   74   3.666   1.667   0.120
   18EOH      C   75   3.798   1.618   0.096
   18EOH      C   76   3.860   1.707   4.684
   18EOH      H   77   3.601   1.598   0.116
   19EOH      O   78   4.680   0.690   1.059
   19EOH      C   79   0.059   0.794   1.119
   19EOH      C   80   0.009   0.836   1.258
   19EOH      H   81   0.006   0.695   0.967
   20EOH      O   82   0.936   2.095   0.339
   20EOH      C   83   0.921   1.955   0.361
   20EOH      C   84   0.972   1.934   0.505
   20EOH      H   85   0.979   2.113   0.257
   21EOH      O   86   1.324   1.671   4.130
   21EOH      C   87   1.328   1.802   4.072
   21EOH      C   88   1.189   1.870   4.070
   21EOH      H   89   1.249   1.619   4.106
   22EOH      O   90   1.043   3.476   3.356
   22EOH      C   91   0.932   3.492   3.267
   22EOH      C   92   0.943   3.635   3.210
   22EOH      H   93   1.052   3.387   3.387
   23EOH      O   94   3.737   0.744   0.533
   23EOH      C   95   3.665   0.634   0.589
   23EOH      C   96   3.523   0.650   0.533
   23EOH      H   97   3.816   0.733   0.583
   24EOH      O   98   1.289   3.223   1.115
   24EOH      C   99   1.293   3.332   1.022
   24EOH      C  100   1.318   3.466   1.092
   24EOH      H  101   1.228   3.162   1.077
   25EOH      O  102   1.428   4.098   2.004
   25EOH      C  103   1.305   4.171   1.992
   25EOH      C  104   1.190   4.110   2.076
   25EOH      H  105   1.456   4.067   1.920
   26EOH      O  106   0.536   1.019   1.456
   26EOH      C  107   0.678   1.035   1.445
   26EOH      C  108   0.738   0.989   1.311
   26EOH      H  109   0.518   1.016   1.548
   27EOH      O  110   2.975   2.461   2.638
   27EOH      C  111   3.079   2.529   2.566
   27EOH      C  112   3.031   2.533   2.420
   27EOH      H  113   2.967   2.507   2.720
   28EOH      O  114   3.194   2.303   1.463
   28EOH      C  115   3.250   2.371   1.351
   28EOH      C  116   3.233   2.522   1.373
   28EOH      H  117   3.236   2.350   1.533
   29EOH      O  118   1.508   2.278   0.907
   29EOH      C  119   1.549   2.176   0.999
   29EOH      C  120   1.535   2.205   1.149
   29EOH      H  121   1.517   2.242   0.820
   30EOH      O  122   3.613   1.123   3.078
   30EOH      C  123   3.537   1.019   3.140
   30EOH      C  124   3.645   0.930   3.203
   30EOH      H  125   3.557   1.169   3.017
   31EOH      O  126   2.234   0.010   0.524
   31EOH      C  127   2.183   0.099   0.424
   31EOH      C  128   2.206   0.246   0.460
   31EOH      H  129   2.281   4.637   0.484
   32EOH      O  130   0.038   3.127   0.928
   32EOH      C  131   0.059   3.064   1.055
   32EOH      C  132   4.667   3.146   1.150
   32EOH      H  133   4.644   3.140   0.911
   33EOH      O  134   2.729   0.553   2.291
   33EOH      C  135   2.786   0.473   2.187
   33EOH      C  136   2.678   0.428   2.086
   33EOH      H  137   2.667   0.607   2.244
   34EOH      O  138   4.272   1.366   0.918
   34EOH      C  139   4.401   1.350   0.858
   34EOH      C  140   4.393   1.254   0.738
   34EOH      H  141   4.272   1.437   0.981
   35EOH      O  142   0.194   0.755   2.039
   35EOH      C  143   0.188   0.800   2.174
   35EOH      C  144   0.047   0.850   2.207
   35EOH      H  145   0.181   0.824   1.975
   36EOH      O  146   1.619   1.552   4.651
   36EOH      C  147   1.706   1.450   0.001
   36EOH      C  148   1.846   1.509   0.023
   36EOH      H  149   1.563   1.500   4.595
   37EOH      O  150   2.741   4.582   2.856
   37EOH      C  151   2.658   4.475   2.810
   37EOH      C  152   2.581   4.413   2.929
   37EOH      H  153   2.819   4.582   2.801
   38EOH      O  154   2.619   2.908   3.058
   38EOH      C  155   2.713   2.948   3.157
   38EOH      C  156   2.706   2.849   3.275
   38EOH      H  157   2.568   2.985   3.035
   39EOH      O  158   2.884   2.581   2.841
   39EOH      C  159   2.852   2.721   2.838
   39EOH      C  160   2.950   2.805   2.753
   39EOH      H  161   2.846   2.551   2.923
   40EOH      O  162   1.478   2.539   2.404
   40EOH      C  163   1.376   2.531   2.504
   40EOH      C  164   1.242   2.564   2.436
   40EOH      H  165   1.520   2.455   2.404
   41EOH      O  166   0.960   0.472   1.696
   41EOH      C  167   1.100   0.462   1.725
   41EOH      C  168   1.118   0.350   1.830
   41EOH      H  169   0.956   0.536   1.627
   42EOH      O  170   1.290   1.449   1.035
   42EOH      C  171   1.179   1.535   1.005
   42EOH      C  172   1.222   1.681   1.029
   42EOH      H  173   1.262   1.367   0.998
   43EOH      O  174   1.622   2.741   3.319
   43EOH      C  175   1.757   2.708   3.351
   43EOH      C  176   1.838   2.691   3.220
   43EOH      H  177   1.618   2.751   3.225
   44EOH      O  178   2.529   1.236   1.178
   44EOH      C  179   2.615   1.269   1.069
   44EOH      C  180   2.649   1.134   1.002
   44EOH      H  181   2.510   1.320   1.217
   45EOH      O  182   1.573   2.893   0.324
   45EOH      C  183   1.544   2.840   0.454
   45EOH      C  184   1.670   2.763   0.495
   45EOH      H  185   1.487   2.903   0.286
   46EOH      O  186   4.616   0.742   1.813
   46EOH      C  187   4.491   0.725   1.745
   46EOH      C  188   4.380   0.650   1.822
   46EOH      H  189   4.631   0.659   1.857
   47EOH      O  190   3.627   2.489   2.156
   47EOH      C  191   3.510   2.419   2.199
   47EOH      C  192   3.541   2.269   2.191
   47EOH      H  193   3.697   2.478   2.219
   48EOH      O  194   2.433   0.035   1.931
   48EOH      C  195   2.510   0.075   1.817
   48EOH      C  196   2.663   0.065   1.838
   48EOH      H  197   2.356   4.693   1.893
   49EOH      O  198   0.370   1.302   0.829
   49EOH      C  199   0.257   1.389   0.838
   49EOH      C  200   0.218   1.425   0.983
   49EOH      H  201   0.346   1.211   0.825
   50EOH      O  202   2.510   3.484   4.577
   50EOH      C  203   2.381   3.540   4.605
   50EOH      C  204   2.337   3.485   0.044
   50EOH      H  205   2.579   3.547   4.570
   51EOH      O  206   0.947   0.624   1.497
   51EOH      C  207   0.949   0.581   1.360
   51EOH      C  208   0.802   0.602   1.318
   51EOH      H  209   0.999   0.700   1.515
   52EOH      O  210   3.627   1.058   3.894
   52EOH      C  211   3.659   1.007   3.764
   52EOH      C  212   3.786   1.072   3.706
   52EOH      H  213   3.698   1.030   3.950
   53EOH      O  214   1.504   3.124   4.263
   53EOH      C  215   1.541   2.999   4.320
   53EOH      C  216   1.693   2.977   4.310
   53EOH      H  217   1.521   3.121   4.170
   54EOH      O  218   2.429   4.300   1.383
   54EOH      C  219   2.518   4.345   1.485
   54EOH      C  220   2.564   4.218   1.560
   54EOH      H  221   2.474   4.274   1.304
   55EOH      O  222   0.584   2.046   2.394
   55EOH      C  223   0.665   2.123   2.304
   55EOH      C  224   0.693   2.044   2.175
   55EOH      H  225   0.630   2.015   2.471
   56EOH      O  226   0.547   4.151   4.382
   56EOH      C  227   0.523   4.249   4.282
   56EOH      C  228   0.636   4.353   4.274
   56EOH      H  229   0.507   4.192   4.457
   57EOH      O  230   4.255   0.150   3.039
   57EOH      C  231   4.260   0.290   3.012
   57EOH      C  232   4.264   0.333   2.865
   57EOH      H  233   4.213   0.104   2.968
   58EOH      O  234   2.950   3.210   0.096
   58EOH      C  235   2.902   3.344   0.088
   58EOH      C  236   2.760   3.373   0.036
   58EOH      H  237   3.044   3.219   0.105
   59EOH      O  238   4.586   2.988   2.720
   59EOH      C  239   4.603   3.101   2.806
   59EOH      C  240   4.534   3.223   2.744
   59EOH      H  241   4.498   2.954   2.730
   60EOH      O  242   4.452   0.954   2.812
   60EOH      C  243   4.467   0.929   2.952
   60EOH      C  244   4.430   1.060   3.025
   60EOH      H  245   4.444   0.873   2.765
   61EOH      O  246   2.517   0.085   2.376
   61EOH      C  247   2.621   0.171   2.424
   61EOH      C  248   2.760   0.126   2.376
   61EOH      H  249   2.485   0.124   2.296
   62EOH      O  250   3.766   4.035   2.725
   62EOH      C  251   3.870   3.937   2.724
   62EOH      C  252   4.004   3.972   2.656
   62EOH      H  253   3.808   4.118   2.738
   63EOH      O  254   2.075   1.615   3.143
   63EOH      C  255   2.119   1.503   3.066
   63EOH      C  256   2.257   1.455   3.115
   63EOH      H  257   2.058   1.585   3.231
   64EOH      O  258   3.819   3.305   3.878
   64EOH      C  259   3.887   3.250   3.990
   64EOH      C  260   3.946   3.113   3.952
   64EOH      H  261   3.875   3.317   3.803
   65EOH      O  262   1.380   2.231   3.232
   65EOH      C  263   1.438   2.311   3.336
   65EOH      C  264   1.590   2.328   3.313
   65EOH      H  265   1.288   2.249   3.221
   66EOH      O  266   1.875   0.136   3.077
   66EOH      C  267   2.007   0.157   3.126
   66EOH      C  268   2.075   0.273   3.052
   66EOH      H  269   1.859   0.044   3.063
   67EOH      O  270   0.072   2.417   0.541
   67EOH      C  271   0.068   2.520   0.441
   67EOH      C  272   0.113   2.436   0.320
   67EOH      H  273   0.015   2.442   0.612
   68EOH      O  274   1.606   0.335   0.293
   68EOH      C  275   1.737   0.333   0.236
   68EOH      C  276   1.844   0.241   0.298
   68EOH      H  277   1.597   0.268   0.360
   69EOH      O  278   2.291   2.274   1.739
   69EOH      C  279   2.413   2.215   1.693
   69EOH      C  280   2.492   2.144   1.804
   69EOH      H  281   2.293   2.319   1.822
   70EOH      O  282   3.034   1.844   4.527
   70EOH      C  283   2.912   1.781   4.488
   70EOH      C  284   2.903   1.759   4.336
   70EOH      H  285   3.014   1.875   4.614
   71EOH      O  286   0.337   2.968   4.225
   71EOH      C  287   0.200   2.929   4.226
   71EOH      C  288   0.132   3.029   4.322
   71EOH      H  289   0.374   2.996   4.307
   72EOH      O  290   0.161   0.661   2.755
   72EOH      C  291   0.181   0.781   2.679
   72EOH      C  292   0.066   0.787   2.576
   72EOH      H  293   0.247   0.622   2.750
   73EOH      O  294   1.280   1.199   2.966
   73EOH      C  295   1.216   1.083   2.912
   73EOH      C  296   1.248   0.966   3.007
   73EOH      H  297   1.225   1.272   2.940
   74EOH      O  298   1.688   0.514   1.590
   74EOH      C  299   1.818   0.472   1.633
   74EOH      C  300   1.948   0.513   1.560
   74EOH      H  301   1.696   0.583   1.526
   75EOH      O  302   0.673   1.928   2.595
   75EOH      C  303   0.593   1.841   2.675
   75EOH      C  304   0.644   1.698   2.649
   75EOH      H  305   0.764   1.903   2.601
   76EOH      O  306   1.716   0.945   1.442
   76EOH      C  307   1.805   1.046   1.392
   76EOH      C  308   1.890   0.993   1.275
   76EOH      H  309   1.732   0.951   1.535
   77EOH      O  310   1.659   1.849   2.272
   77EOH      C  311   1.603   1.748   2.355
   77EOH      C  312   1.494   1.685   2.266
   77EOH      H  313   1.739   1.888   2.306
   78EOH      O  314   1.287   1.862   0.023
   78EOH      C  315   1.191   1.817   4.624
   78EOH      C  316   1.228   1.872   4.485
   78EOH      H  317   1.375   1.840   4.695
   79EOH      O  318   3.161   1.193   1.303
   79EOH      C  319   3.048   1.235   1.227
   79EOH      C  320   2.935   1.272   1.325
   79EOH      H  321   3.236   1.201   1.247
   80EOH      O  322   0.674   2.817   3.418
   80EOH      C  323   0.698   2.860   3.552
   80EOH      C  324   0.850   2.875   3.574
   80EOH      H  325   0.582   2.831   3.400
   81EOH      O  326   1.758   1.173   2.373
   81EOH      C  327   1.680   1.216   2.262
   81EOH      C  328   1.771   1.275   2.152
   81EOH      H  329   1.690   1.134   2.426
   82EOH      O  330   1.819   2.136   4.371
   82EOH      C  331   1.935   2.075   4.314
   82EOH      C  332   2.055   2.082   4.409
   82EOH      H  333   1.837   2.226   4.389
   83EOH      O  334   0.471   1.079   1.710
   83EOH      C  335   0.500   1.037   1.843
   83EOH      C  336   0.596   0.919   1.868
   83EOH      H  337   0.543   1.138   1.692
   84EOH      O  338   2.575   1.525   0.334
   84EOH      C  339   2.613   1.406   0.264
   84EOH      C  340   2.492   1.348   0.189
   84EOH      H  341   2.594   1.510   0.425
   85EOH      O  342   1.939   3.379   3.664
   85EOH      C  343   1.958   3.466   3.553
   85EOH      C  344   2.006   3.601   3.608
   85EOH      H  345   2.023   3.341   3.684
   86EOH      O  346   2.092   4.045   0.756
   86EOH      C  347   2.109   3.927   0.676
   86EOH      C  348   2.156   3.986   0.542
   86EOH      H  349   2.162   4.048   0.819
   87EOH      O  350   1.048   2.565   3.245
   87EOH      C  351   1.154   2.654   3.280
   87EOH      C  352   1.269   2.638   3.179
   87EOH      H  353   0.965   2.605   3.266
   88EOH      O  354   0.834   0.471   1.921
   88EOH      C  355   0.733   0.572   1.914
   88EOH      C  356   0.604   0.537   1.837
   88EOH      H  357   0.903   0.494   1.862
   89EOH      O  358   1.789   0.066   3.757
   89EOH      C  359   1.918   0.108   3.713
   89EOH      C  360   2.014   0.147   3.827
   89EOH      H  361   1.801   4.682   3.803
   90EOH      O  362   2.444   3.863   0.838
   90EOH      C  363   2.433   3.721   0.843
   90EOH      C  364   2.325   3.668   0.938
   90EOH      H  365   2.472   3.887   0.751
   91EOH      O  366   3.012   2.026   3.851
   91EOH      C  367   2.971   1.893   3.880
   91EOH      C  368   2.975   1.880   4.034
   91EOH      H  369   3.106   2.037   3.849
   92EOH      O  370   0.447   3.887   3.407
   92EOH      C  371   0.552   3.880   3.311
   92EOH      C  372   0.635   3.752   3.338
   92EOH      H  373   0.459   3.965   3.460
   93EOH      O  374   3.111   4.655   2.042
   93EOH      C  375   3.070   4.564   2.145
   93EOH      C  376   2.921   4.591   2.170
   93EOH      H  377   3.070   4.634   1.960
   94EOH      O  378   3.546   2.026   2.689
   94EOH      C  379   3.624   2.003   2.571
   94EOH      C  380   3.748   1.927   2.622
   94EOH      H  381   3.454   2.022   2.665
   95EOH      O  382   2.862   4.615   0.873
   95EOH      C  383   2.821   4.538   0.760
   95EOH      C  384   2.923   4.422   0.753
   95EOH      H  385   2.794   4.680   0.888
   96EOH      O  386   2.095   3.214   0.441
   96EOH      C  387   2.144   3.283   0.326
   96EOH      C  388   2.207   3.166   0.247
   96EOH      H  389   2.063   3.282   0.499
   97EOH      O  390   3.395   2.388   0.998
   97EOH      C  391   3.419   2.528   0.986
   97EOH      C  392   3.543   2.578   1.063
   97EOH      H  393   3.313   2.362   0.959
   98EOH      O  394   0.006   2.342   2.269
   98EOH      C  395   4.692   2.482   2.246
   98EOH      C  396   4.544   2.521   2.230
   98EOH      H  397   0.094   2.310   2.261
   99EOH      O  398   4.139   1.207   0.121
   99EOH      C  399   4.063   1.178   0.239
   99EOH      C  400   3.958   1.289   0.257
   99EOH      H  401   4.088   1.187   0.044
  100EOH      O  402   1.892   4.009   1.124
  100EOH      C  403   1.911   3.903   1.031
  100EOH      C  404   1.968   3.781   1.106
  100EOH      H  405   1.864   4.080   1.070
  101EOH      O  406   2.072   2.025   2.936
  101EOH      C  407   2.070   2.159   2.986
  101EOH      C  408   2.060   2.252   2.864
  101EOH      H  409   2.119   1.974   3.001
  102EOH      O  410   4.300   4.457   3.940
  102EOH      C  411   4.235   4.422   4.062
  102EOH      C  412   4.351   4.389   4.157
  102EOH      H  413   4.254   4.529   3.899
  103EOH      O  414   2.116   1.347   0.535
  103EOH      C  415   2.241   1.334   0.466
  103EOH      C  416   2.312   1.213   0.530
  103EOH      H  417   2.080   1.260   0.540
  104EOH      O  418   3.631   4.601   3.034
  104EOH      C  419   3.719   0.004   2.983
  104EOH      C  420   3.789   0.084   3.094
  104EOH      H  421   3.589   4.624   3.116
  105EOH      O  422   2.571   1.780   0.906
  105EOH      C  423   2.500   1.713   1.010
  105EOH      C  424   2.422   1.823   1.083
  105EOH      H  425   2.632   1.839   0.948
  106EOH      O  426   1.905   1.546   0.529
  106EOH      C  427   1.824   1.503   0.639
  106EOH      C  428   1.731   1.390   0.591
  106EOH      H  429   1.957   1.468   0.520
  107EOH      O  430   3.529   3.882   2.476
  107EOH      C  431   3.530   3.741   2.452
  107EOH      C  432   3.676   3.695   2.452
  107EOH      H  433   3.543   3.900   2.568
  108EOH      O  434   2.744   3.864   4.655
  108EOH      C  435   2.671   3.984   4.680
  108EOH      C  436   2.534   4.002   4.613
  108EOH      H  437   2.828   3.875   4.697
  109EOH      O  438   0.164   3.309   0.794
  109EOH      C  439   0.292   3.314   0.731
  109EOH      C  440   0.315   3.448   0.660
  109EOH      H  441   0.147   3.223   0.828
  110EOH      O  442   1.710   3.344   1.356
  110EOH      C  443   1.730   3.300   1.221
  110EOH      C  444   1.717   3.408   1.112
  110EOH      H  445   1.622   3.324   1.384
  111EOH      O  446   3.360   1.211   1.159
  111EOH      C  447   3.479   1.137   1.131
  111EOH      C  448   3.574   1.136   1.252
  111EOH      H  449   3.392   1.298   1.176
  112EOH      O  450   2.814   1.206   2.599
  112EOH      C  451   2.935   1.139   2.634
  112EOH      C  452   2.909   1.046   2.754
  112EOH      H  453   2.817   1.226   2.507
  113EOH      O  454   0.090   0.671   0.801
  113EOH      C  455   0.057   0.765   0.699
  113EOH      C  456   0.001   0.892   0.766
  113EOH      H  457   0.124   0.588   0.770
  114EOH      O  458   0.361   3.032   3.213
  114EOH      C  459   0.249   3.122   3.213
  114EOH      C  460   0.137   3.042   3.146
  114EOH      H  461   0.445   3.074   3.224
  115EOH      O  462   3.512   0.633   3.640
  115EOH      C  463   3.566   0.625   3.772
  115EOH      C  464   3.711   0.573   3.764
  115EOH      H  465   3.423   0.663   3.648
  116EOH      O  466   1.370   2.884   1.859
  116EOH      C  467   1.376   3.014   1.918
  116EOH      C  468   1.514   3.073   1.886
  116EOH      H  469   1.386   2.818   1.925
  117EOH      O  470   3.585   2.212   4.105
  117EOH      C  471   3.658   2.333   4.083
  117EOH      C  472   3.581   2.409   3.974
  117EOH      H  473   3.552   2.217   4.193
  118EOH      O  474   2.299   2.413   1.944
  118EOH      C  475   2.312   2.355   2.074
  118EOH      C  476   2.418   2.443   2.142
  118EOH      H  477   2.275   2.504   1.959
  119EOH      O  478   1.342   4.256   4.694
  119EOH      C  479   1.327   4.166   4.584
  119EOH      C  480   1.220   4.057   4.604
  119EOH      H  481   1.404   4.320   4.666
  120EOH      O  482   0.917   1.673   2.337
  120EOH      C  483   0.915   1.532   2.363
  120EOH      C  484   1.046   1.465   2.318
  120EOH      H  485   0.846   1.695   2.278
  121EOH      O  486   0.570   1.651   0.236
  121EOH      C  487   0.630   1.598   0.355
  121EOH      C  488   0.533   1.537   0.457
  121EOH      H  489   0.636   1.673   0.172
  122EOH      O  490   3.936   2.320   0.072
  122EOH      C  491   3.886   2.187   0.093
  122EOH      C  492   4.000   2.103   0.155
  122EOH      H  493   3.867   2.368   0.028
  123EOH      O  494   0.372   1.511   1.762
  123EOH      C  495   0.375   1.653   1.771
  123EOH      C  496   0.233   1.695   1.815
  123EOH      H  497   0.376   1.482   1.671
  124EOH      O  498   4.506   1.916   0.913
  124EOH      C  499   4.511   1.861   0.781
  124EOH      C  500   4.524   1.709   0.800
  124EOH      H  501   4.582   1.960   0.948
  125EOH      O  502   3.609   0.433   1.051
  125EOH      C  503   3.558   0.408   0.920
  125EOH      C  504   3.685   0.364   0.845
  125EOH      H  505   3.557   0.498   1.095
  126EOH      O  506   0.767   2.603   2.350
  126EOH      C  507   0.880   2.521   2.317
  126EOH      C  508   0.878   2.401   2.414
  126EOH      H  509   0.800   2.691   2.362
  127EOH      O  510   3.202   4.404   2.824
  127EOH      C  511   3.326   4.472   2.847
  127EOH      C  512   3.370   4.532   2.712
  127EOH      H  513   3.228   4.316   2.801
  128EOH      O  514   1.257   0.930   0.171
  128EOH      C  515   1.220   1.003   0.054
  128EOH      C  516   1.066   1.002   0.050
  128EOH      H  517   1.346   0.960   0.183
  129EOH      O  518   2.657   0.096   0.946
  129EOH      C  519   2.668   0.209   0.859
  129EOH      C  520   2.581   0.177   0.736
  129EOH      H  521   2.571   0.082   0.981
  130EOH      O  522   3.240   0.209   1.100
  130EOH      C  523   3.283   0.301   1.201
  130EOH      C  524   3.216   0.437   1.178
  130EOH      H  525   3.238   0.123   1.138
  131EOH      O  526   4.397   2.976   1.908
  131EOH      C  527   4.482   2.966   2.023
  131EOH      C  528   4.395   2.907   2.135
  131EOH      H  529   4.447   3.026   1.845
  132EOH      O  530   1.304   1.231   0.938
  132EOH      C  531   1.255   1.234   0.803
  132EOH      C  532   1.373   1.230   0.704
  132EOH      H  533   1.374   1.168   0.943
  133EOH      O  534   2.215   1.732   4.137
  133EOH      C  535   2.141   1.686   4.251
  133EOH      C  536   2.193   1.561   4.322
  133EOH      H  537   2.154   1.731   4.064
  134EOH      O  538   0.905   4.282   2.162
  134EOH      C  539   0.910   4.336   2.030
  134EOH      C  540   0.789   4.428   2.008
  134EOH      H  541   0.866   4.195   2.155
  135EOH      O  542   4.408   4.232   0.250
  135EOH      C  543   4.282   4.217   0.185
  135EOH      C  544   4.307   4.207   0.033
  135EOH      H  545   4.406   4.214   0.343
  136EOH      O  546   3.417   1.461   1.189
  136EOH      C  547   3.395   1.547   1.301
  136EOH      C  548   3.509   1.508   1.398
  136EOH      H  549   3.501   1.482   1.151
  137EOH      O  550   4.246   0.721   1.261
  137EOH      C  551   4.214   0.778   1.388
  137EOH      C  552   4.124   0.685   1.472
  137EOH      H  553   4.280   0.793   1.210
  138EOH      O  554   2.729   1.949   0.993
  138EOH      C  555   2.762   2.071   0.926
  138EOH      C  556   2.650   2.175   0.945
  138EOH      H  557   2.809   1.900   1.003
  139EOH      O  558   0.133   1.362   1.910
  139EOH      C  559   0.139   1.382   2.051
  139EOH      C  560   0.061   1.275   2.130
  139EOH      H  561   0.205   1.404   1.865
  140EOH      O  562   4.371   2.829   2.714
  140EOH      C  563   4.323   2.774   2.591
  140EOH      C  564   4.180   2.826   2.565
  140EOH      H  565   4.327   2.788   2.786
  141EOH      O  566   2.977   3.696   3.247
  141EOH      C  567   2.950   3.672   3.108
  141EOH      C  568   2.905   3.799   3.035
  141EOH      H  569   3.039   3.766   3.257
  142EOH      O  570   1.562   2.765   2.358
  142EOH      C  571   1.642   2.816   2.465
  142EOH      C  572   1.554   2.920   2.537
  142EOH      H  573   1.531   2.680   2.387
  143EOH      O  574   0.302   1.061   0.801
  143EOH      C  575   0.371   0.943   0.845
  143EOH      C  576   0.523   0.967   0.835
  143EOH      H  577   0.295   1.054   0.707
  144EOH      O  578   3.498   1.454   0.178
  144EOH      C  579   3.504   1.311   0.186
  144EOH      C  580   3.475   1.262   0.043
  144EOH      H  581   3.478   1.479   0.266
  145EOH      O  582   2.497   3.137   0.831
  145EOH      C  583   2.443   3.264   0.870
  145EOH      C  584   2.385   3.226   1.007
  145EOH      H  585   2.528   3.153   0.743
  146EOH      O  586   3.623   4.636   2.313
  146EOH      C  587   3.625   0.042   2.411
  146EOH      C  588   3.690   4.692   2.542
  146EOH      H  589   3.631   4.685   2.233
  147EOH      O  590   0.257   0.162   1.865
  147EOH      C  591   0.381   0.225   1.830
  147EOH      C  592   0.495   0.200   1.930
  147EOH      H  593   0.198   0.177   1.793
  148EOH      O  594   1.132   2.318   3.227
  148EOH      C  595   1.064   2.220   3.306
  148EOH      C  596   0.914   2.227   3.271
  148EOH      H  597   1.085   2.399   3.238
  149EOH      O  598   0.591   4.087   3.564
  149EOH      C  599   0.665   4.035   3.675
  149EOH      C  600   0.610   3.897   3.716
  149EOH      H  601   0.635   4.168   3.544
  150EOH      O  602   3.556   3.332   0.468
  150EOH      C  603   3.566   3.190   0.457
  150EOH      C  604   3.699   3.175   0.381
  150EOH      H  605   3.479   3.360   0.516
  151EOH      O  606   3.504   2.535   2.846
  151EOH      C  607   3.540   2.539   2.707
  151EOH      C  608   3.604   2.405   2.669
  151EOH      H  609   3.459   2.452   2.847
  152EOH      O  610   3.016   1.976   0.094
  152EOH      C  611   2.987   2.104   0.150
  152EOH      C  612   2.990   2.210   0.038
  152EOH      H  613   3.013   1.914   0.165
  153EOH      O  614   1.998   4.074   3.138
  153EOH      C  615   2.010   4.026   3.004
  153EOH      C  616   1.976   4.142   2.908
  153EOH      H  617   1.916   4.038   3.169
  154EOH      O  618   2.398   4.387   0.235
  154EOH      C  619   2.491   4.314   0.154
  154EOH      C  620   2.635   4.361   0.177
  154EOH      H  621   2.311   4.351   0.227
  155EOH      O  622   2.378   3.465   4.164
  155EOH      C  623   2.279   3.482   4.266
  155EOH      C  624   2.155   3.394   4.245
  155EOH      H  625   2.435   3.394   4.188
  156EOH      O  626   0.494   0.453   0.040
  156EOH      C  627   0.457   0.521   0.160
  156EOH      C  628   0.304   0.538   0.165
  156EOH      H  629   0.527   0.369   0.066
  157EOH      O  630   4.570   1.974   3.114
  157EOH      C  631   4.462   1.898   3.167
  157EOH      C  632   4.524   1.757   3.169
  157EOH      H  633   4.551   2.066   3.105
  158EOH      O  634   0.598   0.146   0.212
  158EOH      C  635   0.558   0.020   0.159
  158EOH      C  636   0.562   0.027   0.005
  158EOH      H  637   0.688   0.159   0.188
  159EOH      O  638   1.871   4.165   0.729
  159EOH      C  639   1.845   4.189   0.590
  159EOH      C  640   1.725   4.284   0.575
  159EOH      H  641   1.954   4.122   0.733
  160EOH      O  642   4.106   1.796   0.508
  160EOH      C  643   3.983   1.732   0.474
  160EOH      C  644   3.896   1.841   0.408
  160EOH      H  645   4.135   1.789   0.598
  161EOH      O  646   1.689   3.628   1.960
  161EOH      C  647   1.668   3.515   1.874
  161EOH      C  648   1.728   3.393   1.946
  161EOH      H  649   1.778   3.653   1.942
  162EOH      O  650   0.175   1.190   2.882
  162EOH      C  651   0.153   1.075   2.964
  162EOH      C  652   0.277   1.055   3.054
  162EOH      H  653   0.212   1.150   2.805
  163EOH      O  654   0.053   3.517   0.846
  163EOH      C  655   4.679   3.498   0.968
  163EOH      C  656   4.578   3.611   0.995
  163EOH      H  657   0.100   3.437   0.829
  164EOH      O  658   3.005   1.718   1.696
  164EOH      C  659   3.105   1.648   1.621
  164EOH      C  660   3.088   1.498   1.654
  164EOH      H  661   2.995   1.795   1.643
  165EOH      O  662   4.442   3.449   3.219
  165EOH      C  663   4.530   3.423   3.109
  165EOH      C  664   4.672   3.421   3.166
  165EOH      H  665   4.390   3.526   3.200
  166EOH      O  666   0.807   0.322   2.121
  166EOH      C  667   0.821   0.188   2.074
  166EOH      C  668   0.768   0.107   2.194
  166EOH      H  669   0.830   0.384   2.053
  167EOH      O  670   0.316   2.331   3.923
  167EOH      C  671   0.294   2.456   3.990
  167EOH      C  672   0.425   2.529   4.023
  167EOH      H  673   0.298   2.262   3.984
  168EOH      O  674   3.409   2.016   0.836
  168EOH      C  675   3.446   1.879   0.855
  168EOH      C  676   3.421   1.826   0.998
  168EOH      H  677   3.476   2.073   0.870
  169EOH      O  678   2.429   4.519   2.377
  169EOH      C  679   2.377   4.522   2.243
  169EOH      C  680   2.482   4.477   2.140
  169EOH      H  681   2.457   4.608   2.394
  170EOH      O  682   1.106   1.250   4.005
  170EOH      C  683   1.169   1.147   4.082
  170EOH      C  684   1.294   1.130   3.994
  170EOH      H  685   1.080   1.213   3.922
  171EOH      O  686   2.373   2.453   0.496
  171EOH      C  687   2.322   2.337   0.561
  171EOH      C  688   2.283   2.376   0.705
  171EOH      H  689   2.453   2.425   0.454
  172EOH      O  690   4.535   4.065   2.883
  172EOH      C  691   4.440   4.071   2.990
  172EOH      C  692   4.299   4.089   2.931
  172EOH      H  693   4.523   4.145   2.835
  173EOH      O  694   2.107   1.466   0.780
  173EOH      C  695   2.196   1.570   0.821
  173EOH      C  696   2.108   1.695   0.835
  173EOH      H  697   2.104   1.459   0.686
  174EOH      O  698   1.484   1.339   2.963
  174EOH      C  699   1.607   1.279   2.922
  174EOH      C  700   1.732   1.368   2.935
  174EOH      H  701   1.423   1.269   2.948
  175EOH      O  702   1.312   3.990   3.615
  175EOH      C  703   1.392   4.033   3.725
  175EOH      C  704   1.452   4.167   3.680
  175EOH      H  705   1.267   3.916   3.652
  176EOH      O  706   0.484   4.009   0.921
  176EOH      C  707   0.451   4.138   0.867
  176EOH      C  708   0.576   4.216   0.823
  176EOH      H  709   0.409   3.974   0.967
  177EOH      O  710   1.465   0.342   0.679
  177EOH      C  711   1.343   0.410   0.652
  177EOH      C  712   1.231   0.319   0.708
  177EOH      H  713   1.505   0.366   0.762
  178EOH      O  714   0.641   3.245   3.017
  178EOH      C  715   0.678   3.377   2.977
  178EOH      C  716   0.547   3.456   2.995
  178EOH      H  717   0.616   3.205   2.935
  179EOH      O  718   0.940   3.524   2.047
  179EOH      C  719   0.836   3.427   2.041
  179EOH      C  720   0.876   3.278   2.037
  179EOH      H  721   0.983   3.509   2.130
  180EOH      O  722   2.949   1.322   3.599
  180EOH      C  723   2.871   1.222   3.535
  180EOH      C  724   2.834   1.119   3.643
  180EOH      H  725   3.035   1.294   3.625
  181EOH      O  726   1.187   0.052   2.386
  181EOH      C  727   1.173   0.185   2.437
  181EOH      C  728   1.309   0.244   2.480
  181EOH      H  729   1.106   0.008   2.407
  182EOH      O  730   2.227   3.042   2.931
  182EOH      C  731   2.154   3.082   3.047
  182EOH      C  732   2.137   2.966   3.147
  182EOH      H  733   2.163   3.011   2.869
  183EOH      O  734   2.028   2.171   1.359
  183EOH      C  735   2.155   2.211   1.306
  183EOH      C  736   2.181   2.132   1.176
  183EOH      H  737   2.033   2.207   1.446
  184EOH      O  738   1.031   2.146   0.105
  184EOH      C  739   0.984   2.204   4.681
  184EOH      C  740   0.833   2.232   4.674
  184EOH      H  741   1.125   2.150   0.096
  185EOH      O  742   3.647   1.762   1.684
  185EOH      C  743   3.506   1.763   1.711
  185EOH      C  744   3.492   1.664   1.828
  185EOH      H  745   3.659   1.817   1.608
  186EOH      O  746   2.348   3.803   2.944
  186EOH      C  747   2.422   3.920   2.908
  186EOH      C  748   2.512   3.959   3.027
  186EOH      H  749   2.323   3.748   2.871
  187EOH      O  750   0.114   0.280   0.880
  187EOH      C  751   0.107   0.140   0.907
  187EOH      C  752   0.161   0.060   0.787
  187EOH      H  753   0.072   0.326   0.951
  188EOH      O  754   2.918   1.071   0.319
  188EOH      C  755   3.006   1.184   0.317
  188EOH      C  756   3.040   1.198   0.167
  188EOH      H  757   2.889   1.059   0.408
  189EOH      O  758   2.924   1.433   1.964
  189EOH      C  759   2.801   1.409   1.896
  189EOH      C  760   2.822   1.273   1.826
  189EOH      H  761   2.934   1.527   1.976
  190EOH      O  762   1.184   2.452   1.198
  190EOH      C  763   1.174   2.578   1.131
  190EOH      C  764   1.146   2.689   1.235
  190EOH      H  765   1.165   2.385   1.134
  191EOH      O  766   0.279   1.644   0.249
  191EOH      C  767   0.251   1.697   0.119
  191EOH      C  768   0.249   1.849   0.141
  191EOH      H  769   0.372   1.627   0.250
  192EOH      O  770   3.223   3.323   1.265
  192EOH      C  771   3.244   3.278   1.399
  192EOH      C  772   3.334   3.153   1.398
  192EOH      H  773   3.139   3.290   1.237
  193EOH      O  774   0.797   0.156   4.475
  193EOH      C  775   0.758   0.106   4.347
  193EOH      C  776   0.608   0.076   4.330
  193EOH      H  777   0.762   0.244   4.479
  194EOH      O  778   4.051   3.566   2.735
  194EOH      C  779   4.140   3.618   2.634
  194EOH      C  780   4.219   3.508   2.560
  194EOH      H  781   3.979   3.523   2.692
  195EOH      O  782   4.263   1.972   0.410
  195EOH      C  783   4.307   1.941   0.277
  195EOH      C  784   4.377   2.070   0.232
  195EOH      H  785   4.210   1.898   0.433
  196EOH      O  786   3.374   3.486   3.358
  196EOH      C  787   3.355   3.389   3.254
  196EOH      C  788   3.204   3.389   3.224
  196EOH      H  789   3.373   3.436   3.438
  197EOH      O  790   1.928   0.870   4.312
  197EOH      C  791   2.003   0.989   4.292
  197EOH      C  792   1.944   1.105   4.374
  197EOH      H  793   1.877   0.850   4.235
  198EOH      O  794   0.520   0.487   4.507
  198EOH      C  795   0.417   0.535   4.420
  198EOH      C  796   0.436   0.479   4.278
  198EOH      H  797   0.497   0.489   4.598
  199EOH      O  798   3.635   2.030   4.496
  199EOH      C  799   3.696   1.915   4.436
  199EOH      C  800   3.733   1.958   4.293
  199EOH      H  801   3.604   2.006   4.582
  200EOH      O  802   2.816   3.934   1.000
  200EOH      C  803   2.816   3.809   0.932
  200EOH      C  804   2.746   3.705   1.021
  200EOH      H  805   2.863   4.006   0.961
  201EOH      O  806   1.776   1.053   3.942
  201EOH      C  807   1.670   1.139   3.984
  201EOH      C  808   1.665   1.123   4.137
  201EOH      H  809   1.761   1.049   3.849
  202EOH      O  810   2.395   0.573   0.525
  202EOH      C  811   2.530   0.527   0.514
  202EOH      C  812   2.597   0.619   0.410
  202EOH      H  813   2.353   0.525   0.596
  203EOH      O  814   0.509   2.561   2.072
  203EOH      C  815   0.400   2.648   2.044
  203EOH      C  816   0.455   2.790   2.018
  203EOH      H  817   0.516   2.567   2.167
  204EOH      O  818   1.699   4.180   0.111
  204EOH      C  819   1.740   4.043   0.101
  204EOH      C  820   1.798   3.995   0.236
  204EOH      H  821   1.613   4.174   0.149
  205EOH      O  822   2.134   2.368   0.190
  205EOH      C  823   1.997   2.402   0.213
  205EOH      C  824   1.910   2.275   0.207
  205EOH      H  825   2.174   2.441   0.233
  206EOH      O  826   3.171   0.662   0.520
  206EOH      C  827   3.102   0.555   0.455
  206EOH      C  828   2.972   0.611   0.394
  206EOH      H  829   3.196   0.631   0.605
  207EOH      O  830   0.816   0.865   2.252
  207EOH      C  831   0.695   0.794   2.280
  207EOH      C  832   0.611   0.867   2.387
  207EOH      H  833   0.882   0.799   2.240
  208EOH      O  834   4.610   1.809   1.817
  208EOH      C  835   4.562   1.887   1.707
  208EOH      C  836   4.667   1.993   1.671
  208EOH      H  837   4.588   1.846   1.901
  209EOH      O  838   1.506   0.998   0.222
  209EOH      C  839   1.546   1.135   0.230
  209EOH      C  840   1.449   1.201   0.330
  209EOH      H  841   1.564   0.965   0.155
  210EOH      O  842   3.097   2.009   1.041
  210EOH      C  843   3.137   2.107   1.137
  210EOH      C  844   3.038   2.110   1.255
  210EOH      H  845   3.164   2.015   0.975
  211EOH      O  846   2.705   4.586   3.998
  211EOH      C  847   2.665   4.566   3.862
  211EOH      C  848   2.745   4.656   3.765
  211EOH      H  849   2.668   4.511   4.043
  212EOH      O  850   2.014   1.233   2.769
  212EOH      C  851   2.074   1.104   2.766
  212EOH      C  852   1.974   0.987   2.775
  212EOH      H  853   1.942   1.237   2.708
  213EOH      O  854   2.047   3.785   0.135
  213EOH      C  855   2.129   3.880   0.067
  213EOH      C  856   2.194   3.976   0.168
  213EOH      H  857   1.988   3.741   0.075
  214EOH      O  858   4.428   0.357   4.463
  214EOH      C  859   4.288   0.353   4.436
  214EOH      C  860   4.257   0.366   4.285
  214EOH      H  861   4.472   0.279   4.433
  215EOH      O  862   2.969   3.327   2.719
  215EOH      C  863   2.999   3.325   2.859
  215EOH      C  864   3.027   3.182   2.908
  215EOH      H  865   2.970   3.415   2.684
  216EOH      O  866   0.460   3.033   4.423
  216EOH      C  867   0.595   3.080   4.419
  216EOH      C  868   0.684   2.972   4.354
  216EOH      H  869   0.451   2.978   4.499
  217EOH      O  870   1.517   0.148   1.344
  217EOH      C  871   1.646   0.165   1.403
  217EOH      C  872   1.723   0.275   1.327
  217EOH      H  873   1.466   0.098   1.407
  218EOH      O  874   2.902   4.656   4.696
  218EOH      C  875   2.864   4.566   4.592
  218EOH      C  876   2.789   4.647   4.484
  218EOH      H  877   2.934   0.039   4.659
  219EOH      O  878   1.574   0.699   1.709
  219EOH      C  879   1.474   0.678   1.810
  219EOH      C  880   1.532   0.672   1.952
  219EOH      H  881   1.612   0.614   1.691
  220EOH      O  882   1.817   2.219   2.503
  220EOH      C  883   1.893   2.330   2.550
  220EOH      C  884   1.810   2.460   2.553
  220EOH      H  885   1.778   2.181   2.580
  221EOH      O  886   2.103   4.681   0.747
  221EOH      C  887   2.054   4.550   0.719
  221EOH      C  888   2.149   4.439   0.768
  221EOH      H  889   2.155   0.015   0.674
  222EOH      O  890   2.779   2.515   3.052
  222EOH      C  891   2.824   2.440   3.165
  222EOH      C  892   2.828   2.296   3.111
  222EOH      H  893   2.706   2.568   3.081
  223EOH      O  894   2.972   3.264   1.182
  223EOH      C  895   2.976   3.171   1.074
  223EOH      C  896   3.068   3.228   0.965
  223EOH      H  897   2.884   3.288   1.206
  224EOH      O  898   4.069   3.682   1.439
  224EOH      C  899   4.209   3.710   1.455
  224EOH      C  900   4.268   3.746   1.317
  224EOH      H  901   4.021   3.683   1.520
  225EOH      O  902   0.681   0.573   3.201
  225EOH      C  903   0.600   0.673   3.262
  225EOH      C  904   0.451   0.662   3.225
  225EOH      H  905   0.752   0.618   3.158
  226EOH      O  906   0.750   0.060   1.466
  226EOH      C  907   0.767   0.107   1.600
  226EOH      C  908   0.828   4.688   1.679
  226EOH      H  909   0.677   0.103   1.423
  227EOH      O  910   0.599   3.830   1.430
  227EOH      C  911   0.571   3.833   1.290
  227EOH      C  912   0.663   3.928   1.210
  227EOH      H  913   0.516   3.828   1.474
  228EOH      O  914   2.808   0.689   4.386
  228EOH      C  915   2.898   0.656   4.279
  228EOH      C  916   2.917   0.503   4.273
  228EOH      H  917   2.799   0.782   4.393
  229EOH      O  918   3.535   4.161   1.330
  229EOH      C  919   3.500   4.175   1.192
  229EOH      C  920   3.604   4.236   1.096
  229EOH      H  921   3.598   4.090   1.329
  230EOH      O  922   1.351   3.509   2.169
  230EOH      C  923   1.371   3.379   2.112
  230EOH      C  924   1.401   3.284   2.230
  230EOH      H  925   1.393   3.574   2.115
  231EOH      O  926   4.078   3.599   0.887
  231EOH      C  927   4.219   3.598   0.912
  231EOH      C  928   4.296   3.654   0.790
  231EOH      H  929   4.038   3.672   0.932
  232EOH      O  930   0.194   2.079   2.412
  232EOH      C  931   0.251   2.013   2.525
  232EOH      C  932   0.309   2.123   2.615
  232EOH      H  933   0.103   2.080   2.438
  233EOH      O  934   1.584   1.067   2.530
  233EOH      C  935   1.610   0.983   2.643
  233EOH      C  936   1.481   0.906   2.675
  233EOH      H  937   1.498   1.105   2.534
  234EOH      O  938   3.409   1.838   2.118
  234EOH      C  939   3.347   1.966   2.103
  234EOH      C  940   3.254   1.984   2.224
  234EOH      H  941   3.341   1.776   2.097
  235EOH      O  942   0.179   4.072   2.949
  235EOH      C  943   0.257   4.027   3.060
  235EOH      C  944   0.307   3.883   3.037
  235EOH      H  945   0.116   4.003   2.934
  236EOH      O  946   1.050   1.669   3.321
  236EOH      C  947   1.056   1.809   3.292
  236EOH      C  948   1.202   1.852   3.268
  236EOH      H  949   0.963   1.636   3.302
  237EOH      O  950   3.645   4.558   3.478
  237EOH      C  951   3.563   4.520   3.589
  237EOH      C  952   3.445   4.430   3.548
  237EOH      H  953   3.728   4.512   3.482
  238EOH      O  954   2.702   0.587   1.538
  238EOH      C  955   2.731   0.458   1.482
  238EOH      C  956   2.882   0.465   1.451
  238EOH      H  957   2.709   0.649   1.467
  239EOH      O  958   2.312   3.185   3.479
  239EOH      C  959   2.411   3.107   3.412
  239EOH      C  960   2.379   2.957   3.427
  239EOH      H  961   2.354   3.268   3.498
  240EOH      O  962   2.229   2.491   4.142
  240EOH      C  963   2.180   2.383   4.221
  240EOH      C  964   2.230   2.408   4.364
  240EOH      H  965   2.323   2.485   4.134
  241EOH      O  966   3.063   1.471   2.986
  241EOH      C  967   2.926   1.465   2.947
  241EOH      C  968   2.887   1.573   2.845
  241EOH      H  969   3.065   1.413   3.061
  242EOH      O  970   3.368   3.174   4.037
  242EOH      C  971   3.243   3.240   4.015
  242EOH      C  972   3.153   3.160   3.918
  242EOH      H  973   3.436   3.240   4.038
  243EOH      O  974   3.044   0.815   3.346
  243EOH      C  975   3.103   0.714   3.264
  243EOH      C  976   3.181   0.777   3.146
  243EOH      H  977   2.978   0.777   3.402
  244EOH      O  978   4.650   3.316   3.568
  244EOH      C  979   0.091   3.307   3.535
  244EOH      C  980   0.174   3.296   3.664
  244EOH      H  981   4.592   3.307   3.494
  245EOH      O  982   2.707   0.560   4.568
  245EOH      C  983   2.674   0.661   4.664
  245EOH      C  984   2.771   0.652   0.087
  245EOH      H  985   2.745   0.614   4.500
  246EOH      O  986   3.808   0.555   4.141
  246EOH      C  987   3.940   0.499   4.152
  246EOH      C  988   4.009   0.515   4.015
  246EOH      H  989   3.741   0.488   4.137
  247EOH      O  990   3.584   3.896   4.149
  247EOH      C  991   3.682   3.982   4.091
  247EOH      C  992   3.826   3.927   4.086
  247EOH      H  993   3.495   3.913   4.124
  248EOH      O  994   1.210   2.451   0.812
  248EOH      C  995   1.237   2.445   0.672
  248EOH      C  996   1.220   2.580   0.601
  248EOH      H  997   1.282   2.496   0.853
  249EOH      O  998   4.654   0.984   3.715
  249EOH      C  999   0.014   1.022   3.840
  249EOH      C 1000   0.140   1.110   3.836
  249EOH      H 1001   4.612   0.901   3.731
  250EOH      O 1002   4.242   2.183   0.550
  250EOH      C 1003   4.119   2.227   0.490
  250EOH      C 1004   4.090   2.365   0.553
  250EOH      H 1005   4.261   2.100   0.511
  251EOH      O 1006   3.246   2.061   3.774
  251EOH      C 1007   3.264   2.041   3.633
  251EOH      C 1008   3.227   2.174   3.567
  251EOH      H 1009   3.331   2.058   3.813
  252EOH      O 1010   3.988   2.820   3.750
  252EOH      C 1011   3.908   2.710   3.794
  252EOH      C 1012   3.886   2.614   3.676
  252EOH      H 1013   4.033   2.859   3.823
  253EOH      O 1014   0.166   2.339   1.505
  253EOH      C 1015   0.156   2.213   1.438
  253EOH      C 1016   0.216   2.229   1.297
  253EOH      H 1017   0.254   2.341   1.539
  254EOH      O 1018   1.415   0.493   4.591
  254EOH      C 1019   1.410   0.365   4.528
  254EOH      C 1020   1.422   0.372   4.375
  254EOH      H 1021   1.434   0.486   4.683
  255EOH      O 1022   0.615   1.288   1.668
  255EOH      C 1023   0.706   1.395   1.692
  255EOH      C 1024   0.759   1.437   1.554
  255EOH      H 1025   0.534   1.329   1.641
  256EOH      O 1026   1.235   2.670   2.809
  256EOH      C 1027   1.189   2.805   2.816
  256EOH      C 1028   1.271   2.879   2.923
  256EOH      H 1029   1.159   2.616   2.793
  257EOH      O 1030   1.103   3.511   2.265
  257EOH      C 1031   1.084   3.594   2.380
  257EOH      C 1032   0.942   3.579   2.438
  257EOH      H 1033   1.195   3.510   2.244
  258EOH      O 1034   2.553   2.329   0.362
  258EOH      C 1035   2.662   2.236   0.364
  258EOH      C 1036   2.765   2.258   0.476
  258EOH      H 1037   2.490   2.301   0.298
  259EOH      O 1038   2.406   0.146   2.155
  259EOH      C 1039   2.270   0.191   2.159
  259EOH      C 1040   2.240   0.236   2.303
  259EOH      H 1041   2.417   0.114   2.067
  260EOH      O 1042   0.923   4.628   1.344
  260EOH      C 1043   0.920   4.487   1.318
  260EOH      C 1044   1.019   4.446   1.206
  260EOH      H 1045   0.840   4.642   1.386
  261EOH      O 1046   3.530   3.960   2.771
  261EOH      C 1047   3.496   3.934   2.908
  261EOH      C 1048   3.355   3.873   2.909
  261EOH      H 1049   3.621   3.980   2.758
  262EOH      O 1050   0.901   2.728   0.536
  262EOH      C 1051   0.858   2.685   0.665
  262EOH      C 1052   0.779   2.796   0.737
  262EOH      H 1053   0.911   2.647   0.488
  263EOH      O 1054   2.469   1.296   1.832
  263EOH      C 1055   2.470   1.169   1.897
  263EOH      C 1056   2.391   1.069   1.811
  263EOH      H 1057   2.381   1.328   1.844
  264EOH      O 1058   2.491   2.279   3.464
  264EOH      C 1059   2.531   2.394   3.389
  264EOH      C 1060   2.634   2.464   3.479
  264EOH      H 1061   2.403   2.303   3.487
  265EOH      O 1062   3.953   0.264   2.603
  265EOH      C 1063   3.861   0.334   2.688
  265EOH      C 1064   3.908   0.307   2.832
  265EOH      H 1065   3.928   0.284   2.514
  266EOH      O 1066   2.118   1.721   1.391
  266EOH      C 1067   2.116   1.770   1.526
  266EOH      C 1068   2.255   1.742   1.585
  266EOH      H 1069   2.058   1.779   1.346
  267EOH      O 1070   0.855   0.691   3.050
  267EOH      C 1071   0.884   0.819   2.994
  267EOH      C 1072   0.855   0.955   3.061
  267EOH      H 1073   0.930   0.634   3.044
  268EOH      O 1074   4.022   4.541   1.947
  268EOH      C 1075   3.880   4.539   1.935
  268EOH      C 1076   3.825   4.414   2.005
  268EOH      H 1077   4.051   4.602   1.881
  269EOH      O 1078   1.876   2.388   4.402
  269EOH      C 1079   1.813   2.482   4.490
  269EOH      C 1080   1.736   2.414   4.605
  269EOH      H 1081   1.895   2.428   4.319
  270EOH      O 1082   3.254   0.695   2.308
  270EOH      C 1083   3.116   0.678   2.272
  270EOH      C 1084   3.040   0.811   2.287
  270EOH      H 1085   3.265   0.669   2.398
  271EOH      O 1086   1.252   1.460   3.624
  271EOH      C 1087   1.171   1.551   3.698
  271EOH      C 1088   1.022   1.532   3.665
  271EOH      H 1089   1.258   1.506   3.542
  272EOH      O 1090   1.156   0.185   3.948
  272EOH      C 1091   1.240   0.270   3.869
  272EOH      C 1092   1.361   0.316   3.953
  272EOH      H 1093   1.211   0.123   3.992
  273EOH      O 1094   3.218   1.675   2.039
  273EOH      C 1095   3.229   1.538   2.080
  273EOH      C 1096   3.256   1.533   2.232
  273EOH      H 1097   3.127   1.699   2.049
  274EOH      O 1098   1.472   3.377   2.943
  274EOH      C 1099   1.460   3.256   2.867
  274EOH      C 1100   1.476   3.273   2.715
  274EOH      H 1101   1.398   3.434   2.926
  275EOH      O 1102   4.597   2.413   0.721
  275EOH      C 1103   4.454   2.403   0.713
  275EOH      C 1104   4.377   2.534   0.738
  275EOH      H 1105   4.612   2.449   0.808
  276EOH      O 1106   2.078   2.986   0.569
  276EOH      C 1107   2.087   2.886   0.467
  276EOH      C 1108   2.125   2.755   0.539
  276EOH      H 1109   2.068   3.070   0.527
  277EOH      O 1110   1.113   1.111   2.236
  277EOH      C 1111   1.239   1.093   2.170
  277EOH      C 1112   1.299   0.970   2.240
  277EOH      H 1113   1.043   1.087   2.178
  278EOH      O 1114   2.053   1.775   3.947
  278EOH      C 1115   1.930   1.716   3.902
  278EOH      C 1116   1.923   1.563   3.915
  278EOH      H 1117   2.051   1.867   3.928
  279EOH      O 1118   4.271   2.029   4.119
  279EOH      C 1119   4.407   2.012   4.078
  279EOH      C 1120   4.500   1.961   4.189
  279EOH      H 1121   4.230   1.944   4.119
  280EOH      O 1122   4.463   3.673   4.104
  280EOH      C 1123   4.509   3.615   4.226
  280EOH      C 1124   4.461   3.704   4.342
  280EOH      H 1125   4.471   3.599   4.047
  281EOH      O 1126   2.014   3.360   1.726
  281EOH      C 1127   2.039   3.223   1.696
  281EOH      C 1128   2.185   3.177   1.712
  281EOH      H 1129   1.977   3.394   1.645
  282EOH      O 1130   2.637   3.033   1.236
  282EOH      C 1131   2.498   3.010   1.262
  282EOH      C 1132   2.456   3.018   1.410
  282EOH      H 1133   2.658   3.026   1.145
  283EOH      O 1134   1.119   0.746   0.288
  283EOH      C 1135   1.124   0.610   0.244
  283EOH      C 1136   1.106   0.501   0.351
  283EOH      H 1137   1.159   0.800   0.221
  284EOH      O 1138   0.281   0.192   3.536
  284EOH      C 1139   0.303   0.318   3.472
  284EOH      C 1140   0.452   0.356   3.475
  284EOH      H 1141   0.315   0.196   3.624
  285EOH      O 1142   2.466   1.787   4.181
  285EOH      C 1143   2.483   1.926   4.156
  285EOH      C 1144   2.450   2.010   4.281
  285EOH      H 1145   2.377   1.770   4.153
  286EOH      O 1146   0.725   1.548   0.936
  286EOH      C 1147   0.657   1.664   0.887
  286EOH      C 1148   0.761   1.763   0.830
  286EOH      H 1149   0.699   1.476   0.880
  287EOH      O 1150   4.494   3.481   3.950
  287EOH      C 1151   4.453   3.346   3.974
  287EOH      C 1152   4.578   3.257   3.975
  287EOH      H 1153   4.507   3.486   3.856
  288EOH      O 1154   3.470   0.653   1.167
  288EOH      C 1155   3.597   0.701   1.213
  288EOH      C 1156   3.657   0.803   1.114
  288EOH      H 1157   3.404   0.719   1.184
  289EOH      O 1158   4.136   0.578   1.072
  289EOH      C 1159   3.994   0.588   1.055
  289EOH      C 1160   3.932   0.456   1.103
  289EOH      H 1161   4.174   0.647   1.125
  290EOH      O 1162   3.860   4.177   1.429
  290EOH      C 1163   3.949   4.183   1.541
  290EOH      C 1164   3.868   4.220   1.666
  290EOH      H 1165   3.790   4.238   1.446
  291EOH      O 1166   0.373   0.424   2.993
  291EOH      C 1167   0.271   0.324   2.994
  291EOH      C 1168   0.326   0.197   3.061
  291EOH      H 1169   0.457   0.395   3.021
  292EOH      O 1170   0.923   2.914   2.117
  292EOH      C 1171   1.064   2.898   2.136
  292EOH      C 1172   1.124   2.995   2.239
  292EOH      H 1173   0.883   2.858   2.052
  293EOH      O 1174   1.922   1.920   0.662
  293EOH      C 1175   2.007   2.030   0.695
  293EOH      C 1176   2.029   2.118   0.570
  293EOH      H 1177   1.941   1.888   0.575
  294EOH      O 1178   2.950   4.305   1.773
  294EOH      C 1179   2.826   4.254   1.822
  294EOH      C 1180   2.747   4.356   1.906
  294EOH      H 1181   2.999   4.227   1.755
  295EOH      O 1182   0.862   3.818   0.844
  295EOH      C 1183   0.932   3.924   0.910
  295EOH      C 1184   1.053   3.861   0.980
  295EOH      H 1185   0.778   3.847   0.812
  296EOH      O 1186   1.320   0.029   2.176
  296EOH      C 1187   1.251   4.629   2.096
  296EOH      C 1188   1.294   4.493   2.154
  296EOH      H 1189   1.279   0.035   2.260
  297EOH      O 1190   2.403   0.092   1.051
  297EOH      C 1191   2.409   0.146   1.184
  297EOH      C 1192   2.552   0.138   1.240
  297EOH      H 1193   2.312   0.098   1.028
  298EOH      O 1194   1.955   1.071   3.561
  298EOH      C 1195   2.019   1.067   3.434
  298EOH      C 1196   1.922   1.096   3.318
  298EOH      H 1197   2.010   1.027   3.625
  299EOH      O 1198   4.518   1.900   2.049
  299EOH      C 1199   4.590   2.014   2.097
  299EOH      C 1200   4.508   2.143   2.076
  299EOH      H 1201   4.494   1.849   2.125
  300EOH      O 1202   0.130   2.173   0.602
  300EOH      C 1203   4.696   2.116   0.599
  300EOH      C 1204   4.660   2.107   0.450
  300EOH      H 1205   0.114   2.263   0.579
  301EOH      O 1206   3.756   0.797   4.190
  301EOH      C 1207   3.690   0.775   4.316
  301EOH      C 1208   3.587   0.885   4.346
  301EOH      H 1209   3.793   0.713   4.169
  302EOH      O 1210   0.519   2.586   2.313
  302EOH      C 1211   0.435   2.509   2.400
  302EOH      C 1212   0.500   2.484   2.537
  302EOH      H 1213   0.607   2.585   2.347
  303EOH      O 1214   2.024   1.112   0.568
  303EOH      C 1215   1.903   1.056   0.620
  303EOH      C 1216   1.805   1.013   0.509
  303EOH      H 1217   2.061   1.041   0.518
  304EOH      O 1218   3.464   2.161   4.339
  304EOH      C 1219   3.329   2.113   4.331
  304EOH      C 1220   3.249   2.188   4.223
  304EOH      H 1221   3.500   2.101   4.402
  305EOH      O 1222   2.740   2.675   1.552
  305EOH      C 1223   2.614   2.724   1.598
  305EOH      C 1224   2.506   2.617   1.578
  305EOH      H 1225   2.735   2.630   1.468
  306EOH      O 1226   3.702   1.918   1.504
  306EOH      C 1227   3.599   2.011   1.468
  306EOH      C 1228   3.622   2.055   1.322
  306EOH      H 1229   3.791   1.950   1.493
  307EOH      O 1230   2.161   2.752   3.866
  307EOH      C 1231   2.042   2.805   3.806
  307EOH      C 1232   2.070   2.838   3.658
  307EOH      H 1233   2.151   2.750   3.960
  308EOH      O 1234   4.178   3.879   4.578
  308EOH      C 1235   4.143   3.902   0.017
  308EOH      C 1236   3.992   3.872   0.016
  308EOH      H 1237   4.149   3.946   4.517
  309EOH      O 1238   0.666   4.259   0.262
  309EOH      C 1239   0.658   4.305   0.397
  309EOH      C 1240   0.516   4.365   0.404
  309EOH      H 1241   0.623   4.176   0.249
  310EOH      O 1242   1.026   3.247   1.177
  310EOH      C 1243   0.949   3.362   1.213
  310EOH      C 1244   0.913   3.463   1.102
  310EOH      H 1245   1.118   3.257   1.196
  311EOH      O 1246   2.692   0.923   4.402
  311EOH      C 1247   2.549   0.923   4.406
  311EOH      C 1248   2.492   0.900   4.265
  311EOH      H 1249   2.732   1.005   4.427
  312EOH      O 1250   2.959   1.939   1.586
  312EOH      C 1251   2.835   2.008   1.576
  312EOH      C 1252   2.726   1.921   1.511
  312EOH      H 1253   3.031   2.000   1.587
  313EOH      O 1254   0.202   2.324   4.384
  313EOH      C 1255   0.180   2.461   4.349
  313EOH      C 1256   0.314   2.535   4.337
  313EOH      H 1257   0.119   2.279   4.379
  314EOH      O 1258   1.362   2.823   0.172
  314EOH      C 1259   1.373   2.723   0.071
  314EOH      C 1260   1.472   2.764   4.659
  314EOH      H 1261   1.315   2.892   0.127
  315EOH      O 1262   0.246   3.885   4.591
  315EOH      C 1263   0.187   3.798   4.494
  315EOH      C 1264   0.260   3.663   4.502
  315EOH      H 1265   0.228   3.854   4.679
  316EOH      O 1266   2.014   2.655   1.149
  316EOH      C 1267   1.909   2.575   1.205
  316EOH      C 1268   1.956   2.493   1.327
  316EOH      H 1269   1.991   2.663   1.057
  317EOH      O 1270   0.365   1.051   3.573
  317EOH      C 1271   0.456   1.065   3.465
  317EOH      C 1272   0.601   1.070   3.518
  317EOH      H 1273   0.282   1.010   3.551
  318EOH      O 1274   0.834   2.936   0.397
  318EOH      C 1275   0.931   2.993   0.309
  318EOH      C 1276   0.859   3.072   0.197
  318EOH      H 1277   0.882   2.868   0.442
  319EOH      O 1278   3.954   0.666   2.108
  319EOH      C 1279   3.913   0.773   2.194
  319EOH      C 1280   4.028   0.859   2.249
  319EOH      H 1281   3.897   0.666   2.032
  320EOH      O 1282   2.477   1.618   3.410
  320EOH      C 1283   2.559   1.636   3.294
  320EOH      C 1284   2.672   1.532   3.307
  320EOH      H 1285   2.467   1.703   3.448
  321EOH      O 1286   3.281   0.628   2.533
  321EOH      C 1287   3.316   0.690   2.657
  321EOH      C 1288   3.434   0.622   2.729
  321EOH      H 1289   3.210   0.570   2.554
  322EOH      O 1290   1.771   2.890   0.163
  322EOH      C 1291   1.780   3.020   0.105
  322EOH      C 1292   1.679   3.040   4.687
  322EOH      H 1293   1.689   2.892   0.210
  323EOH      O 1294   4.130   3.433   2.939
  323EOH      C 1295   4.102   3.295   2.911
  323EOH      C 1296   4.177   3.203   3.008
  323EOH      H 1297   4.094   3.482   2.867
  324EOH      O 1298   0.764   1.699   3.052
  324EOH      C 1299   0.745   1.840   3.069
  324EOH      C 1300   0.857   1.907   2.987
  324EOH      H 1301   0.686   1.659   3.015
  325EOH      O 1302   4.158   1.753   4.420
  325EOH      C 1303   4.150   1.870   4.502
  325EOH      C 1304   4.285   1.884   4.575
  325EOH      H 1305   4.145   1.678   4.476
  326EOH      O 1306   4.627   0.544   2.747
  326EOH      C 1307   4.658   0.405   2.759
  326EOH      C 1308   4.602   0.362   2.622
  326EOH      H 1309   0.008   0.596   2.751
  327EOH      O 1310   4.444   0.115   3.716
  327EOH      C 1311   4.581   0.081   3.734
  327EOH      C 1312   4.589   0.002   3.866
  327EOH      H 1313   4.439   0.138   3.625
  328EOH      O 1314   1.219   3.024   4.516
  328EOH      C 1315   1.088   2.978   4.484
  328EOH      C 1316   1.060   2.867   4.588
  328EOH      H 1317   1.231   3.111   4.481
  329EOH      O 1318   1.776   2.176   3.609
  329EOH      C 1319   1.695   2.261   3.691
  329EOH      C 1320   1.740   2.409   3.697
  329EOH      H 1321   1.720   2.101   3.598
  330EOH      O 1322   3.989   3.192   2.054
  330EOH      C 1323   3.981   3.052   2.027
  330EOH      C 1324   3.928   3.027   1.884
  330EOH      H 1325   4.065   3.212   2.106
  331EOH      O 1326   1.214   1.900   1.773
  331EOH      C 1327   1.079   1.865   1.804
  331EOH      C 1328   0.989   1.904   1.686
  331EOH      H 1329   1.217   1.993   1.757
  332EOH      O 1330   3.862   0.171   0.144
  332EOH      C 1331   3.916   0.299   0.178
  332EOH      C 1332   3.855   0.324   0.317
  332EOH      H 1333   3.772   0.177   0.170
  333EOH      O 1334   2.614   1.515   0.579
  333EOH      C 1335   2.687   1.456   0.686
  333EOH      C 1336   2.819   1.532   0.709
  333EOH      H 1337   2.574   1.594   0.612
  334EOH      O 1338   2.576   0.730   2.177
  334EOH      C 1339   2.633   0.861   2.173
  334EOH      C 1340   2.663   0.905   2.318
  334EOH      H 1341   2.525   0.725   2.098
  335EOH      O 1342   1.577   4.365   4.632
  335EOH      C 1343   1.629   4.493   4.670
  335EOH      C 1344   1.672   4.490   0.120
  335EOH      H 1345   1.627   4.303   4.683
  336EOH      O 1346   1.675   1.964   0.652
  336EOH      C 1347   1.594   1.848   0.674
  336EOH      C 1348   1.565   1.825   0.823
  336EOH      H 1349   1.765   1.935   0.661
  337EOH      O 1350   0.780   4.004   2.937
  337EOH      C 1351   0.895   3.976   2.856
  337EOH      C 1352   0.851   3.870   2.753
  337EOH      H 1353   0.774   4.098   2.940
  338EOH      O 1354   1.909   0.637   4.442
  338EOH      C 1355   1.776   0.591   4.468
  338EOH      C 1356   1.782   0.466   4.557
  338EOH      H 1357   1.900   0.715   4.389
  339EOH      O 1358   3.958   3.336   3.646
  339EOH      C 1359   4.092   3.375   3.616
  339EOH      C 1360   4.164   3.324   3.742
  339EOH      H 1361   3.918   3.307   3.566
  340EOH      O 1362   3.373   3.351   3.581
  340EOH      C 1363   3.463   3.399   3.682
  340EOH      C 1364   3.582   3.478   3.625
  340EOH      H 1365   3.291   3.391   3.602
  341EOH      O 1366   1.064   3.240   3.465
  341EOH      C 1367   1.059   3.198   3.602
  341EOH      C 1368   0.924   3.248   3.656
  341EOH      H 1369   1.060   3.162   3.411
  342EOH      O 1370   3.967   4.638   0.191
  342EOH      C 1371   4.059   4.650   0.300
  342EOH      C 1372   4.091   4.507   0.347
  342EOH      H 1373   3.937   0.029   0.176
  343EOH      O 1374   4.138   0.577   0.687
  343EOH      C 1375   4.139   0.507   0.562
  343EOH      C 1376   4.210   0.374   0.592
  343EOH      H 1377   4.223   0.566   0.728
  344EOH      O 1378   0.776   4.468   3.132
  344EOH      C 1379   0.912   4.514   3.134
  344EOH      C 1380   1.009   4.429   3.219
  344EOH      H 1381   0.740   4.494   3.215
  345EOH      O 1382   1.439   1.465   4.486
  345EOH      C 1383   1.311   1.401   4.481
  345EOH      C 1384   1.205   1.502   4.433
  345EOH      H 1385   1.455   1.508   4.404
  346EOH      O 1386   4.203   3.320   2.182
  346EOH      C 1387   4.322   3.268   2.241
  346EOH      C 1388   4.286   3.185   2.365
  346EOH      H 1389   4.232   3.392   2.128
  347EOH      O 1390   0.311   1.045   0.518
  347EOH      C 1391   0.367   1.172   0.485
  347EOH      C 1392   0.449   1.177   0.355
  347EOH      H 1393   0.259   1.020   0.444
  348EOH      O 1394   1.900   3.439   1.512
  348EOH      C 1395   1.929   3.578   1.501
  348EOH      C 1396   2.034   3.606   1.391
  348EOH      H 1397   1.831   3.413   1.453
  349EOH      O 1398   2.360   4.516   0.440
  349EOH      C 1399   2.477   4.491   0.518
  349EOH      C 1400   2.577   4.596   0.465
  349EOH      H 1401   2.381   4.485   0.353
  350EOH      O 1402   4.133   2.363   2.589
  350EOH      C 1403   4.188   2.419   2.707
  350EOH      C 1404   4.078   2.487   2.791
  350EOH      H 1405   4.144   2.270   2.604
  351EOH      O 1406   1.294   2.853   1.603
  351EOH      C 1407   1.286   2.976   1.530
  351EOH      C 1408   1.166   3.064   1.568
  351EOH      H 1409   1.336   2.864   1.687
  352EOH      O 1410   1.521   4.147   2.733
  352EOH      C 1411   1.497   4.285   2.764
  352EOH      C 1412   1.541   4.361   2.638
  352EOH      H 1413   1.531   4.145   2.639
  353EOH      O 1414   1.441   3.453   4.023
  353EOH      C 1415   1.399   3.589   4.012
  353EOH      C 1416   1.298   3.609   4.126
  353EOH      H 1417   1.435   3.406   3.941
  354EOH      O 1418   2.469   0.541   3.503
  354EOH      C 1419   2.370   0.445   3.541
  354EOH      C 1420   2.346   0.343   3.428
  354EOH      H 1421   2.424   0.610   3.458
  355EOH      O 1422   1.312   1.069   1.817
  355EOH      C 1423   1.447   1.064   1.772
  355EOH      C 1424   1.459   1.009   1.629
  355EOH      H 1425   1.291   1.159   1.838
  356EOH      O 1426   3.327   3.486   1.114
  356EOH      C 1427   3.347   3.609   1.184
  356EOH      C 1428   3.284   3.715   1.091
  356EOH      H 1429   3.310   3.426   1.185
  357EOH      O 1430   3.116   4.107   1.737
  357EOH      C 1431   3.177   4.081   1.610
  357EOH      C 1432   3.220   4.221   1.561
  357EOH      H 1433   3.169   4.067   1.804
  358EOH      O 1434   1.075   1.497   4.069
  358EOH      C 1435   0.940   1.525   4.106
  358EOH      C 1436   0.930   1.618   4.228
  358EOH      H 1437   1.066   1.418   4.017
  359EOH      O 1438   3.565   2.156   0.972
  359EOH      C 1439   3.688   2.190   0.907
  359EOH      C 1440   3.774   2.063   0.891
  359EOH      H 1441   3.528   2.241   0.990
  360EOH      O 1442   0.292   3.183   1.535
  360EOH      C 1443   0.212   3.064   1.527
  360EOH      C 1444   0.175   3.009   1.666
  360EOH      H 1445   0.383   3.161   1.526
  361EOH      O 1446   4.126   1.439   3.437
  361EOH      C 1447   4.136   1.509   3.313
  361EOH      C 1448   4.241   1.443   3.222
  361EOH      H 1449   4.032   1.442   3.450
  362EOH      O 1450   2.185   2.652   1.958
  362EOH      C 1451   2.231   2.726   1.844
  362EOH      C 1452   2.366   2.782   1.891
  362EOH      H 1453   2.097   2.620   1.947
  363EOH      O 1454   1.710   2.123   2.723
  363EOH      C 1455   1.572   2.136   2.760
  363EOH      C 1456   1.512   2.220   2.646
  363EOH      H 1457   1.745   2.045   2.763
  364EOH      O 1458   4.660   2.140   2.421
  364EOH      C 1459   4.556   2.201   2.498
  364EOH      C 1460   4.621   2.256   2.626
  364EOH      H 1461   4.664   2.193   2.342
  365EOH      O 1462   2.919   1.764   3.485
  365EOH      C 1463   3.013   1.751   3.379
  365EOH      C 1464   3.038   1.885   3.308
  365EOH      H 1465   2.910   1.689   3.542
  366EOH      O 1466   0.301   1.994   0.557
  366EOH      C 1467   0.428   1.998   0.491
  366EOH      C 1468   0.519   1.915   0.582
  366EOH      H 1469   0.240   2.062   0.534
  367EOH      O 1470   1.450   3.311   1.393
  367EOH      C 1471   1.357   3.345   1.497
  367EOH      C 1472   1.424   3.358   1.635
  367EOH      H 1473   1.445   3.217   1.385
  368EOH      O 1474   2.212   1.383   2.296
  368EOH      C 1475   2.287   1.262   2.306
  368EOH      C 1476   2.218   1.150   2.225
  368EOH      H 1477   2.239   1.436   2.369
  369EOH      O 1478   2.578   0.832   1.191
  369EOH      C 1479   2.618   0.779   1.064
  369EOH      C 1480   2.750   0.700   1.076
  369EOH      H 1481   2.517   0.900   1.170
  370EOH      O 1482   2.143   0.938   0.395
  370EOH      C 1483   2.200   0.980   0.271
  370EOH      C 1484   2.095   1.078   0.215
  370EOH      H 1485   2.163   0.846   0.401
  371EOH      O 1486   3.204   1.014   1.494
  371EOH      C 1487   3.131   1.059   1.608
  371EOH      C 1488   3.221   1.160   1.682
  371EOH      H 1489   3.194   1.088   1.437
  372EOH      O 1490   2.623   4.394   4.115
  372EOH      C 1491   2.538   4.402   4.229
  372EOH      C 1492   2.598   4.322   4.346
  372EOH      H 1493   2.590   4.327   4.057
  373EOH      O 1494   1.142   0.886   1.780
  373EOH      C 1495   1.037   0.903   1.875
  373EOH      C 1496   0.938   1.002   1.810
  373EOH      H 1497   1.209   0.951   1.794
  374EOH      O 1498   3.335   3.941   4.153
  374EOH      C 1499   3.226   3.891   4.232
  374EOH      C 1500   3.200   3.745   4.191
  374EOH      H 1501   3.297   3.948   4.067
  375EOH      O 1502   3.721   3.987   1.314
  375EOH      C 1503   3.771   3.866   1.373
  375EOH      C 1504   3.663   3.761   1.344
  375EOH      H 1505   3.779   4.057   1.341
  376EOH      O 1506   2.862   2.238   2.611
  376EOH      C 1507   2.861   2.141   2.716
  376EOH      C 1508   2.790   2.009   2.679
  376EOH      H 1509   2.912   2.313   2.640
  377EOH      O 1510   2.248   0.498   0.733
  377EOH      C 1511   2.222   0.385   0.816
  377EOH      C 1512   2.081   0.337   0.776
  377EOH      H 1513   2.264   0.568   0.795
  378EOH      O 1514   0.669   0.409   0.665
  378EOH      C 1515   0.724   0.501   0.570
  378EOH      C 1516   0.756   0.431   0.437
  378EOH      H 1517   0.627   0.467   0.728
  379EOH      O 1518   1.847   1.295   2.572
  379EOH      C 1519   1.829   1.435   2.546
  379EOH      C 1520   1.934   1.468   2.439
  379EOH      H 1521   1.822   1.250   2.493
  380EOH      O 1522   0.223   2.233   2.213
  380EOH      C 1523   0.332   2.241   2.120
  380EOH      C 1524   0.258   2.278   1.990
  380EOH      H 1525   0.246   2.161   2.271
  381EOH      O 1526   2.483   1.844   3.552
  381EOH      C 1527   2.436   1.810   3.683
  381EOH      C 1528   2.534   1.837   3.799
  381EOH      H 1529   2.518   1.932   3.551
  382EOH      O 1530   2.183   1.859   3.100
  382EOH      C 1531   2.324   1.866   3.128
  382EOH      C 1532   2.386   1.914   2.995
  382EOH      H 1533   2.152   1.775   3.130
  383EOH      O 1534   1.584   3.917   4.225
  383EOH      C 1535   1.508   4.008   4.146
  383EOH      C 1536   1.361   3.963   4.142
  383EOH      H 1537   1.643   3.866   4.171
  384EOH      O 1538   2.338   0.432   2.789
  384EOH      C 1539   2.331   0.307   2.720
  384EOH      C 1540   2.187   0.284   2.671
  384EOH      H 1541   2.305   0.497   2.729
  385EOH      O 1542   2.402   1.026   1.190
  385EOH      C 1543   2.265   1.020   1.230
  385EOH      C 1544   2.263   0.983   1.380
  385EOH      H 1545   2.437   1.113   1.198
  386EOH      O 1546   0.337   2.630   0.866
  386EOH      C 1547   0.401   2.503   0.852
  386EOH      C 1548   0.323   2.380   0.902
  386EOH      H 1549   0.351   2.684   0.789
  387EOH      O 1550   2.171   0.666   0.430
  387EOH      C 1551   2.060   0.575   0.434
  387EOH      C 1552   1.932   0.659   0.418
  387EOH      H 1553   2.245   0.631   0.477
  388EOH      O 1554   2.597   2.061   3.514
  388EOH      C 1555   2.740   2.053   3.501
  388EOH      C 1556   2.822   2.132   3.604
  388EOH      H 1557   2.574   2.151   3.497
  389EOH      O 1558   0.093   1.216   3.349
  389EOH      C 1559   4.670   1.220   3.273
  389EOH      C 1560   4.658   1.359   3.208
  389EOH      H 1561   0.096   1.138   3.402
  390EOH      O 1562   3.512   0.115   3.922
  390EOH      C 1563   3.498   0.138   3.782
  390EOH      C 1564   3.628   0.198   3.726
  390EOH      H 1565   3.471   0.031   3.937
  391EOH      O 1566   2.571   2.291   4.091
  391EOH      C 1567   2.599   2.240   3.960
  391EOH      C 1568   2.599   2.346   3.848
  391EOH      H 1569   2.648   2.273   4.142
  392EOH      O 1570   1.449   0.145   3.036
  392EOH      C 1571   1.473   0.090   2.906
  392EOH      C 1572   1.338   0.068   2.834
  392EOH      H 1573   1.521   0.199   3.063
  393EOH      O 1574   0.505   3.635   3.879
  393EOH      C 1575   0.523   3.526   3.788
  393EOH      C 1576   0.669   3.476   3.777
  393EOH      H 1577   0.412   3.650   3.870
  394EOH      O 1578   0.784   4.069   2.167
  394EOH      C 1579   0.746   4.007   2.290
  394EOH      C 1580   0.740   4.111   2.404
  394EOH      H 1581   0.790   3.996   2.107
  395EOH      O 1582   2.134   4.536   1.618
  395EOH      C 1583   2.010   4.545   1.546
  395EOH      C 1584   2.035   4.651   1.437
  395EOH      H 1585   2.187   4.471   1.575
  396EOH      O 1586   2.976   1.795   0.268
  396EOH      C 1587   3.052   1.674   0.270
  396EOH      C 1588   3.040   1.607   0.132
  396EOH      H 1589   2.883   1.778   0.263
  397EOH      O 1590   0.413   0.650   2.846
  397EOH      C 1591   0.536   0.719   2.869
  397EOH      C 1592   0.510   0.869   2.893
  397EOH      H 1593   0.411   0.577   2.905
  398EOH      O 1594   0.733   2.257   3.674
  398EOH      C 1595   0.769   2.338   3.562
  398EOH      C 1596   0.683   2.465   3.549
  398EOH      H 1597   0.640   2.241   3.672
  399EOH      O 1598   1.278   1.425   1.606
  399EOH      C 1599   1.197   1.444   1.490
  399EOH      C 1600   1.173   1.596   1.477
  399EOH      H 1601   1.357   1.476   1.599
  400EOH      O 1602   3.225   1.728   4.403
  400EOH      C 1603   3.328   1.691   4.495
  400EOH      C 1604   3.285   1.558   4.561
  400EOH      H 1605   3.156   1.762   4.458
  401EOH      O 1606   0.116   0.999   3.507
  401EOH      C 1607   0.096   0.870   3.450
  401EOH      C 1608   0.172   0.769   3.538
  401EOH      H 1609   0.070   1.003   3.589
  402EOH      O 1610   4.312   1.546   1.099
  402EOH      C 1611   4.199   1.527   1.185
  402EOH      C 1612   4.252   1.434   1.297
  402EOH      H 1613   4.349   1.628   1.128
  403EOH      O 1614   1.334   1.185   2.489
  403EOH      C 1615   1.373   1.322   2.474
  403EOH      C 1616   1.369   1.385   2.614
  403EOH      H 1617   1.240   1.187   2.477
  404EOH      O 1618   0.411   1.421   1.534
  404EOH      C 1619   0.304   1.335   1.495
  404EOH      C 1620   0.234   1.374   1.363
  404EOH      H 1621   0.433   1.465   1.453
  405EOH      O 1622   4.202   2.026   3.568
  405EOH      C 1623   4.227   1.909   3.490
  405EOH      C 1624   4.167   1.805   3.586
  405EOH      H 1625   4.268   2.087   3.538
  406EOH      O 1626   1.813   4.567   3.924
  406EOH      C 1627   1.726   4.518   4.025
  406EOH      C 1628   1.597   4.474   3.954
  406EOH      H 1629   1.878   4.499   3.919
  407EOH      O 1630   2.372   2.252   0.213
  407EOH      C 1631   2.381   2.205   0.078
  407EOH      C 1632   2.273   2.102   0.040
  407EOH      H 1633   2.289   2.298   0.211
  408EOH      O 1634   0.495   3.598   1.602
  408EOH      C 1635   0.509   3.458   1.626
  408EOH      C 1636   0.433   3.436   1.758
  408EOH      H 1637   0.578   3.633   1.574
  409EOH      O 1638   1.958   3.659   1.944
  409EOH      C 1639   1.998   3.711   2.072
  409EOH      C 1640   1.935   3.851   2.086
  409EOH      H 1641   2.036   3.626   1.901
  410EOH      O 1642   1.594   2.830   3.055
  410EOH      C 1643   1.658   2.942   2.994
  410EOH      C 1644   1.784   2.906   2.913
  410EOH      H 1645   1.562   2.774   2.985
  411EOH      O 1646   4.676   3.879   0.249
  411EOH      C 1647   4.676   4.015   0.295
  411EOH      C 1648   0.119   4.077   0.303
  411EOH      H 1649   4.593   3.847   0.283
  412EOH      O 1650   0.901   2.497   0.409
  412EOH      C 1651   0.897   2.502   0.266
  412EOH      C 1652   0.938   2.641   0.212
  412EOH      H 1653   0.899   2.408   0.443
  413EOH      O 1654   1.926   1.879   1.301
  413EOH      C 1655   1.813   1.876   1.214
  413EOH      C 1656   1.773   1.730   1.183
  413EOH      H 1657   1.958   1.967   1.314
  414EOH      O 1658   4.651   0.617   4.005
  414EOH      C 1659   0.028   0.495   4.015
  414EOH      C 1660   0.032   0.450   4.163
  414EOH      H 1661   4.678   0.674   4.076
  415EOH      O 1662   4.182   2.861   3.967
  415EOH      C 1663   4.295   2.811   3.894
  415EOH      C 1664   4.425   2.890   3.919
  415EOH      H 1665   4.174   2.811   4.046
  416EOH      O 1666   2.054   0.557   2.494
  416EOH      C 1667   2.000   0.615   2.375
  416EOH      C 1668   2.085   0.570   2.256
  416EOH      H 1669   1.986   0.499   2.524
  417EOH      O 1670   1.358   3.803   2.801
  417EOH      C 1671   1.252   3.878   2.740
  417EOH      C 1672   1.276   3.893   2.588
  417EOH      H 1673   1.431   3.858   2.825
  418EOH      O 1674   3.396   3.331   0.017
  418EOH      C 1675   3.517   3.356   0.089
  418EOH      C 1676   3.632   3.360   4.685
  418EOH      H 1677   3.360   3.409   4.673
  419EOH      O 1678   4.661   2.233   4.366
  419EOH      C 1679   4.618   2.182   4.493
  419EOH      C 1680   4.533   2.281   4.574
  419EOH      H 1681   4.575   2.249   4.331
  420EOH      O 1682   1.493   1.592   1.619
  420EOH      C 1683   1.635   1.584   1.607
  420EOH      C 1684   1.681   1.438   1.599
  420EOH      H 1685   1.478   1.666   1.676
  421EOH      O 1686   1.370   3.060   3.267
  421EOH      C 1687   1.403   3.194   3.303
  421EOH      C 1688   1.530   3.249   3.234
  421EOH      H 1689   1.411   3.002   3.330
  422EOH      O 1690   4.216   1.942   2.478
  422EOH      C 1691   4.124   1.964   2.371
  422EOH      C 1692   4.205   1.989   2.242
  422EOH      H 1693   4.286   1.888   2.444
  423EOH      O 1694   1.419   3.061   1.254
  423EOH      C 1695   1.462   2.937   1.197
  423EOH      C 1696   1.611   2.949   1.160
  423EOH      H 1697   1.376   3.113   1.188
  424EOH      O 1698   1.368   1.582   2.999
  424EOH      C 1699   1.424   1.668   2.900
  424EOH      C 1700   1.327   1.766   2.832
  424EOH      H 1701   1.421   1.504   3.007
  425EOH      O 1702   3.531   0.504   3.440
  425EOH      C 1703   3.638   0.515   3.345
  425EOH      C 1704   3.630   0.422   3.223
  425EOH      H 1705   3.542   0.561   3.515
  426EOH      O 1706   3.974   3.803   1.003
  426EOH      C 1707   3.860   3.858   0.935
  426EOH      C 1708   3.905   3.916   0.800
  426EOH      H 1709   3.936   3.769   1.082
  427EOH      O 1710   2.839   0.611   2.518
  427EOH      C 1711   2.748   0.680   2.603
  427EOH      C 1712   2.792   0.678   2.751
  427EOH      H 1713   2.792   0.577   2.443
  428EOH      O 1714   4.595   1.066   0.250
  428EOH      C 1715   4.486   1.079   0.342
  428EOH      C 1716   4.508   1.013   0.479
  428EOH      H 1717   4.628   1.150   0.222
  429EOH      O 1718   1.271   1.307   1.836
  429EOH      C 1719   1.243   1.412   1.928
  429EOH      C 1720   1.095   1.454   1.930
  429EOH      H 1721   1.265   1.342   1.748
  430EOH      O 1722   2.460   1.757   2.330
  430EOH      C 1723   2.503   1.891   2.358
  430EOH      C 1724   2.411   2.000   2.299
  430EOH      H 1725   2.460   1.750   2.236
  431EOH      O 1726   3.369   2.313   2.901
  431EOH      C 1727   3.232   2.279   2.921
  431EOH      C 1728   3.204   2.249   3.070
  431EOH      H 1729   3.412   2.233   2.927
  432EOH      O 1730   3.395   2.954   4.186
  432EOH      C 1731   3.482   2.851   4.137
  432EOH      C 1732   3.395   2.740   4.074
  432EOH      H 1733   3.381   3.025   4.125
  433EOH      O 1734   1.521   1.589   4.268
  433EOH      C 1735   1.648   1.628   4.215
  433EOH      C 1736   1.756   1.619   4.325
  433EOH      H 1737   1.447   1.620   4.218
  434EOH      O 1738   4.061   1.045   3.050
  434EOH      C 1739   4.095   1.116   3.169
  434EOH      C 1740   4.005   1.069   3.285
  434EOH      H 1741   3.970   1.064   3.036
  435EOH      O 1742   0.598   3.360   2.475
  435EOH      C 1743   0.555   3.323   2.344
  435EOH      C 1744   0.549   3.432   2.235
  435EOH      H 1745   0.540   3.428   2.502
  436EOH      O 1746   1.867   2.681   1.753
  436EOH      C 1747   1.817   2.548   1.733
  436EOH      C 1748   1.665   2.554   1.710
  436EOH      H 1749   1.847   2.740   1.682
  437EOH      O 1750   0.235   1.394   2.774
  437EOH      C 1751   0.146   1.505   2.752
  437EOH      C 1752   0.232   1.605   2.673
  437EOH      H 1753   0.186   1.329   2.822
  438EOH      O 1754   4.528   2.219   3.119
  438EOH      C 1755   4.502   2.265   2.986
  438EOH      C 1756   4.499   2.418   2.978
  438EOH      H 1757   4.614   2.249   3.144
  439EOH      O 1758   3.041   0.487   2.584
  439EOH      C 1759   2.997   0.355   2.618
  439EOH      C 1760   3.117   0.261   2.595
  439EOH      H 1761   2.963   0.536   2.561
  440EOH      O 1762   1.068   0.568   3.044
  440EOH      C 1763   1.071   0.493   2.923
  440EOH      C 1764   1.181   0.535   2.823
  440EOH      H 1765   1.134   0.527   3.098
  441EOH      O 1766   2.090   4.383   4.606
  441EOH      C 1767   2.068   4.350   4.469
  441EOH      C 1768   1.917   4.373   4.452
  441EOH      H 1769   2.091   4.477   4.595
  442EOH      O 1770   3.043   1.114   3.213
  442EOH      C 1771   2.956   1.068   3.109
  442EOH      C 1772   2.813   1.080   3.167
  442EOH      H 1773   3.033   1.053   3.284
  443EOH      O 1774   2.067   2.119   3.558
  443EOH      C 1775   2.076   2.077   3.422
  443EOH      C 1776   2.223   2.079   3.379
  443EOH      H 1777   1.977   2.143   3.577
  444EOH      O 1778   0.245   3.738   3.449
  444EOH      C 1779   0.287   3.604   3.475
  444EOH      C 1780   0.290   3.528   3.341
  444EOH      H 1781   0.329   3.781   3.439
  445EOH      O 1782   3.724   0.965   0.428
  445EOH      C 1783   3.661   0.964   0.300
  445EOH      C 1784   3.693   0.846   0.206
  445EOH      H 1785   3.736   0.879   0.466
  446EOH      O 1786   4.403   0.687   0.137
  446EOH      C 1787   4.509   0.673   0.233
  446EOH      C 1788   4.470   0.559   0.328
  446EOH      H 1789   4.435   0.653   0.054
  447EOH      O 1790   3.195   3.166   0.068
  447EOH      C 1791   3.244   3.042   0.121
  447EOH      C 1792   3.261   3.050   0.274
  447EOH      H 1793   3.265   3.228   0.061
  448EOH      O 1794   1.827   2.471   4.182
  448EOH      C 1795   1.882   2.535   4.066
  448EOH      C 1796   1.849   2.684   4.089
  448EOH      H 1797   1.734   2.461   4.167
  449EOH      O 1798   4.593   4.403   0.228
  449EOH      C 1799   4.533   4.503   0.145
  449EOH      C 1800   4.548   4.471   4.692
  449EOH      H 1801   4.535   4.330   0.213
  450EOH      O 1802   2.945   2.248   3.979
  450EOH      C 1803   2.994   2.367   3.917
  450EOH      C 1804   3.147   2.358   3.908
  450EOH      H 1805   2.952   2.172   3.924
  451EOH      O 1806   0.337   4.142   4.594
  451EOH      C 1807   0.218   4.221   4.606
  451EOH      C 1808   0.254   4.371   4.614
  451EOH      H 1809   0.318   4.053   4.571
  452EOH      O 1810   3.523   1.893   4.693
  452EOH      C 1811   3.410   1.929   0.075
  452EOH      C 1812   3.461   1.906   0.219
  452EOH      H 1813   3.581   1.839   0.047
  453EOH      O 1814   0.665   4.590   3.386
  453EOH      C 1815   0.656   0.021   3.447
  453EOH      C 1816   0.797   0.073   3.480
  453EOH      H 1817   0.575   4.563   3.372
  454EOH      O 1818   3.854   2.598   3.146
  454EOH      C 1819   3.881   2.540   3.274
  454EOH      C 1820   4.029   2.552   3.316
  454EOH      H 1821   3.762   2.587   3.127
  455EOH      O 1822   0.040   1.976   2.934
  455EOH      C 1823   4.670   1.943   2.813
  455EOH      C 1824   4.645   1.791   2.815
  455EOH      H 1825   4.680   1.969   3.009
  456EOH      O 1826   3.777   2.474   4.652
  456EOH      C 1827   3.761   2.517   4.517
  456EOH      C 1828   3.712   2.662   4.507
  456EOH      H 1829   3.696   2.475   0.003
  457EOH      O 1830   1.200   3.752   3.662
  457EOH      C 1831   1.113   3.661   3.729
  457EOH      C 1832   1.085   3.726   3.866
  457EOH      H 1833   1.207   3.730   3.570
  458EOH      O 1834   3.618   3.152   3.362
  458EOH      C 1835   3.602   3.072   3.245
  458EOH      C 1836   3.682   3.133   3.128
  458EOH      H 1837   3.620   3.102   3.442
  459EOH      O 1838   2.679   3.046   0.987
  459EOH      C 1839   2.691   2.924   0.915
  459EOH      C 1840   2.836   2.870   0.925
  459EOH      H 1841   2.615   3.102   0.946
  460EOH      O 1842   3.615   0.072   0.210
  460EOH      C 1843   3.592   4.653   0.290
  460EOH      C 1844   3.671   4.665   0.422
  460EOH      H 1845   3.580   0.142   0.262
  461EOH      O 1846   4.399   1.140   2.659
  461EOH      C 1847   4.423   1.126   2.519
  461EOH      C 1848   4.476   1.261   2.468
  461EOH      H 1849   4.418   1.068   2.717
  462EOH      O 1850   0.910   4.338   0.196
  462EOH      C 1851   0.890   4.390   0.064
  462EOH      C 1852   0.923   4.290   4.649
  462EOH      H 1853   0.825   4.336   0.237
  463EOH      O 1854   2.170   3.256   3.665
  463EOH      C 1855   2.230   3.193   3.779
  463EOH      C 1856   2.131   3.183   3.897
  463EOH      H 1857   2.202   3.209   3.590
  464EOH      O 1858   1.727   3.252   3.763
  464EOH      C 1859   1.776   3.118   3.770
  464EOH      C 1860   1.794   3.058   3.629
  464EOH      H 1861   1.783   3.301   3.705
  465EOH      O 1862   1.647   1.978   3.536
  465EOH      C 1863   1.639   1.839   3.570
  465EOH      C 1864   1.610   1.831   3.721
  465EOH      H 1865   1.623   1.984   3.445
  466EOH      O 1866   0.787   2.817   1.931
  466EOH      C 1867   0.822   2.855   1.798
  466EOH      C 1868   0.959   2.788   1.776
  466EOH      H 1869   0.749   2.731   1.924
  467EOH      O 1870   0.717   0.160   0.692
  467EOH      C 1871   0.642   0.067   0.615
  467EOH      C 1872   0.492   0.088   0.645
  467EOH      H 1873   0.685   0.244   0.663
  468EOH      O 1874   3.911   1.441   1.448
  468EOH      C 1875   3.952   1.340   1.540
  468EOH      C 1876   3.975   1.215   1.454
  468EOH      H 1877   3.861   1.500   1.503
  469EOH      O 1878   2.598   3.160   0.576
  469EOH      C 1879   2.535   3.157   0.447
  469EOH      C 1880   2.568   3.289   0.374
  469EOH      H 1881   2.684   3.120   0.572
  470EOH      O 1882   4.237   0.006   3.831
  470EOH      C 1883   4.146   0.117   3.834
  470EOH      C 1884   4.204   0.204   3.947
  470EOH      H 1885   4.314   0.035   3.785
  471EOH      O 1886   0.460   0.990   4.524
  471EOH      C 1887   0.500   0.918   4.640
  471EOH      C 1888   0.609   1.002   0.013
  471EOH      H 1889   0.473   1.082   4.543
  472EOH      O 1890   3.801   2.487   2.330
  472EOH      C 1891   3.805   2.619   2.386
  472EOH      C 1892   3.890   2.702   2.288
  472EOH      H 1893   3.888   2.452   2.344
  473EOH      O 1894   2.575   1.124   2.659
  473EOH      C 1895   2.514   1.215   2.752
  473EOH      C 1896   2.532   1.356   2.695
  473EOH      H 1897   2.662   1.150   2.635
  474EOH      O 1898   0.515   0.920   4.274
  474EOH      C 1899   0.657   0.935   4.265
  474EOH      C 1900   0.725   0.797   4.276
  474EOH      H 1901   0.499   0.949   4.363
  475EOH      O 1902   3.911   2.886   3.503
  475EOH      C 1903   3.990   3.002   3.476
  475EOH      C 1904   3.988   3.047   3.328
  475EOH      H 1905   3.930   2.854   3.589
  476EOH      O 1906   1.558   0.173   2.034
  476EOH      C 1907   1.508   0.159   1.901
  476EOH      C 1908   1.519   0.297   1.833
  476EOH      H 1909   1.509   0.133   2.104
  477EOH      O 1910   2.232   2.739   1.249
  477EOH      C 1911   2.346   2.655   1.232
  477EOH      C 1912   2.347   2.597   1.089
  477EOH      H 1913   2.151   2.708   1.212
  478EOH      O 1914   1.217   1.745   0.273
  478EOH      C 1915   1.349   1.756   0.326
  478EOH      C 1916   1.326   1.677   0.457
  478EOH      H 1917   1.229   1.778   0.185
  479EOH      O 1918   2.809   2.864   1.277
  479EOH      C 1919   2.922   2.939   1.323
  479EOH      C 1920   3.031   2.833   1.344
  479EOH      H 1921   2.730   2.914   1.264
  480EOH      O 1922   1.664   0.294   3.075
  480EOH      C 1923   1.701   0.422   3.023
  480EOH      C 1924   1.608   0.536   3.068
  480EOH      H 1925   1.736   0.233   3.074
  481EOH      O 1926   1.512   1.516   0.971
  481EOH      C 1927   1.586   1.400   1.010
  481EOH      C 1928   1.737   1.430   1.024
  481EOH      H 1929   1.420   1.501   0.980
  482EOH      O 1930   2.176   3.068   2.305
  482EOH      C 1931   2.287   2.995   2.357
  482EOH      C 1932   2.305   2.862   2.280
  482EOH      H 1933   2.172   3.156   2.341
  483EOH      O 1934   1.825   3.811   4.526
  483EOH      C 1935   1.884   3.876   4.413
  483EOH      C 1936   2.026   3.931   4.437
  483EOH      H 1937   1.733   3.817   4.503
  484EOH      O 1938   0.233   2.956   0.046
  484EOH      C 1939   0.110   2.937   0.117
  484EOH      C 1940   0.074   2.787   0.120
  484EOH      H 1941   0.277   3.040   0.053
  485EOH      O 1942   0.879   1.080   2.119
  485EOH      C 1943   0.794   1.195   2.127
  485EOH      C 1944   0.746   1.220   2.271
  485EOH      H 1945   0.831   1.005   2.152
  486EOH      O 1946   0.129   1.000   0.326
  486EOH      C 1947   0.151   0.862   0.295
  486EOH      C 1948   0.191   0.868   0.146
  486EOH      H 1949   0.057   1.032   0.273
  487EOH      O 1950   2.711   0.500   3.472
  487EOH      C 1951   2.747   0.388   3.389
  487EOH      C 1952   2.804   0.282   3.486
  487EOH      H 1953   2.617   0.510   3.477
  488EOH      O 1954   3.253   1.791   2.504
  488EOH      C 1955   3.148   1.698   2.532
  488EOH      C 1956   3.008   1.760   2.519
  488EOH      H 1957   3.335   1.745   2.515
  489EOH      O 1958   3.355   0.216   2.239
  489EOH      C 1959   3.334   0.330   2.323
  489EOH      C 1960   3.469   0.382   2.374
  489EOH      H 1961   3.275   0.205   2.191
  490EOH      O 1962   0.529   1.575   3.018
  490EOH      C 1963   0.528   1.462   2.931
  490EOH      C 1964   0.529   1.338   3.022
  490EOH      H 1965   0.468   1.563   3.090
  491EOH      O 1966   1.424   1.764   1.768
  491EOH      C 1967   1.508   1.786   1.881
  491EOH      C 1968   1.570   1.927   1.876
  491EOH      H 1969   1.345   1.816   1.774
  492EOH      O 1970   2.956   4.289   1.151
  492EOH      C 1971   2.937   4.292   1.293
  492EOH      C 1972   2.914   4.148   1.343
  492EOH      H 1973   2.966   4.376   1.115
  493EOH      O 1974   0.104   3.786   3.679
  493EOH      C 1975   0.087   3.928   3.675
  493EOH      C 1976   0.226   3.994   3.686
  493EOH      H 1977   0.152   3.768   3.600
  494EOH      O 1978   0.856   2.280   0.513
  494EOH      C 1979   0.726   2.258   0.568
  494EOH      C 1980   0.743   2.321   0.707
  494EOH      H 1981   0.878   2.209   0.454
  495EOH      O 1982   2.907   0.675   3.559
  495EOH      C 1983   2.872   0.693   3.696
  495EOH      C 1984   2.995   0.721   3.784
  495EOH      H 1985   2.864   0.597   3.529
  496EOH      O 1986   2.201   1.497   1.321
  496EOH      C 1987   2.095   1.401   1.311
  496EOH      C 1988   2.086   1.361   1.163
  496EOH      H 1989   2.175   1.582   1.352
  497EOH      O 1990   4.463   3.333   0.062
  497EOH      C 1991   4.515   3.362   4.630
  497EOH      C 1992   4.562   3.508   4.625
  497EOH      H 1993   4.371   3.334   0.045
  498EOH      O 1994   1.080   0.828   1.534
  498EOH      C 1995   1.138   0.917   1.438
  498EOH      C 1996   1.080   1.053   1.479
  498EOH      H 1997   1.094   0.848   1.626
  499EOH      O 1998   1.170   1.424   2.925
  499EOH      C 1999   1.071   1.454   3.024
  499EOH      C 2000   0.940   1.392   2.971
  499EOH      H 2001   1.236   1.491   2.925
  500EOH      O 2002   2.979   0.992   4.579
  500EOH      C 2003   3.092   0.905   4.567
  500EOH      C 2004   3.209   0.990   4.516
  500EOH      H 2005   2.928   0.963   4.653
  501EOH      O 2006   2.340   0.510   3.004
  501EOH      C 2007   2.454   0.459   3.072
  501EOH      C 2008   2.553   0.577   3.081
  501EOH      H 2009   2.343   0.465   2.921
  502EOH      O 2010   0.058   1.252   0.148
  502EOH      C 2011   0.180   1.221   0.080
  502EOH      C 2012   0.165   1.241   4.626
  502EOH      H 2013   0.075   1.332   0.196
  503EOH      O 2014   3.862   3.630   1.639
  503EOH      C 2015   3.763   3.666   1.736
  503EOH      C 2016   3.835   3.766   1.829
  503EOH      H 2017   3.881   3.537   1.644
  504EOH      O 2018   3.035   1.239   2.140
  504EOH      C 2019   3.146   1.175   2.076
  504EOH      C 2020   3.105   1.051   1.994
  504EOH      H 2021   3.002   1.299   2.075
  505EOH      O 2022   4.537   2.589   3.631
  505EOH      C 2023   4.677   2.608   3.608
  505EOH      C 2024   0.062   2.627   3.736
  505EOH      H 2025   4.522   2.501   3.662
  506EOH      O 2026   0.732   3.549   0.004
  506EOH      C 2027   0.601   3.521   0.053
  506EOH      C 2028   0.579   3.369   0.048
  506EOH      H 2029   0.727   3.591   4.617
  507EOH      O 2030   0.796   1.587   3.304
  507EOH      C 2031   0.745   1.457   3.335
  507EOH      C 2032   0.621   1.497   3.416
  507EOH      H 2033   0.769   1.611   3.217
  508EOH      O 2034   0.705   2.595   1.902
  508EOH      C 2035   0.735   2.481   1.821
  508EOH      C 2036   0.760   2.355   1.904
  508EOH      H 2037   0.628   2.577   1.953
  509EOH      O 2038   3.466   1.473   0.445
  509EOH      C 2039   3.587   1.547   0.466
  509EOH      C 2040   3.697   1.440   0.477
  509EOH      H 2041   3.441   1.439   0.530
  510EOH      O 2042   1.594   3.769   4.438
  510EOH      C 2043   1.464   3.750   4.493
  510EOH      C 2044   1.441   3.753   4.646
  510EOH      H 2045   1.596   3.799   4.348
  511EOH      O 2046   0.418   4.684   1.196
  511EOH      C 2047   0.445   0.002   1.056
  511EOH      C 2048   0.581   4.654   1.000
  511EOH      H 2049   0.388   4.595   1.211
  512EOH      O 2050   0.033   4.315   3.981
  512EOH      C 2051   0.074   4.188   4.031
  512EOH      C 2052   0.209   4.189   4.106
  512EOH      H 2053   4.644   4.308   3.943
  513EOH      O 2054   0.781   3.626   4.461
  513EOH      C 2055   0.910   3.685   4.479
  513EOH      C 2056   0.944   3.799   4.382
  513EOH      H 2057   0.777   3.592   4.373
  514EOH      O 2058   2.769   2.301   2.390
  514EOH      C 2059   2.821   2.251   2.266
  514EOH      C 2060   2.782   2.347   2.152
  514EOH      H 2061   2.807   2.265   2.469
  515EOH      O 2062   4.301   0.529   0.881
  515EOH      C 2063   4.386   0.425   0.931
  515EOH      C 2064   4.503   0.388   0.839
  515EOH      H 2065   4.232   0.533   0.946
  516EOH      O 2066   2.347   3.759   2.270
  516EOH      C 2067   2.361   3.857   2.373
  516EOH      C 2068   2.248   3.859   2.478
  516EOH      H 2069   2.385   3.797   2.192
  517EOH      O 2070   2.004   3.403   0.603
  517EOH      C 2071   2.039   3.374   0.738
  517EOH      C 2072   1.953   3.428   0.853
  517EOH      H 2073   1.911   3.387   0.607
  518EOH      O 2074   2.444   1.447   1.323
  518EOH      C 2075   2.504   1.501   1.440
  518EOH      C 2076   2.653   1.537   1.421
  518EOH      H 2077   2.351   1.463   1.327
  519EOH      O 2078   1.134   4.365   0.302
  519EOH      C 2079   1.213   4.446   0.215
  519EOH      C 2080   1.338   4.498   0.288
  519EOH      H 2081   1.055   4.340   0.256
  520EOH      O 2082   0.082   4.302   2.934
  520EOH      C 2083   0.117   4.376   3.051
  520EOH      C 2084   0.212   4.496   3.036
  520EOH      H 2085   0.123   4.217   2.944
  521EOH      O 2086   4.344   2.223   3.480
  521EOH      C 2087   4.283   2.302   3.379
  521EOH      C 2088   4.191   2.229   3.279
  521EOH      H 2089   4.410   2.271   3.527
  522EOH      O 2090   2.954   2.993   3.444
  522EOH      C 2091   3.032   3.104   3.396
  522EOH      C 2092   3.135   3.136   3.506
  522EOH      H 2093   2.983   2.912   3.406
  523EOH      O 2094   1.047   1.135   3.780
  523EOH      C 2095   0.939   1.050   3.741
  523EOH      C 2096   0.861   0.992   3.861
  523EOH      H 2097   1.095   1.153   3.700
  524EOH      O 2098   4.568   0.158   4.438
  524EOH      C 2099   4.547   0.027   4.385
  524EOH      C 2100   4.450   0.029   4.265
  524EOH      H 2101   4.634   0.157   4.505
  525EOH      O 2102   2.513   2.235   2.481
  525EOH      C 2103   2.478   2.284   2.611
  525EOH      C 2104   2.348   2.215   2.658
  525EOH      H 2105   2.602   2.256   2.458
  526EOH      O 2106   2.653   3.711   1.956
  526EOH      C 2107   2.686   3.639   2.076
  526EOH      C 2108   2.812   3.696   2.142
  526EOH      H 2109   2.695   3.669   1.882
  527EOH      O 2110   1.885   0.379   2.563
  527EOH      C 2111   1.760   0.386   2.633
  527EOH      C 2112   1.656   0.411   2.522
  527EOH      H 2113   1.901   0.296   2.523
  528EOH      O 2114   3.819   2.792   1.180
  528EOH      C 2115   3.779   2.928   1.197
  528EOH      C 2116   3.781   3.006   1.064
  528EOH      H 2117   3.865   2.755   1.255
  529EOH      O 2118   0.528   4.054   0.097
  529EOH      C 2119   0.620   3.994   0.005
  529EOH      C 2120   0.730   3.922   0.086
  529EOH      H 2121   0.469   4.098   0.037
  530EOH      O 2122   0.468   1.287   4.521
  530EOH      C 2123   0.554   1.391   4.569
  530EOH      C 2124   0.570   1.393   0.025
  530EOH      H 2125   0.415   1.325   4.453
  531EOH      O 2126   3.322   2.961   4.435
  531EOH      C 2127   3.374   3.079   4.498
  531EOH      C 2128   3.526   3.089   4.472
  531EOH      H 2129   3.340   2.962   4.342
  532EOH      O 2130   0.425   2.872   4.622
  532EOH      C 2131   0.459   2.739   4.660
  532EOH      C 2132   0.612   2.727   4.669
  532EOH      H 2133   0.344   2.901   4.661
  533EOH      O 2134   1.976   2.735   2.337
  533EOH      C 2135   1.919   2.640   2.246
  533EOH      C 2136   2.014   2.518   2.252
  533EOH      H 2137   1.959   2.816   2.291
  534EOH      O 2138   1.739   3.424   0.591
  534EOH      C 2139   1.626   3.342   0.562
  534EOH      C 2140   1.677   3.198   0.545
  534EOH      H 2141   1.709   3.510   0.616
  535EOH      O 2142   0.100   0.783   4.164
  535EOH      C 2143   0.140   0.887   4.254
  535EOH      C 2144   0.024   0.988   4.247
  535EOH      H 2145   0.166   0.715   4.172
  536EOH      O 2146   4.226   1.093   4.415
  536EOH      C 2147   4.358   1.082   4.470
  536EOH      C 2148   4.366   1.005   4.604
  536EOH      H 2149   4.221   1.017   4.359
  537EOH      O 2150   2.868   0.969   0.574
  537EOH      C 2151   2.766   0.935   0.668
  537EOH      C 2152   2.634   1.003   0.628
  537EOH      H 2153   2.949   0.939   0.613
  538EOH      O 2154   3.469   1.647   2.498
  538EOH      C 2155   3.555   1.576   2.588
  538EOH      C 2156   3.592   1.438   2.532
  538EOH      H 2157   3.521   1.674   2.423
  539EOH      O 2158   3.135   3.481   3.613
  539EOH      C 2159   3.047   3.440   3.717
  539EOH      C 2160   2.987   3.559   3.796
  539EOH      H 2161   3.074   3.505   3.545
  540EOH      O 2162   3.858   1.641   1.654
  540EOH      C 2163   3.975   1.718   1.685
  540EOH      C 2164   4.098   1.631   1.657
  540EOH      H 2165   3.784   1.685   1.692
  541EOH      O 2166   0.987   1.619   0.193
  541EOH      C 2167   1.005   1.477   0.201
  541EOH      C 2168   1.010   1.430   0.348
  541EOH      H 2169   1.075   1.649   0.214
  542EOH      O 2170   3.872   1.393   3.451
  542EOH      C 2171   3.739   1.340   3.443
  542EOH      C 2172   3.650   1.402   3.334
  542EOH      H 2173   3.858   1.480   3.485
  543EOH      O 2174   1.177   4.519   3.717
  543EOH      C 2175   1.220   4.543   3.583
  543EOH      C 2176   1.372   4.520   3.579
  543EOH      H 2177   1.094   4.561   3.730
  544EOH      O 2178   2.533   0.221   4.158
  544EOH      C 2179   2.516   0.262   4.294
  544EOH      C 2180   2.542   0.413   4.310
  544EOH      H 2181   2.619   0.184   4.149
  545EOH      O 2182   3.553   3.851   4.497
  545EOH      C 2183   3.684   3.798   4.522
  545EOH      C 2184   3.705   3.664   4.450
  545EOH      H 2185   3.560   3.853   4.403
  546EOH      O 2186   1.467   2.628   2.901
  546EOH      C 2187   1.480   2.497   2.956
  546EOH      C 2188   1.633   2.487   2.971
  546EOH      H 2189   1.380   2.653   2.872
  547EOH      O 2190   0.215   1.682   4.071
  547EOH      C 2191   0.271   1.714   3.944
  547EOH      C 2192   0.193   1.826   3.871
  547EOH      H 2193   0.125   1.652   4.064
  548EOH      O 2194   2.224   3.667   0.315
  548EOH      C 2195   2.174   3.641   0.446
  548EOH      C 2196   2.274   3.552   0.521
  548EOH      H 2197   2.156   3.712   0.267
  549EOH      O 2198   2.956   3.597   2.620
  549EOH      C 2199   3.020   3.621   2.494
  549EOH      C 2200   3.079   3.763   2.481
  549EOH      H 2201   2.871   3.638   2.613
  550EOH      O 2202   0.332   4.535   2.296
  550EOH      C 2203   0.458   4.490   2.347
  550EOH      C 2204   0.461   4.430   2.489
  550EOH      H 2205   0.301   4.613   2.339
  551EOH      O 2206   0.462   2.244   3.722
  551EOH      C 2207   0.415   2.115   3.680
  551EOH      C 2208   0.446   2.101   3.529
  551EOH      H 2209   0.398   2.281   3.780
  552EOH      O 2210   0.400   2.766   1.089
  552EOH      C 2211   0.308   2.706   1.180
  552EOH      C 2212   0.293   2.772   1.319
  552EOH      H 2213   0.383   2.724   1.006
  553EOH      O 2214   3.833   0.643   1.873
  553EOH      C 2215   3.864   0.577   1.749
  553EOH      C 2216   3.830   0.427   1.752
  553EOH      H 2217   3.778   0.715   1.849
  554EOH      O 2218   1.862   1.954   2.836
  554EOH      C 2219   1.857   1.816   2.874
  554EOH      C 2220   1.806   1.743   2.748
  554EOH      H 2221   1.927   2.003   2.884
  555EOH      O 2222   0.351   4.442   1.234
  555EOH      C 2223   0.398   4.341   1.324
  555EOH      C 2224   0.538   4.287   1.287
  555EOH      H 2225   0.261   4.455   1.261
  556EOH      O 2226   2.079   0.741   3.319
  556EOH      C 2227   1.975   0.669   3.387
  556EOH      C 2228   1.976   0.530   3.321
  556EOH      H 2229   2.090   0.713   3.230
  557EOH      O 2230   3.236   3.483   4.592
  557EOH      C 2231   3.163   3.467   4.470
  557EOH      C 2232   3.038   3.557   4.482
  557EOH      H 2233   3.259   3.573   4.609
  558EOH      O 2234   2.089   0.323   4.409
  558EOH      C 2235   2.158   0.375   4.295
  558EOH      C 2236   2.074   0.464   4.201
  558EOH      H 2237   2.102   0.394   4.470
  559EOH      O 2238   4.365   0.112   3.475
  559EOH      C 2239   4.243   0.185   3.462
  559EOH      C 2240   4.180   0.127   3.334
  559EOH      H 2241   4.419   0.170   3.424
  560EOH      O 2242   4.147   3.946   3.787
  560EOH      C 2243   4.157   4.089   3.793
  560EOH      C 2244   4.043   4.136   3.885
  560EOH      H 2245   4.164   3.910   3.872
  561EOH      O 2246   0.463   2.164   4.285
  561EOH      C 2247   0.595   2.206   4.320
  561EOH      C 2248   0.652   2.292   4.206
  561EOH      H 2249   0.415   2.142   4.364
  562EOH      O 2250   4.568   3.697   1.982
  562EOH      C 2251   4.609   3.628   1.863
  562EOH      C 2252   4.571   3.704   1.734
  562EOH      H 2253   4.608   3.782   1.994
  563EOH      O 2254   3.230   3.963   1.907
  563EOH      C 2255   3.167   3.958   2.035
  563EOH      C 2256   3.252   3.862   2.121
  563EOH      H 2257   3.320   3.990   1.919
  564EOH      O 2258   4.367   2.559   0.147
  564EOH      C 2259   4.447   2.502   0.251
  564EOH      C 2260   4.413   2.578   0.381
  564EOH      H 2261   4.281   2.525   0.167
  565EOH      O 2262   2.259   2.327   3.552
  565EOH      C 2263   2.199   2.450   3.591
  565EOH      C 2264   2.245   2.464   3.738
  565EOH      H 2265   2.228   2.262   3.614
  566EOH      O 2266   2.214   4.310   1.530
  566EOH      C 2267   2.149   4.183   1.519
  566EOH      C 2268   2.084   4.158   1.656
  566EOH      H 2269   2.296   4.305   1.483
  567EOH      O 2270   0.248   4.349   2.118
  567EOH      C 2271   0.238   4.392   1.983
  567EOH      C 2272   0.383   4.368   1.937
  567EOH      H 2273   0.268   4.423   2.173
  568EOH      O 2274   4.451   4.337   1.214
  568EOH      C 2275   4.499   4.210   1.258
  568EOH      C 2276   4.605   4.217   1.369
  568EOH      H 2277   4.386   4.316   1.149
  569EOH      O 2278   0.301   3.184   4.625
  569EOH      C 2279   0.216   3.297   4.605
  569EOH      C 2280   0.211   3.358   0.049
  569EOH      H 2281   0.329   3.161   4.537
  570EOH      O 2282   1.936   2.959   2.245
  570EOH      C 2283   1.876   3.005   2.124
  570EOH      C 2284   1.944   2.928   2.009
  570EOH      H 2285   2.016   3.002   2.269
  571EOH      O 2286   3.167   2.083   1.573
  571EOH      C 2287   3.203   2.089   1.711
  571EOH      C 2288   3.345   2.146   1.727
  571EOH      H 2289   3.177   2.169   1.534
  572EOH      O 2290   2.183   2.743   4.115
  572EOH      C 2291   2.167   2.822   4.234
  572EOH      C 2292   2.186   2.969   4.193
  572EOH      H 2293   2.192   2.651   4.135
  573EOH      O 2294   1.488   0.512   0.137
  573EOH      C 2295   1.514   0.645   0.184
  573EOH      C 2296   1.473   0.654   0.332
  573EOH      H 2297   1.508   0.446   0.202
  574EOH      O 2298   2.740   0.314   4.641
  574EOH      C 2299   2.623   0.236   4.665
  574EOH      C 2300   2.584   0.251   0.116
  574EOH      H 2301   2.726   0.408   4.644
  575EOH      O 2302   0.614   3.862   0.750
  575EOH      C 2303   0.523   3.827   0.646
  575EOH      C 2304   0.518   3.935   0.536
  575EOH      H 2305   0.565   3.901   0.819
  576EOH      O 2306   3.966   2.106   3.654
  576EOH      C 2307   3.920   2.140   3.786
  576EOH      C 2308   3.990   2.055   3.894
  576EOH      H 2309   4.055   2.076   3.647
  577EOH      O 2310   4.161   1.143   0.980
  577EOH      C 2311   4.030   1.158   1.035
  577EOH      C 2312   3.996   1.022   1.097
  577EOH      H 2313   4.198   1.226   0.953
  578EOH      O 2314   0.814   0.479   2.326
  578EOH      C 2315   0.715   0.464   2.428
  578EOH      C 2316   0.771   0.501   2.566
  578EOH      H 2317   0.803   0.410   2.262
  579EOH      O 2318   1.645   3.521   4.178
  579EOH      C 2319   1.660   3.437   4.293
  579EOH      C 2320   1.790   3.356   4.277
  579EOH      H 2321   1.584   3.484   4.116
  580EOH      O 2322   1.568   2.433   4.153
  580EOH      C 2323   1.522   2.314   4.088
  580EOH      C 2324   1.521   2.191   4.180
  580EOH      H 2325   1.492   2.486   4.172
  581EOH      O 2326   2.239   3.673   3.141
  581EOH      C 2327   2.194   3.774   3.232
  581EOH      C 2328   2.303   3.829   3.327
  581EOH      H 2329   2.290   3.717   3.076
  582EOH      O 2330   1.394   4.015   1.574
  582EOH      C 2331   1.266   4.037   1.513
  582EOH      C 2332   1.231   4.185   1.491
  582EOH      H 2333   1.437   3.976   1.500
  583EOH      O 2334   0.196   3.453   2.482
  583EOH      C 2335   0.082   3.483   2.401
  583EOH      C 2336   4.640   3.463   2.464
  583EOH      H 2337   0.208   3.360   2.489
  584EOH      O 2338   2.254   3.998   0.966
  584EOH      C 2339   2.298   4.116   1.034
  584EOH      C 2340   2.189   4.216   1.078
  584EOH      H 2341   2.331   3.944   0.955
  585EOH      O 2342   4.230   4.301   1.086
  585EOH      C 2343   4.145   4.191   1.120
  585EOH      C 2344   4.132   4.110   0.989
  585EOH      H 2345   4.185   4.352   1.021
  586EOH      O 2346   4.138   1.843   0.744
  586EOH      C 2347   4.131   1.759   0.859
  586EOH      C 2348   4.167   1.619   0.805
  586EOH      H 2349   4.167   1.928   0.773
  587EOH      O 2350   0.064   0.236   1.698
  587EOH      C 2351   4.654   0.201   1.611
  587EOH      C 2352   4.518   0.264   1.642
  587EOH      H 2353   0.079   0.329   1.691
  588EOH      O 2354   2.713   4.255   3.298
  588EOH      C 2355   2.617   4.358   3.321
  588EOH      C 2356   2.593   4.366   3.473
  588EOH      H 2357   2.785   4.295   3.252
  589EOH      O 2358   2.564   2.649   3.090
  589EOH      C 2359   2.453   2.646   3.000
  589EOH      C 2360   2.392   2.507   3.019
  589EOH      H 2361   2.568   2.735   3.128
  590EOH      O 2362   3.098   0.884   0.623
  590EOH      C 2363   3.215   0.966   0.626
  590EOH      C 2364   3.289   0.927   0.497
  590EOH      H 2365   3.112   0.803   0.577
  591EOH      O 2366   3.260   0.788   1.266
  591EOH      C 2367   3.122   0.819   1.251
  591EOH      C 2368   3.104   0.881   1.112
  591EOH      H 2369   3.282   0.782   1.358
  592EOH      O 2370   3.972   3.413   1.721
  592EOH      C 2371   4.094   3.348   1.686
  592EOH      C 2372   4.200   3.365   1.797
  592EOH      H 2373   3.945   3.383   1.807
  593EOH      O 2374   4.597   3.811   3.106
  593EOH      C 2375   4.695   3.838   3.206
  593EOH      C 2376   4.649   3.926   3.324
  593EOH      H 2377   4.631   3.834   3.020
  594EOH      O 2378   1.512   4.029   1.793
  594EOH      C 2379   1.654   4.035   1.773
  594EOH      C 2380   1.675   3.890   1.724
  594EOH      H 2381   1.463   4.018   1.713
  595EOH      O 2382   4.070   4.104   4.461
  595EOH      C 2383   4.124   4.170   4.347
  595EOH      C 2384   4.006   4.226   4.265
  595EOH      H 2385   4.013   4.153   4.518
  596EOH      O 2386   2.718   3.705   2.635
  596EOH      C 2387   2.605   3.639   2.692
  596EOH      C 2388   2.657   3.501   2.736
  596EOH      H 2389   2.694   3.793   2.612
  597EOH      O 2390   3.238   3.249   2.001
  597EOH      C 2391   3.296   3.369   2.055
  597EOH      C 2392   3.279   3.372   2.208
  597EOH      H 2393   3.306   3.185   1.988
  598EOH      O 2394   1.551   3.950   2.885
  598EOH      C 2395   1.660   3.861   2.856
  598EOH      C 2396   1.668   3.741   2.952
  598EOH      H 2397   1.562   4.022   2.825
  599EOH      O 2398   4.309   2.899   0.002
  599EOH      C 2399   4.358   2.930   0.133
  599EOH      C 2400   4.315   3.068   0.185
  599EOH      H 2401   4.314   2.805   0.003
  600EOH      O 2402   1.942   3.614   4.652
  600EOH      C 2403   1.861   3.496   4.656
  600EOH      C 2404   1.952   3.372   4.652
  600EOH      H 2405   1.886   3.680   4.613
  601EOH      O 2406   2.549   1.740   0.673
  601EOH      C 2407   2.568   1.872   0.622
  601EOH      C 2408   2.437   1.949   0.649
  601EOH      H 2409   2.538   1.757   0.765
  602EOH      O 2410   2.747   2.642   1.295
  602EOH      C 2411   2.786   2.549   1.194
  602EOH      C 2412   2.749   2.404   1.232
  602EOH      H 2413   2.792   2.723   1.279
  603EOH      O 2414   3.789   4.187   3.484
  603EOH      C 2415   3.658   4.130   3.494
  603EOH      C 2416   3.628   4.081   3.637
  603EOH      H 2417   3.837   4.109   3.461
  604EOH      O 2418   4.349   3.910   4.091
  604EOH      C 2419   4.442   4.011   4.051
  604EOH      C 2420   4.480   3.978   3.905
  604EOH      H 2421   4.401   3.832   4.103
  605EOH      O 2422   3.943   4.416   0.793
  605EOH      C 2423   3.884   4.293   0.751
  605EOH      C 2424   3.789   4.324   0.633
  605EOH      H 2425   3.871   4.457   0.838
  606EOH      O 2426   2.920   0.071   3.138
  606EOH      C 2427   2.973   0.176   3.058
  606EOH      C 2428   3.039   0.295   3.131
  606EOH      H 2429   2.838   0.051   3.096
  607EOH      O 2430   2.655   3.945   2.565
  607EOH      C 2431   2.704   4.042   2.657
  607EOH      C 2432   2.844   4.000   2.705
  607EOH      H 2433   2.613   3.995   2.496
  608EOH      O 2434   2.332   0.767   3.389
  608EOH      C 2435   2.379   0.875   3.308
  608EOH      C 2436   2.519   0.922   3.351
  608EOH      H 2437   2.248   0.748   3.351
  609EOH      O 2438   2.758   0.107   4.129
  609EOH      C 2439   2.878   0.171   4.085
  609EOH      C 2440   2.834   0.237   3.952
  609EOH      H 2441   2.759   0.029   4.075
  610EOH      O 2442   1.877   0.106   2.462
  610EOH      C 2443   1.796   0.117   2.345
  610EOH      C 2444   1.674   0.024   2.361
  610EOH      H 2445   1.860   0.020   2.497
  611EOH      O 2446   1.262   0.601   3.681
  611EOH      C 2447   1.257   0.742   3.706
  611EOH      C 2448   1.356   0.798   3.810
  611EOH      H 2449   1.175   0.566   3.678
  612EOH      O 2450   0.491   3.009   1.028
  612EOH      C 2451   0.618   3.003   0.963
  612EOH      C 2452   0.655   3.134   0.891
  612EOH      H 2453   0.478   2.920   1.059
  613EOH      O 2454   3.221   2.458   1.678
  613EOH      C 2455   3.291   2.522   1.784
  613EOH      C 2456   3.255   2.448   1.915
  613EOH      H 2457   3.136   2.500   1.676
  614EOH      O 2458   2.322   1.571   2.427
  614EOH      C 2459   2.293   1.622   2.558
  614EOH      C 2460   2.202   1.531   2.642
  614EOH      H 2461   2.383   1.633   2.390
  615EOH      O 2462   4.499   3.157   0.839
  615EOH      C 2463   4.472   3.138   0.700
  615EOH      C 2464   4.448   2.996   0.646
  615EOH      H 2465   4.422   3.197   0.877
  616EOH      O 2466   0.620   3.115   2.819
  616EOH      C 2467   0.617   2.974   2.840
  616EOH      C 2468   0.503   2.938   2.937
  616EOH      H 2469   0.661   3.136   2.736
  617EOH      O 2470   1.193   2.363   4.061
  617EOH      C 2471   1.158   2.242   4.128
  617EOH      C 2472   1.162   2.259   4.281
  617EOH      H 2473   1.183   2.350   3.968
  618EOH      O 2474   1.289   3.038   0.060
  618EOH      C 2475   1.304   3.170   0.112
  618EOH      C 2476   1.419   3.187   0.213
  618EOH      H 2477   1.277   3.044   4.664
  619EOH      O 2478   1.471   0.492   3.572
  619EOH      C 2479   1.585   0.533   3.648
  619EOH      C 2480   1.711   0.444   3.643
  619EOH      H 2481   1.394   0.513   3.622
  620EOH      O 2482   3.573   3.325   3.996
  620EOH      C 2483   3.537   3.458   4.032
  620EOH      C 2484   3.465   3.465   4.168
  620EOH      H 2485   3.648   3.333   3.939
  621EOH      O 2486   4.070   3.343   0.933
  621EOH      C 2487   3.987   3.275   0.839
  621EOH      C 2488   4.065   3.260   0.707
  621EOH      H 2489   4.059   3.436   0.920
  622EOH      O 2490   3.422   3.044   1.985
  622EOH      C 2491   3.470   2.914   2.018
  622EOH      C 2492   3.472   2.843   1.881
  622EOH      H 2493   3.492   3.093   1.944
  623EOH      O 2494   3.311   3.398   0.524
  623EOH      C 2495   3.256   3.402   0.393
  623EOH      C 2496   3.258   3.551   0.354
  623EOH      H 2497   3.245   3.418   0.589
  624EOH      O 2498   2.878   2.792   0.257
  624EOH      C 2499   3.007   2.732   0.239
  624EOH      C 2500   3.047   2.674   0.376
  624EOH      H 2501   2.869   2.864   0.197
  625EOH      O 2502   2.389   3.429   3.502
  625EOH      C 2503   2.351   3.540   3.583
  625EOH      C 2504   2.454   3.654   3.573
  625EOH      H 2505   2.394   3.455   3.411
  626EOH      O 2506   3.968   2.687   1.000
  626EOH      C 2507   4.097   2.743   1.031
  626EOH      C 2508   4.161   2.807   0.906
  626EOH      H 2509   3.910   2.722   1.066
  627EOH      O 2510   3.580   1.035   2.005
  627EOH      C 2511   3.598   1.177   1.997
  627EOH      C 2512   3.733   1.213   1.932
  627EOH      H 2513   3.609   1.020   2.093
  628EOH      O 2514   1.721   3.752   4.098
  628EOH      C 2515   1.832   3.734   4.011
  628EOH      C 2516   1.788   3.758   3.865
  628EOH      H 2517   1.685   3.664   4.106
  629EOH      O 2518   2.316   0.826   3.649
  629EOH      C 2519   2.425   0.784   3.731
  629EOH      C 2520   2.510   0.912   3.739
  629EOH      H 2521   2.332   0.787   3.564
  630EOH      O 2522   1.368   0.003   1.496
  630EOH      C 2523   1.392   4.585   1.576
  630EOH      C 2524   1.271   4.538   1.659
  630EOH      H 2525   1.285   0.003   1.451
  631EOH      O 2526   1.090   3.087   3.266
  631EOH      C 2527   1.038   3.045   3.140
  631EOH      C 2528   0.965   3.167   3.081
  631EOH      H 2529   1.180   3.060   3.277
  632EOH      O 2530   3.508   2.091   2.935
  632EOH      C 2531   3.620   2.082   3.023
  632EOH      C 2532   3.738   2.162   2.966
  632EOH      H 2533   3.529   2.045   2.855
  633EOH      O 2534   4.444   1.757   2.366
  633EOH      C 2535   4.572   1.722   2.419
  633EOH      C 2536   4.664   1.669   2.307
  633EOH      H 2537   4.403   1.678   2.334
  634EOH      O 2538   1.452   1.033   1.008
  634EOH      C 2539   1.443   0.983   1.141
  634EOH      C 2540   1.466   1.097   1.242
  634EOH      H 2541   1.438   0.967   0.941
  635EOH      O 2542   1.173   2.304   3.822
  635EOH      C 2543   1.159   2.412   3.730
  635EOH      C 2544   1.303   2.446   3.686
  635EOH      H 2545   1.143   2.229   3.772
  636EOH      O 2546   4.474   0.340   0.053
  636EOH      C 2547   4.355   0.301   0.122
  636EOH      C 2548   4.348   0.147   0.113
  636EOH      H 2549   4.474   0.433   0.036
  637EOH      O 2550   0.296   0.048   2.437
  637EOH      C 2551   0.271   0.073   2.575
  637EOH      C 2552   0.150   4.682   2.611
  637EOH      H 2553   0.326   0.129   2.398
  638EOH      O 2554   0.346   0.241   2.298
  638EOH      C 2555   0.388   0.369   2.250
  638EOH      C 2556   0.338   0.484   2.339
  638EOH      H 2557   0.303   0.183   2.237
  639EOH      O 2558   1.149   1.199   3.566
  639EOH      C 2559   1.142   1.183   3.424
  639EOH      C 2560   1.182   1.043   3.373
  639EOH      H 2561   1.195   1.280   3.584
  640EOH      O 2562   2.021   3.539   3.027
  640EOH      C 2563   1.988   3.468   3.148
  640EOH      C 2564   1.850   3.403   3.130
  640EOH      H 2565   2.103   3.580   3.047
  641EOH      O 2566   1.610   1.986   3.259
  641EOH      C 2567   1.654   1.910   3.146
  641EOH      C 2568   1.753   1.808   3.206
  641EOH      H 2569   1.599   2.072   3.221
  642EOH      O 2570   4.189   2.241   4.228
  642EOH      C 2571   4.057   2.226   4.281
  642EOH      C 2572   4.050   2.257   4.431
  642EOH      H 2573   4.224   2.155   4.212
  643EOH      O 2574   0.110   0.905   1.859
  643EOH      C 2575   0.121   1.013   1.766
  643EOH      C 2576   0.138   0.947   1.628
  643EOH      H 2577   0.027   0.869   1.834
  644EOH      O 2578   2.814   0.964   0.092
  644EOH      C 2579   2.686   1.027   0.076
  644EOH      C 2580   2.609   1.014   0.209
  644EOH      H 2581   2.849   1.015   0.163
  645EOH      O 2582   1.116   3.036   1.081
  645EOH      C 2583   1.068   2.941   0.985
  645EOH      C 2584   1.101   2.971   0.838
  645EOH      H 2585   1.053   3.054   1.148
  646EOH      O 2586   4.101   0.912   3.995
  646EOH      C 2587   4.121   0.890   3.856
  646EOH      C 2588   4.014   0.793   3.800
  646EOH      H 2589   4.021   0.962   4.007
  647EOH      O 2590   2.101   0.533   4.575
  647EOH      C 2591   2.121   0.561   0.016
  647EOH      C 2592   2.227   0.473   0.084
  647EOH      H 2593   2.043   0.595   4.534
  648EOH      O 2594   4.504   2.294   3.675
  648EOH      C 2595   4.585   2.180   3.703
  648EOH      C 2596   4.656   2.137   3.573
  648EOH      H 2597   4.424   2.290   3.727
  649EOH      O 2598   2.406   1.696   2.087
  649EOH      C 2599   2.438   1.699   1.947
  649EOH      C 2600   2.566   1.783   1.928
  649EOH      H 2601   2.339   1.629   2.085
  650EOH      O 2602   4.138   0.007   2.851
  650EOH      C 2603   4.110   4.565   2.840
  650EOH      C 2604   4.139   4.510   2.981
  650EOH      H 2605   4.123   0.046   2.766
  651EOH      O 2606   0.778   3.897   1.930
  651EOH      C 2607   0.647   3.839   1.937
  651EOH      C 2608   0.541   3.941   1.983
  651EOH      H 2609   0.841   3.826   1.919
  652EOH      O 2610   2.271   0.681   0.892
  652EOH      C 2611   2.286   0.823   0.891
  652EOH      C 2612   2.202   0.881   0.776
  652EOH      H 2613   2.246   0.658   0.980
  653EOH      O 2614   3.042   4.551   1.806
  653EOH      C 2615   3.143   4.574   1.707
  653EOH      C 2616   3.070   4.615   1.578
  653EOH      H 2617   3.013   4.462   1.792
  654EOH      O 2618   0.657   3.639   4.073
  654EOH      C 2619   0.621   3.751   4.154
  654EOH      C 2620   0.621   3.875   4.062
  654EOH      H 2621   0.598   3.639   3.999
  655EOH      O 2622   0.429   1.231   2.691
  655EOH      C 2623   0.484   1.237   2.559
  655EOH      C 2624   0.392   1.144   2.478
  655EOH      H 2625   0.370   1.303   2.706
  656EOH      O 2626   2.174   0.075   0.978
  656EOH      C 2627   2.089   4.694   1.062
  656EOH      C 2628   1.940   0.033   1.046
  656EOH      H 2629   2.159   0.039   0.892
  657EOH      O 2630   1.204   2.160   1.734
  657EOH      C 2631   1.255   2.237   1.843
  657EOH      C 2632   1.276   2.389   1.829
  657EOH      H 2633   1.232   2.205   1.656
  658EOH      O 2634   0.672   0.730   0.296
  658EOH      C 2635   0.598   0.843   0.342
  658EOH      C 2636   0.549   0.819   0.486
  658EOH      H 2637   0.762   0.757   0.309
  659EOH      O 2638   0.298   2.155   4.086
  659EOH      C 2639   0.183   2.096   4.148
  659EOH      C 2640   0.064   2.148   4.065
  659EOH      H 2641   0.370   2.153   4.148
  660EOH      O 2642   4.514   0.097   3.065
  660EOH      C 2643   4.529   4.679   2.982
  660EOH      C 2644   4.497   0.011   2.835
  660EOH      H 2645   4.421   0.114   3.076
  661EOH      O 2646   2.365   3.468   3.250
  661EOH      C 2647   2.453   3.411   3.153
  661EOH      C 2648   2.562   3.503   3.096
  661EOH      H 2649   2.317   3.536   3.204
  662EOH      O 2650   4.679   3.992   2.228
  662EOH      C 2651   4.639   3.903   2.333
  662EOH      C 2652   4.499   3.845   2.305
  662EOH      H 2653   0.058   4.037   2.262
  663EOH      O 2654   4.665   3.931   1.980
  663EOH      C 2655   0.027   4.034   1.900
  663EOH      C 2656   4.616   4.140   1.878
  663EOH      H 2657   4.664   3.957   2.071
  664EOH      O 2658   2.847   1.115   4.419
  664EOH      C 2659   2.851   1.255   4.392
  664EOH      C 2660   2.831   1.333   4.523
  664EOH      H 2661   2.911   1.088   4.483
  665EOH      O 2662   0.812   2.707   3.265
  665EOH      C 2663   0.720   2.680   3.159
  665EOH      C 2664   0.692   2.533   3.123
  665EOH      H 2665   0.763   2.751   3.332
  666EOH      O 2666   2.713   3.591   1.712
  666EOH      C 2667   2.718   3.690   1.610
  666EOH      C 2668   2.734   3.830   1.673
  666EOH      H 2669   2.796   3.546   1.720
  667EOH      O 2670   0.631   0.442   0.939
  667EOH      C 2671   0.515   0.384   0.999
  667EOH      C 2672   0.440   0.508   1.051
  667EOH      H 2673   0.699   0.375   0.938
  668EOH      O 2674   2.140   4.320   0.148
  668EOH      C 2675   2.045   4.293   0.252
  668EOH      C 2676   1.969   4.423   0.281
  668EOH      H 2677   2.101   4.337   0.064
  669EOH      O 2678   0.744   3.683   1.577
  669EOH      C 2679   0.886   3.673   1.584
  669EOH      C 2680   0.931   3.528   1.609
  669EOH      H 2681   0.726   3.744   1.506
  670EOH      O 2682   2.574   1.549   4.205
  670EOH      C 2683   2.561   1.488   4.077
  670EOH      C 2684   2.414   1.461   4.043
  670EOH      H 2685   2.550   1.640   4.203
  671EOH      O 2686   1.844   0.834   4.058
  671EOH      C 2687   1.800   0.710   4.003
  671EOH      C 2688   1.689   0.646   4.089
  671EOH      H 2689   1.852   0.901   3.992
  672EOH      O 2690   1.983   1.807   0.453
  672EOH      C 2691   2.113   1.799   0.395
  672EOH      C 2692   2.120   1.716   0.265
  672EOH      H 2693   1.951   1.720   0.470
  673EOH      O 2694   4.078   4.517   4.690
  673EOH      C 2695   4.138   4.610   4.600
  673EOH      C 2696   4.104   4.577   4.453
  673EOH      H 2697   4.047   4.576   0.059
  674EOH      O 2698   3.662   1.455   1.055
  674EOH      C 2699   3.692   1.448   0.916
  674EOH      C 2700   3.760   1.580   0.874
  674EOH      H 2701   3.736   1.487   1.105
  675EOH      O 2702   2.289   1.470   3.485
  675EOH      C 2703   2.315   1.341   3.540
  675EOH      C 2704   2.401   1.256   3.443
  675EOH      H 2705   2.370   1.509   3.458
  676EOH      O 2706   3.964   0.760   0.646
  676EOH      C 2707   4.019   0.879   0.702
  676EOH      C 2708   4.114   0.955   0.608
  676EOH      H 2709   4.028   0.691   0.655
  677EOH      O 2710   0.977   3.747   1.899
  677EOH      C 2711   1.102   3.810   1.872
  677EOH      C 2712   1.206   3.699   1.893
  677EOH      H 2713   0.990   3.676   1.960
  678EOH      O 2714   1.948   2.676   0.905
  678EOH      C 2715   1.970   2.573   0.808
  678EOH      C 2716   1.924   2.444   0.878
  678EOH      H 2717   1.998   2.750   0.875
  679EOH      O 2718   2.035   2.008   3.822
  679EOH      C 2719   2.086   2.095   3.924
  679EOH      C 2720   2.234   2.098   3.882
  679EOH      H 2721   2.023   2.047   3.737
  680EOH      O 2722   3.497   1.130   0.660
  680EOH      C 2723   3.582   1.031   0.719
  680EOH      C 2724   3.697   1.095   0.800
  680EOH      H 2725   3.531   1.136   0.572
  681EOH      O 2726   2.404   0.216   3.913
  681EOH      C 2727   2.377   0.356   3.911
  681EOH      C 2728   2.499   0.441   3.868
  681EOH      H 2729   2.415   0.202   4.006
  682EOH      O 2730   2.948   1.813   0.992
  682EOH      C 2731   3.019   1.691   1.015
  682EOH      C 2732   2.970   1.628   1.146
  682EOH      H 2733   3.005   1.875   1.035
  683EOH      O 2734   3.333   4.170   4.308
  683EOH      C 2735   3.400   4.165   4.434
  683EOH      C 2736   3.546   4.210   4.411
  683EOH      H 2737   3.340   4.087   4.262
  684EOH      O 2738   1.827   4.587   3.303
  684EOH      C 2739   1.694   4.577   3.354
  684EOH      C 2740   1.670   0.011   3.430
  684EOH      H 2741   1.875   4.529   3.359
  685EOH      O 2742   3.460   0.770   2.168
  685EOH      C 2743   3.540   0.710   2.065
  685EOH      C 2744   3.446   0.629   1.974
  685EOH      H 2745   3.382   0.724   2.196
  686EOH      O 2746   4.119   0.824   2.966
  686EOH      C 2747   4.018   0.756   2.892
  686EOH      C 2748   3.895   0.706   2.970
  686EOH      H 2749   4.094   0.912   2.991
  687EOH      O 2750   3.168   3.002   2.492
  687EOH      C 2751   3.176   2.960   2.356
  687EOH      C 2752   3.269   2.839   2.342
  687EOH      H 2753   3.126   3.087   2.500
  688EOH      O 2754   1.831   4.219   0.965
  688EOH      C 2755   1.791   4.355   0.989
  688EOH      C 2756   1.641   4.356   0.952
  688EOH      H 2757   1.847   4.209   0.873
  689EOH      O 2758   2.314   2.542   0.267
  689EOH      C 2759   2.410   2.623   0.199
  689EOH      C 2760   2.398   2.774   0.223
  689EOH      H 2761   2.344   2.524   0.355
  690EOH      O 2762   3.186   2.073   0.772
  690EOH      C 2763   3.127   1.997   0.666
  690EOH      C 2764   3.073   2.091   0.557
  690EOH      H 2765   3.277   2.048   0.778
  691EOH      O 2766   2.683   0.036   3.057
  691EOH      C 2767   2.552   0.014   3.111
  691EOH      C 2768   2.551   0.041   3.263
  691EOH      H 2769   2.692   4.675   2.984
  692EOH      O 2770   3.160   2.720   3.566
  692EOH      C 2771   3.267   2.804   3.611
  692EOH      C 2772   3.357   2.716   3.700
  692EOH      H 2773   3.108   2.705   3.643
  693EOH      O 2774   0.974   0.075   4.656
  693EOH      C 2775   1.089   0.098   4.575
  693EOH      C 2776   1.212   0.013   4.611
  693EOH      H 2777   0.904   0.094   4.595
  694EOH      O 2778   1.006   0.406   3.992
  694EOH      C 2779   1.065   0.469   4.106
  694EOH      C 2780   1.131   0.601   4.062
  694EOH      H 2781   1.056   0.326   3.991
  695EOH      O 2782   2.480   3.937   4.075
  695EOH      C 2783   2.443   3.906   4.209
  695EOH      C 2784   2.325   3.994   4.254
  695EOH      H 2785   2.439   3.870   4.023
  696EOH      O 2786   1.928   0.135   4.414
  696EOH      C 2787   1.885   0.105   4.281
  696EOH      C 2788   1.787   0.214   4.236
  696EOH      H 2789   1.982   0.212   4.412
  697EOH      O 2790   2.908   4.381   3.220
  697EOH      C 2791   2.981   4.387   3.098
  697EOH      C 2792   2.954   4.260   3.015
  697EOH      H 2793   2.905   4.462   3.270
  698EOH      O 2794   4.235   0.890   4.232
  698EOH      C 2795   4.352   0.809   4.216
  698EOH      C 2796   4.303   0.683   4.143
  698EOH      H 2797   4.193   0.884   4.148
  699EOH      O 2798   0.059   4.489   0.411
  699EOH      C 2799   0.136   4.609   0.408
  699EOH      C 2800   0.221   4.623   0.280
  699EOH      H 2801   0.001   4.489   0.336
  700EOH      O 2802   2.037   2.913   0.805
  700EOH      C 2803   2.140   2.969   0.886
  700EOH      C 2804   2.278   2.900   0.876
  700EOH      H 2805   2.054   2.946   0.718
  701EOH      O 2806   4.435   4.187   0.488
  701EOH      C 2807   4.397   4.101   0.596
  701EOH      C 2808   4.253   4.143   0.632
  701EOH      H 2809   4.501   4.243   0.526
  702EOH      O 2810   3.425   4.574   3.974
  702EOH      C 2811   3.491   4.448   3.973
  702EOH      C 2812   3.640   4.469   3.940
  702EOH      H 2813   3.354   4.577   4.036
  703EOH      O 2814   1.340   2.165   1.488
  703EOH      C 2815   1.334   2.049   1.403
  703EOH      C 2816   1.204   2.054   1.321
  703EOH      H 2817   1.362   2.244   1.441
  704EOH      O 2818   2.910   4.119   3.729
  704EOH      C 2819   2.981   4.243   3.715
  704EOH      C 2820   3.123   4.227   3.772
  704EOH      H 2821   2.870   4.096   3.647
  705EOH      O 2822   2.565   4.248   1.176
  705EOH      C 2823   2.582   4.331   1.061
  705EOH      C 2824   2.485   4.451   1.058
  705EOH      H 2825   2.588   4.159   1.154
  706EOH      O 2826   2.063   1.538   3.376
  706EOH      C 2827   1.967   1.616   3.448
  706EOH      C 2828   2.022   1.717   3.550
  706EOH      H 2829   2.118   1.494   3.439
  707EOH      O 2830   0.004   3.885   2.899
  707EOH      C 2831   0.010   3.790   2.792
  707EOH      C 2832   0.048   3.645   2.828
  707EOH      H 2833   4.650   3.959   2.873
  708EOH      O 2834   2.408   2.764   3.714
  708EOH      C 2835   2.481   2.718   3.828
  708EOH      C 2836   2.516   2.845   3.906
  708EOH      H 2837   2.322   2.741   3.744
  709EOH      O 2838   1.933   4.522   2.438
  709EOH      C 2839   2.052   4.459   2.486
  709EOH      C 2840   2.141   4.568   2.549
  709EOH      H 2841   1.900   4.485   2.358
  710EOH      O 2842   4.471   1.568   3.880
  710EOH      C 2843   4.460   1.640   3.757
  710EOH      C 2844   4.543   1.769   3.771
  710EOH      H 2845   4.448   1.478   3.869
  711EOH      O 2846   1.026   0.524   3.639
  711EOH      C 2847   0.961   0.465   3.527
  711EOH      C 2848   0.923   0.552   3.406
  711EOH      H 2849   0.961   0.539   3.705
  712EOH      O 2850   2.106   0.950   3.716
  712EOH      C 2851   2.068   0.931   3.853
  712EOH      C 2852   2.137   1.042   3.935
  712EOH      H 2853   2.183   0.901   3.691
  713EOH      O 2854   1.188   4.053   3.372
  713EOH      C 2855   1.055   4.006   3.394
  713EOH      C 2856   0.963   4.050   3.278
  713EOH      H 2857   1.241   4.038   3.449
  714EOH      O 2858   1.515   1.812   4.656
  714EOH      C 2859   1.626   1.891   4.613
  714EOH      C 2860   1.716   1.942   0.029
  714EOH      H 2861   1.555   1.731   4.685
  715EOH      O 2862   0.363   3.796   1.544
  715EOH      C 2863   0.286   3.877   1.633
  715EOH      C 2864   0.200   3.980   1.557
  715EOH      H 2865   0.396   3.718   1.586
  716EOH      O 2866   0.741   4.289   2.928
  716EOH      C 2867   0.623   4.339   2.864
  716EOH      C 2868   0.572   4.233   2.765
  716EOH      H 2869   0.786   4.355   2.978
  717EOH      O 2870   1.432   3.128   4.018
  717EOH      C 2871   1.289   3.129   4.016
  717EOH      C 2872   1.208   3.050   3.912
  717EOH      H 2873   1.465   3.187   3.952
  718EOH      O 2874   1.497   3.884   1.347
  718EOH      C 2875   1.468   3.745   1.326
  718EOH      C 2876   1.503   3.692   1.466
  718EOH      H 2877   1.589   3.890   1.328
  719EOH      O 2878   3.449   0.448   0.059
  719EOH      C 2879   3.365   0.562   0.039
  719EOH      C 2880   3.404   0.680   0.130
  719EOH      H 2881   3.482   0.416   4.674
  720EOH      O 2882   3.941   3.615   1.229
  720EOH      C 2883   3.918   3.474   1.222
  720EOH      C 2884   3.825   3.408   1.325
  720EOH      H 2885   3.992   3.634   1.307
  721EOH      O 2886   1.866   4.589   3.041
  721EOH      C 2887   1.805   4.531   2.925
  721EOH      C 2888   1.903   4.569   2.812
  721EOH      H 2889   1.837   4.551   3.123
  722EOH      O 2890   0.536   2.178   1.539
  722EOH      C 2891   0.539   2.059   1.619
  722EOH      C 2892   0.443   2.074   1.738
  722EOH      H 2893   0.571   2.161   1.453
  723EOH      O 2894   1.203   4.501   3.979
  723EOH      C 2895   1.132   4.379   4.001
  723EOH      C 2896   1.121   4.338   4.149
  723EOH      H 2897   1.214   4.522   3.887
  724EOH      O 2898   1.272   0.174   3.206
  724EOH      C 2899   1.326   0.110   3.323
  724EOH      C 2900   1.320   0.197   3.450
  724EOH      H 2901   1.335   0.152   3.139
  725EOH      O 2902   3.759   4.578   0.882
  725EOH      C 2903   3.678   4.675   0.815
  725EOH      C 2904   3.533   4.665   0.865
  725EOH      H 2905   3.741   4.591   0.974
  726EOH      O 2906   3.077   2.785   3.349
  726EOH      C 2907   3.141   2.732   3.233
  726EOH      C 2908   3.114   2.835   3.122
  726EOH      H 2909   3.102   2.742   3.429
  727EOH      O 2910   2.544   4.184   3.984
  727EOH      C 2911   2.572   4.157   3.846
  727EOH      C 2912   2.445   4.168   3.760
  727EOH      H 2913   2.516   4.101   4.019
  728EOH      O 2914   2.362   3.790   3.897
  728EOH      C 2915   2.219   3.784   3.897
  728EOH      C 2916   2.174   3.920   3.842
  728EOH      H 2917   2.397   3.703   3.900
  729EOH      O 2918   3.212   0.986   4.042
  729EOH      C 2919   3.283   0.863   4.028
  729EOH      C 2920   3.211   0.754   4.110
  729EOH      H 2921   3.284   1.047   4.043
  730EOH      O 2922   4.491   0.571   4.625
  730EOH      C 2923   4.572   0.655   4.543
  730EOH      C 2924   0.019   0.603   4.544
  730EOH      H 2925   4.459   0.501   4.571
  731EOH      O 2926   0.898   3.571   0.801
  731EOH      C 2927   0.817   3.543   0.686
  731EOH      C 2928   0.898   3.423   0.632
  731EOH      H 2929   0.888   3.664   0.818
  732EOH      O 2930   2.790   3.326   4.182
  732EOH      C 2931   2.904   3.295   4.262
  732EOH      C 2932   2.940   3.155   4.209
  732EOH      H 2933   2.705   3.319   4.223
  733EOH      O 2934   2.843   1.254   2.334
  733EOH      C 2935   2.717   1.287   2.274
  733EOH      C 2936   2.700   1.437   2.245
  733EOH      H 2937   2.907   1.255   2.264
  734EOH      O 2938   1.084   4.331   0.551
  734EOH      C 2939   0.976   4.416   0.590
  734EOH      C 2940   0.947   4.380   0.736
  734EOH      H 2941   1.118   4.354   0.466
  735EOH      O 2942   3.706   0.178   4.077
  735EOH      C 2943   3.798   0.071   4.053
  735EOH      C 2944   3.871   0.043   4.186
  735EOH      H 2945   3.645   0.170   4.006
  736EOH      O 2946   2.508   2.523   4.140
  736EOH      C 2947   2.602   2.607   4.207
  736EOH      C 2948   2.630   2.529   4.336
  736EOH      H 2949   2.547   2.439   4.123
  737EOH      O 2950   1.138   0.804   0.890
  737EOH      C 2951   1.042   0.897   0.942
  737EOH      C 2952   0.946   0.939   0.829
  737EOH      H 2953   1.130   0.720   0.932
  738EOH      O 2954   0.177   3.796   0.140
  738EOH      C 2955   0.245   3.706   0.227
  738EOH      C 2956   0.398   3.725   0.217
  738EOH      H 2957   0.092   3.822   0.172
  739EOH      O 2958   0.774   2.958   4.013
  739EOH      C 2959   0.800   2.831   3.952
  739EOH      C 2960   0.941   2.782   3.990
  739EOH      H 2961   0.688   2.970   4.051
  740EOH      O 2962   0.436   4.505   3.339
  740EOH      C 2963   0.389   4.373   3.364
  740EOH      C 2964   0.462   4.269   3.277
  740EOH      H 2965   0.355   4.553   3.346
  741EOH      O 2966   3.438   4.164   2.130
  741EOH      C 2967   3.432   4.292   2.194
  741EOH      C 2968   3.444   4.401   2.085
  741EOH      H 2969   3.489   4.111   2.190
  742EOH      O 2970   1.309   3.980   0.699
  742EOH      C 2971   1.327   4.085   0.795
  742EOH      C 2972   1.450   4.047   0.880
  742EOH      H 2973   1.244   4.010   0.638
  743EOH      O 2974   2.373   4.672   3.803
  743EOH      C 2975   2.327   4.673   3.668
  743EOH      C 2976   2.286   4.533   3.619
  743EOH      H 2977   2.378   0.065   3.827
  744EOH      O 2978   0.875   1.545   1.142
  744EOH      C 2979   0.904   1.409   1.176
  744EOH      C 2980   0.785   1.312   1.173
  744EOH      H 2981   0.835   1.543   1.057
  745EOH      O 2982   3.596   0.364   4.576
  745EOH      C 2983   3.698   0.400   4.483
  745EOH      C 2984   3.779   0.512   4.551
  745EOH      H 2985   3.599   0.269   4.576
  746EOH      O 2986   4.321   3.550   2.060
  746EOH      C 2987   4.252   3.665   2.108
  746EOH      C 2988   4.101   3.643   2.087
  746EOH      H 2989   4.393   3.592   2.015
  747EOH      O 2990   0.901   0.825   0.409
  747EOH      C 2991   0.955   0.942   0.472
  747EOH      C 2992   0.948   1.070   0.387
  747EOH      H 2993   0.975   0.771   0.386
  748EOH      O 2994   3.595   0.952   2.254
  748EOH      C 2995   3.518   1.043   2.332
  748EOH      C 2996   3.564   1.062   2.477
  748EOH      H 2997   3.539   0.881   2.225
  749EOH      O 2998   0.425   2.394   1.598
  749EOH      C 2999   0.478   2.522   1.563
  749EOH      C 3000   0.404   2.639   1.630
  749EOH      H 3001   0.489   2.335   1.561
  750EOH      O 3002   2.107   4.293   3.232
  750EOH      C 3003   2.166   4.383   3.138
  750EOH      C 3004   2.211   4.506   3.218
  750EOH      H 3005   2.080   4.216   3.184
  751EOH      O 3006   0.541   2.796   0.465
  751EOH      C 3007   0.543   2.690   0.368
  751EOH      C 3008   0.483   2.565   0.435
  751EOH      H 3009   0.546   2.883   0.429
  752EOH      O 3010   1.869   1.972   2.410
  752EOH      C 3011   2.005   1.943   2.378
  752EOH      C 3012   2.100   1.951   2.499
  752EOH      H 3013   1.871   2.063   2.434
  753EOH      O 3014   2.978   4.535   2.730
  753EOH      C 3015   3.007   4.612   2.613
  753EOH      C 3016   3.071   4.512   2.515
  753EOH      H 3017   3.062   4.500   2.759
  754EOH      O 3018   2.169   0.678   3.085
  754EOH      C 3019   2.120   0.740   2.966
  754EOH      C 3020   2.053   0.630   2.881
  754EOH      H 3021   2.209   0.601   3.047
  755EOH      O 3022   2.239   1.386   1.908
  755EOH      C 3023   2.129   1.375   1.817
  755EOH      C 3024   2.038   1.267   1.880
  755EOH      H 3025   2.209   1.434   1.983
  756EOH      O 3026   4.176   3.611   4.554
  756EOH      C 3027   4.091   3.590   4.441
  756EOH      C 3028   4.155   3.467   4.375
  756EOH      H 3029   4.185   3.705   4.555
  757EOH      O 3030   0.976   4.627   2.427
  757EOH      C 3031   0.881   4.606   2.531
  757EOH      C 3032   0.814   0.041   2.573
  757EOH      H 3033   0.986   4.543   2.386
  758EOH      O 3034   2.490   1.510   4.443
  758EOH      C 3035   2.531   1.615   4.531
  758EOH      C 3036   2.453   1.610   4.663
  758EOH      H 3037   2.534   1.527   4.361
  759EOH      O 3038   1.966   4.401   3.437
  759EOH      C 3039   1.956   4.299   3.537
  759EOH      C 3040   1.832   4.332   3.622
  759EOH      H 3041   2.012   4.364   3.362
  760EOH      O 3042   1.602   0.910   0.003
  760EOH      C 3043   1.737   0.931   4.657
  760EOH      C 3044   1.835   0.874   0.063
  760EOH      H 3045   1.560   0.843   4.650
  761EOH      O 3046   0.609   0.366   3.088
  761EOH      C 3047   0.725   0.294   3.047
  761EOH      C 3048   0.731   0.284   2.893
  761EOH      H 3049   0.637   0.431   3.151
  762EOH      O 3050   2.265   4.561   3.991
  762EOH      C 3051   2.315   4.645   4.095
  762EOH      C 3052   2.200   4.660   4.197
  762EOH      H 3053   2.304   4.597   3.914
  763EOH      O 3054   0.501   3.028   4.037
  763EOH      C 3055   0.497   3.160   3.984
  763EOH      C 3056   0.473   3.249   4.107
  763EOH      H 3057   0.429   3.018   4.097
  764EOH      O 3058   1.449   2.883   3.422
  764EOH      C 3059   1.410   2.833   3.550
  764EOH      C 3060   1.438   2.932   3.665
  764EOH      H 3061   1.519   2.835   3.381
  765EOH      O 3062   1.607   2.322   2.355
  765EOH      C 3063   1.581   2.239   2.242
  765EOH      C 3064   1.707   2.220   2.155
  765EOH      H 3065   1.688   2.288   2.388
  766EOH      O 3066   3.231   0.295   0.843
  766EOH      C 3067   3.202   0.162   0.799
  766EOH      C 3068   3.051   0.154   0.770
  766EOH      H 3069   3.244   0.289   0.937
  767EOH      O 3070   0.059   2.302   3.178
  767EOH      C 3071   0.075   2.359   3.308
  767EOH      C 3072   0.207   2.316   3.375
  767EOH      H 3073   0.103   2.354   3.114
  768EOH      O 3074   2.799   4.083   3.502
  768EOH      C 3075   2.705   3.984   3.545
  768EOH      C 3076   2.706   3.875   3.436
  768EOH      H 3077   2.755   4.136   3.437
  769EOH      O 3078   4.265   1.594   2.262
  769EOH      C 3079   4.219   1.642   2.135
  769EOH      C 3080   4.258   1.550   2.017
  769EOH      H 3081   4.195   1.539   2.294
  770EOH      O 3082   4.182   0.112   2.616
  770EOH      C 3083   4.217   0.132   2.479
  770EOH      C 3084   4.356   0.074   2.448
  770EOH      H 3085   4.112   0.174   2.622
  771EOH      O 3086   3.313   2.019   2.610
  771EOH      C 3087   3.226   2.120   2.559
  771EOH      C 3088   3.309   2.247   2.533
  771EOH      H 3089   3.294   1.934   2.574
  772EOH      O 3090   0.015   3.282   1.819
  772EOH      C 3091   0.096   3.306   1.935
  772EOH      C 3092   0.011   3.357   2.053
  772EOH      H 3093   0.065   3.319   1.748
  773EOH      O 3094   2.572   4.113   2.388
  773EOH      C 3095   2.606   4.147   2.253
  773EOH      C 3096   2.732   4.072   2.206
  773EOH      H 3097   2.518   4.180   2.427
  774EOH      O 3098   0.860   0.132   0.179
  774EOH      C 3099   0.963   0.137   0.278
  774EOH      C 3100   0.933   0.065   0.411
  774EOH      H 3101   0.898   0.113   0.095
  775EOH      O 3102   4.486   3.681   0.341
  775EOH      C 3103   4.345   3.701   0.323
  775EOH      C 3104   4.317   3.848   0.360
  775EOH      H 3105   4.512   3.593   0.321
  776EOH      O 3106   1.584   4.020   3.145
  776EOH      C 3107   1.482   4.116   3.176
  776EOH      C 3108   1.484   4.159   3.324
  776EOH      H 3109   1.581   4.017   3.051
  777EOH      O 3110   1.622   3.659   0.696
  777EOH      C 3111   1.709   3.772   0.712
  777EOH      C 3112   1.660   3.878   0.612
  777EOH      H 3113   1.540   3.697   0.721
  778EOH      O 3114   1.450   2.508   0.908
  778EOH      C 3115   1.559   2.587   0.859
  778EOH      C 3116   1.528   2.737   0.881
  778EOH      H 3117   1.480   2.420   0.927
  779EOH      O 3118   4.149   2.107   2.694
  779EOH      C 3119   4.138   2.032   2.815
  779EOH      C 3120   4.269   1.955   2.840
  779EOH      H 3121   4.168   2.050   2.621
  780EOH      O 3122   3.200   1.227   3.712
  780EOH      C 3123   3.328   1.289   3.729
  780EOH      C 3124   3.324   1.439   3.695
  780EOH      H 3125   3.170   1.204   3.799
  781EOH      O 3126   2.900   4.612   3.320
  781EOH      C 3127   2.959   4.646   3.446
  781EOH      C 3128   3.039   4.522   3.490
  781EOH      H 3129   2.929   4.681   3.263
  782EOH      O 3130   3.603   0.121   4.632
  782EOH      C 3131   3.614   4.696   4.559
  782EOH      C 3132   3.622   0.027   4.408
  782EOH      H 3133   3.615   0.107   0.027
  783EOH      O 3134   3.169   4.327   4.229
  783EOH      C 3135   3.042   4.267   4.202
  783EOH      C 3136   2.972   4.344   4.089
  783EOH      H 3137   3.232   4.260   4.249
  784EOH      O 3138   3.513   0.295   0.299
  784EOH      C 3139   3.387   0.292   0.367
  784EOH      C 3140   3.407   0.258   0.516
  784EOH      H 3141   3.504   0.346   0.220
  785EOH      O 3142   0.029   2.058   0.965
  785EOH      C 3143   0.012   2.200   0.962
  785EOH      C 3144   4.569   2.223   1.022
  785EOH      H 3145   0.102   2.032   0.911
  786EOH      O 3146   0.714   2.399   1.312
  786EOH      C 3147   0.703   2.509   1.221
  786EOH      C 3148   0.771   2.476   1.087
  786EOH      H 3149   0.804   2.372   1.315
  787EOH      O 3150   1.220   3.653   3.418
  787EOH      C 3151   1.322   3.668   3.320
  787EOH      C 3152   1.450   3.744   3.361
  787EOH      H 3153   1.155   3.591   3.388
  788EOH      O 3154   3.973   2.735   2.961
  788EOH      C 3155   3.910   2.863   2.974
  788EOH      C 3156   3.880   2.940   2.845
  788EOH      H 3157   3.939   2.674   3.025
  789EOH      O 3158   2.516   3.940   0.612
  789EOH      C 3159   2.535   4.077   0.579
  789EOH      C 3160   2.608   4.142   0.698
  789EOH      H 3161   2.506   3.902   0.526
  790EOH      O 3162   1.091   2.135   3.666
  790EOH      C 3163   1.176   2.037   3.605
  790EOH      C 3164   1.316   2.043   3.670
  790EOH      H 3165   1.004   2.097   3.668
  791EOH      O 3166   3.232   0.788   3.525
  791EOH      C 3167   3.232   0.923   3.572
  791EOH      C 3168   3.315   1.021   3.487
  791EOH      H 3169   3.168   0.784   3.455
  792EOH      O 3170   4.542   3.487   3.706
  792EOH      C 3171   4.512   3.587   3.609
  792EOH      C 3172   4.382   3.668   3.627
  792EOH      H 3173   4.584   3.415   3.661
  793EOH      O 3174   2.072   2.758   2.579
  793EOH      C 3175   2.189   2.683   2.612
  793EOH      C 3176   2.171   2.615   2.749
  793EOH      H 3177   2.029   2.732   2.499
  794EOH      O 3178   0.460   1.602   1.341
  794EOH      C 3179   0.377   1.701   1.279
  794EOH      C 3180   0.385   1.826   1.369
  794EOH      H 3181   0.553   1.613   1.328
  795EOH      O 3182   1.491   3.308   3.814
  795EOH      C 3183   1.425   3.308   3.687
  795EOH      C 3184   1.501   3.413   3.605
  795EOH      H 3185   1.582   3.299   3.789
  796EOH      O 3186   0.066   1.457   0.285
  796EOH      C 3187   4.670   1.467   0.392
  796EOH      C 3188   0.024   1.419   0.529
  796EOH      H 3189   0.133   1.520   0.304
  797EOH      O 3190   0.132   0.439   0.672
  797EOH      C 3191   0.070   0.405   0.548
  797EOH      C 3192   0.166   0.313   0.468
  797EOH      H 3193   0.149   0.367   0.731
  798EOH      O 3194   0.912   3.521   0.164
  798EOH      C 3195   1.028   3.599   0.129
  798EOH      C 3196   1.041   3.709   0.235
  798EOH      H 3197   0.840   3.510   0.103
  799EOH      O 3198   2.961   1.688   1.974
  799EOH      C 3199   2.913   1.821   1.993
  799EOH      C 3200   2.868   1.832   2.140
  799EOH      H 3201   2.960   1.669   1.882
  800EOH      O 3202   4.198   3.379   0.042
  800EOH      C 3203   4.074   3.323   0.086
  800EOH      C 3204   4.006   3.441   0.158
  800EOH      H 3205   4.178   3.453   4.685
  801EOH      O 3206   3.629   4.336   1.475
  801EOH      C 3207   3.569   4.383   1.596
  801EOH      C 3208   3.656   4.494   1.656
  801EOH      H 3209   3.572   4.276   1.429
  802EOH      O 3210   3.818   2.042   3.468
  802EOH      C 3211   3.680   2.074   3.447
  802EOH      C 3212   3.661   2.219   3.402
  802EOH      H 3213   3.858   2.074   3.547
  803EOH      O 3214   0.192   0.102   2.116
  803EOH      C 3215   0.073   0.022   2.120
  803EOH      C 3216   4.675   0.036   2.240
  803EOH      H 3217   0.211   0.115   2.025
  804EOH      O 3218   3.559   1.747   2.294
  804EOH      C 3219   3.692   1.749   2.242
  804EOH      C 3220   3.728   1.604   2.204
  804EOH      H 3221   3.505   1.797   2.235
  805EOH      O 3222   2.659   3.688   4.513
  805EOH      C 3223   2.725   3.718   4.389
  805EOH      C 3224   2.667   3.622   4.283
  805EOH      H 3225   2.688   3.751   4.578
  806EOH      O 3226   2.271   0.605   2.626
  806EOH      C 3227   2.366   0.703   2.585
  806EOH      C 3228   2.320   0.836   2.524
  806EOH      H 3229   2.184   0.623   2.593
  807EOH      O 3230   0.230   3.662   3.873
  807EOH      C 3231   0.133   3.564   3.911
  807EOH      C 3232   0.174   3.508   4.049
  807EOH      H 3233   0.189   3.706   3.800
  808EOH      O 3234   4.362   4.554   3.448
  808EOH      C 3235   4.315   4.489   3.330
  808EOH      C 3236   4.440   4.419   3.272
  808EOH      H 3237   4.362   4.648   3.437
  809EOH      O 3238   4.500   4.316   3.861
  809EOH      C 3239   4.520   4.293   3.721
  809EOH      C 3240   4.664   4.333   3.682
  809EOH      H 3241   4.420   4.365   3.869
  810EOH      O 3242   4.284   1.347   3.634
  810EOH      C 3243   4.324   1.240   3.548
  810EOH      C 3244   4.410   1.128   3.610
  810EOH      H 3245   4.241   1.409   3.577
  811EOH      O 3246   1.381   0.873   0.829
  811EOH      C 3247   1.412   0.827   0.697
  811EOH      C 3248   1.565   0.839   0.700
  811EOH      H 3249   1.292   0.849   0.849
  812EOH      O 3250   0.330   1.577   3.194
  812EOH      C 3251   0.204   1.636   3.161
  812EOH      C 3252   0.219   1.767   3.083
  812EOH      H 3253   0.311   1.500   3.246
  813EOH      O 3254   0.755   3.226   2.640
  813EOH      C 3255   0.893   3.227   2.600
  813EOH      C 3256   0.984   3.204   2.721
  813EOH      H 3257   0.708   3.283   2.581
  814EOH      O 3258   4.126   2.516   0.160
  814EOH      C 3259   4.028   2.617   0.185
  814EOH      C 3260   3.906   2.549   0.250
  814EOH      H 3261   4.082   2.447   0.111
  815EOH      O 3262   2.102   2.991   2.703
  815EOH      C 3263   2.018   3.077   2.626
  815EOH      C 3264   1.959   3.183   2.720
  815EOH      H 3265   2.101   2.905   2.665
  816EOH      O 3266   0.245   2.015   0.805
  816EOH      C 3267   0.311   1.912   0.878
  816EOH      C 3268   0.260   1.781   0.815
  816EOH      H 3269   0.272   2.003   0.715
  817EOH      O 3270   3.561   0.099   2.118
  817EOH      C 3271   3.527   0.059   1.985
  817EOH      C 3272   3.424   0.152   1.918
  817EOH      H 3273   3.477   0.121   2.154
  818EOH      O 3274   2.730   0.810   1.399
  818EOH      C 3275   2.762   0.939   1.450
  818EOH      C 3276   2.638   1.011   1.508
  818EOH      H 3277   2.665   0.819   1.331
  819EOH      O 3278   0.903   1.830   2.516
  819EOH      C 3279   1.031   1.877   2.559
  819EOH      C 3280   1.074   1.973   2.447
  819EOH      H 3281   0.910   1.777   2.439
  820EOH      O 3282   0.199   2.428   2.981
  820EOH      C 3283   0.308   2.498   2.919
  820EOH      C 3284   0.257   2.637   2.877
  820EOH      H 3285   0.209   2.339   2.951
  821EOH      O 3286   0.197   3.207   2.488
  821EOH      C 3287   0.254   3.145   2.604
  821EOH      C 3288   0.319   3.253   2.692
  821EOH      H 3289   0.117   3.160   2.472
  822EOH      O 3290   4.141   1.497   2.614
  822EOH      C 3291   4.053   1.579   2.692
  822EOH      C 3292   3.962   1.652   2.591
  822EOH      H 3293   4.206   1.470   2.677
  823EOH      O 3294   0.375   2.798   0.684
  823EOH      C 3295   0.303   2.920   0.666
  823EOH      C 3296   0.219   2.910   0.537
  823EOH      H 3297   0.435   2.791   0.611
  824EOH      O 3298   0.320   0.193   3.777
  824EOH      C 3299   0.334   0.283   3.888
  824EOH      C 3300   0.474   0.253   3.945
  824EOH      H 3301   0.289   0.110   3.807
  825EOH      O 3302   3.645   0.225   1.198
  825EOH      C 3303   3.647   0.292   1.325
  825EOH      C 3304   3.728   0.222   1.436
  825EOH      H 3305   3.617   0.276   1.124
  826EOH      O 3306   0.084   0.473   1.697
  826EOH      C 3307   0.194   0.566   1.700
  826EOH      C 3308   0.292   0.557   1.582
  826EOH      H 3309   0.046   0.483   1.783
  827EOH      O 3310   3.607   0.408   4.121
  827EOH      C 3311   3.467   0.385   4.138
  827EOH      C 3312   3.394   0.461   4.251
  827EOH      H 3313   3.643   0.321   4.117
  828EOH      O 3314   3.847   1.155   2.987
  828EOH      C 3315   3.819   1.178   2.849
  828EOH      C 3316   3.951   1.200   2.772
  828EOH      H 3317   3.764   1.150   3.030
  829EOH      O 3318   4.174   0.723   0.296
  829EOH      C 3319   4.054   0.749   0.224
  829EOH      C 3320   4.076   0.712   0.076
  829EOH      H 3321   4.243   0.717   0.232
  830EOH      O 3322   1.080   1.127   2.479
  830EOH      C 3323   0.989   1.039   2.544
  830EOH      C 3324   0.887   1.109   2.635
  830EOH      H 3325   1.075   1.109   2.386
  831EOH      O 3326   4.678   0.156   4.651
  831EOH      C 3327   0.114   0.193   4.687
  831EOH      C 3328   0.211   0.077   4.656
  831EOH      H 3329   4.622   0.220   4.692
  832EOH      O 3330   4.328   1.397   2.739
  832EOH      C 3331   4.429   1.433   2.833
  832EOH      C 3332   4.370   1.553   2.909
  832EOH      H 3333   4.348   1.313   2.701
  833EOH      O 3334   4.466   1.759   1.128
  833EOH      C 3335   4.574   1.797   1.214
  833EOH      C 3336   0.003   1.754   1.137
  833EOH      H 3337   4.476   1.799   1.043
  834EOH      O 3338   2.540   3.268   4.258
  834EOH      C 3339   2.528   3.146   4.185
  834EOH      C 3340   2.606   3.029   4.248
  834EOH      H 3341   2.519   3.243   4.347
  835EOH      O 3342   1.490   3.692   2.087
  835EOH      C 3343   1.523   3.774   2.200
  835EOH      C 3344   1.396   3.849   2.242
  835EOH      H 3345   1.574   3.681   2.045
  836EOH      O 3346   2.884   3.285   1.851
  836EOH      C 3347   2.771   3.236   1.924
  836EOH      C 3348   2.633   3.234   1.855
  836EOH      H 3349   2.946   3.217   1.871
  837EOH      O 3350   3.463   1.265   2.909
  837EOH      C 3351   3.376   1.238   2.799
  837EOH      C 3352   3.245   1.189   2.864
  837EOH      H 3353   3.435   1.351   2.933
  838EOH      O 3354   3.797   2.219   1.832
  838EOH      C 3355   3.711   2.106   1.848
  838EOH      C 3356   3.734   2.040   1.986
  838EOH      H 3357   3.745   2.293   1.856
  839EOH      O 3358   3.378   3.431   0.870
  839EOH      C 3359   3.515   3.398   0.847
  839EOH      C 3360   3.529   3.249   0.883
  839EOH      H 3361   3.363   3.446   0.962
  840EOH      O 3362   4.142   4.496   0.932
  840EOH      C 3363   4.189   4.625   0.895
  840EOH      C 3364   4.281   4.630   0.771
  840EOH      H 3365   4.099   4.463   0.854
  841EOH      O 3366   3.290   0.761   1.519
  841EOH      C 3367   3.185   0.684   1.578
  841EOH      C 3368   3.254   0.547   1.573
  841EOH      H 3369   3.255   0.847   1.502
  842EOH      O 3370   0.883   4.116   1.799
  842EOH      C 3371   0.825   4.126   1.669
  842EOH      C 3372   0.672   4.113   1.651
  842EOH      H 3373   0.871   4.025   1.821
  843EOH      O 3374   0.879   0.565   3.828
  843EOH      C 3375   0.743   0.559   3.872
  843EOH      C 3376   0.656   0.609   3.755
  843EOH      H 3377   0.924   0.500   3.879
  844EOH      O 3378   4.192   2.874   1.793
  844EOH      C 3379   4.179   2.732   1.806
  844EOH      C 3380   4.298   2.654   1.748
  844EOH      H 3381   4.272   2.916   1.821
  845EOH      O 3382   2.501   1.286   4.540
  845EOH      C 3383   2.389   1.218   4.482
  845EOH      C 3384   2.301   1.137   4.579
  845EOH      H 3385   2.505   1.364   4.487
  846EOH      O 3386   4.436   2.397   1.482
  846EOH      C 3387   4.419   2.256   1.501
  846EOH      C 3388   4.465   2.180   1.375
  846EOH      H 3389   4.521   2.414   1.518
  847EOH      O 3390   4.032   2.395   2.349
  847EOH      C 3391   4.132   2.374   2.249
  847EOH      C 3392   4.111   2.463   2.125
  847EOH      H 3393   4.073   2.387   2.434
  848EOH      O 3394   3.859   2.847   0.581
  848EOH      C 3395   3.993   2.837   0.531
  848EOH      C 3396   4.031   2.963   0.450
  848EOH      H 3397   3.861   2.777   0.645
  849EOH      O 3398   2.406   0.675   1.308
  849EOH      C 3399   2.415   0.638   1.446
  849EOH      C 3400   2.290   0.667   1.532
  849EOH      H 3401   2.475   0.733   1.282
  850EOH      O 3402   3.423   1.345   0.716
  850EOH      C 3403   3.315   1.359   0.809
  850EOH      C 3404   3.189   1.307   0.738
  850EOH      H 3405   3.429   1.251   0.706
  851EOH      O 3406   0.587   3.037   0.371
  851EOH      C 3407   0.593   3.139   0.471
  851EOH      C 3408   0.523   3.266   0.419
  851EOH      H 3409   0.678   3.026   0.348
  852EOH      O 3410   3.857   4.262   2.729
  852EOH      C 3411   3.805   4.352   2.631
  852EOH      C 3412   3.905   4.341   2.514
  852EOH      H 3413   3.841   4.313   2.806
  853EOH      O 3414   4.666   3.061   2.485
  853EOH      C 3415   4.665   2.943   2.404
  853EOH      C 3416   0.046   2.963   2.274
  853EOH      H 3417   4.654   3.034   2.575
  854EOH      O 3418   0.693   1.688   1.295
  854EOH      C 3419   0.749   1.807   1.353
  854EOH      C 3420   0.874   1.861   1.282
  854EOH      H 3421   0.763   1.635   1.261
  855EOH      O 3422   4.159   1.542   4.567
  855EOH      C 3423   4.170   1.428   4.482
  855EOH      C 3424   4.306   1.430   4.410
  855EOH      H 3425   4.198   1.512   4.648
  856EOH      O 3426   3.832   3.312   3.416
  856EOH      C 3427   3.828   3.422   3.325
  856EOH      C 3428   3.951   3.419   3.233
  856EOH      H 3429   3.754   3.263   3.396
  857EOH      O 3430   2.962   3.512   1.758
  857EOH      C 3431   3.103   3.524   1.738
  857EOH      C 3432   3.137   3.670   1.702
  857EOH      H 3433   2.945   3.430   1.801
  858EOH      O 3434   1.398   3.736   0.741
  858EOH      C 3435   1.286   3.648   0.724
  858EOH      C 3436   1.304   3.541   0.616
  858EOH      H 3437   1.369   3.822   0.715
  859EOH      O 3438   4.090   0.012   1.792
  859EOH      C 3439   4.045   0.028   1.657
  859EOH      C 3440   4.116   0.148   1.591
  859EOH      H 3441   4.184   0.023   1.787
  860EOH      O 3442   3.182   3.851   3.283
  860EOH      C 3443   3.177   3.933   3.400
  860EOH      C 3444   3.103   3.866   3.517
  860EOH      H 3445   3.267   3.811   3.277
  861EOH      O 3446   4.425   1.082   1.783
  861EOH      C 3447   4.385   1.064   1.919
  861EOH      C 3448   4.248   0.996   1.930
  861EOH      H 3449   4.480   1.159   1.785
  862EOH      O 3450   0.677   4.330   3.527
  862EOH      C 3451   0.813   4.370   3.547
  862EOH      C 3452   0.900   4.276   3.632
  862EOH      H 3453   0.640   4.381   3.457
  863EOH      O 3454   3.274   4.280   0.241
  863EOH      C 3455   3.346   4.284   0.365
  863EOH      C 3456   3.497   4.309   0.348
  863EOH      H 3457   3.254   4.364   0.203
  864EOH      O 3458   1.360   2.385   1.366
  864EOH      C 3459   1.406   2.501   1.436
  864EOH      C 3460   1.497   2.591   1.351
  864EOH      H 3461   1.302   2.418   1.298
  865EOH      O 3462   0.129   3.368   1.581
  865EOH      C 3463   0.153   3.494   1.517
  865EOH      C 3464   0.032   3.543   1.436
  865EOH      H 3465   0.191   3.305   1.546
  866EOH      O 3466   3.123   1.342   3.204
  866EOH      C 3467   3.265   1.345   3.216
  866EOH      C 3468   3.312   1.475   3.285
  866EOH      H 3469   3.091   1.254   3.217
  867EOH      O 3470   3.958   2.713   1.376
  867EOH      C 3471   3.977   2.601   1.464
  867EOH      C 3472   4.057   2.499   1.381
  867EOH      H 3473   3.970   2.791   1.427
  868EOH      O 3474   3.987   2.245   1.669
  868EOH      C 3475   4.109   2.216   1.738
  868EOH      C 3476   4.095   2.074   1.797
  868EOH      H 3477   3.917   2.247   1.732
  869EOH      O 3478   1.161   0.057   1.359
  869EOH      C 3479   1.122   0.190   1.323
  869EOH      C 3480   1.205   0.297   1.396
  869EOH      H 3481   1.082   0.008   1.342
  870EOH      O 3482   3.439   1.530   2.956
  870EOH      C 3483   3.558   1.610   2.962
  870EOH      C 3484   3.673   1.519   3.009
  870EOH      H 3485   3.364   1.587   2.946
  871EOH      O 3486   4.591   1.286   1.827
  871EOH      C 3487   4.519   1.388   1.758
  871EOH      C 3488   4.580   1.411   1.619
  871EOH      H 3489   4.671   1.320   1.866
  872EOH      O 3490   4.541   3.116   1.754
  872EOH      C 3491   4.522   3.144   1.615
  872EOH      C 3492   4.427   3.045   1.544
  872EOH      H 3493   4.602   3.184   1.777
  873EOH      O 3494   3.690   0.859   1.840
  873EOH      C 3495   3.598   0.868   1.731
  873EOH      C 3496   3.670   0.940   1.616
  873EOH      H 3497   3.651   0.915   1.905
  874EOH      O 3498   2.812   3.035   0.548
  874EOH      C 3499   2.933   3.080   0.486
  874EOH      C 3500   3.045   3.094   0.591
  874EOH      H 3501   2.780   2.960   0.499
  875EOH      O 3502   4.063   1.436   2.375
  875EOH      C 3503   4.059   1.298   2.337
  875EOH      C 3504   3.929   1.239   2.394
  875EOH      H 3505   4.077   1.447   2.467
  876EOH      O 3506   1.068   0.579   1.019
  876EOH      C 3507   1.157   0.473   1.055
  876EOH      C 3508   1.288   0.543   1.094
  876EOH      H 3509   0.983   0.542   1.003
  877EOH      O 3510   0.521   3.136   1.438
  877EOH      C 3511   0.659   3.101   1.453
  877EOH      C 3512   0.686   2.965   1.386
  877EOH      H 3513   0.502   3.173   1.353
  878EOH      O 3514   2.478   3.093   2.943
  878EOH      C 3515   2.518   3.083   2.806
  878EOH      C 3516   2.671   3.094   2.793
  878EOH      H 3517   2.383   3.089   2.943
  879EOH      O 3518   0.598   1.391   0.770
  879EOH      C 3519   0.691   1.285   0.747
  879EOH      C 3520   0.699   1.252   0.597
  879EOH      H 3521   0.514   1.354   0.793
  880EOH      O 3522   2.097   4.668   4.553
  880EOH      C 3523   2.192   0.044   4.631
  880EOH      C 3524   2.210   4.681   0.074
  880EOH      H 3525   2.042   0.031   4.505
  881EOH      O 3526   3.970   3.873   3.614
  881EOH      C 3527   3.918   3.741   3.630
  881EOH      C 3528   3.851   3.708   3.765
  881EOH      H 3529   4.043   3.877   3.674
  882EOH      O 3530   0.810   0.263   0.897
  882EOH      C 3531   0.861   0.164   0.987
  882EOH      C 3532   0.941   0.057   0.911
  882EOH      H 3533   0.782   0.221   0.817
  883EOH      O 3534   4.056   2.933   4.331
  883EOH      C 3535   3.933   2.968   4.395
  883EOH      C 3536   3.928   3.120   4.417
  883EOH      H 3537   4.126   2.955   4.391
  884EOH      O 3538   2.456   3.577   3.954
  884EOH      C 3539   2.564   3.502   3.897
  884EOH      C 3540   2.532   3.352   3.898
  884EOH      H 3541   2.440   3.537   4.038
  885EOH      O 3542   2.476   0.701   1.943
  885EOH      C 3543   2.360   0.633   1.895
  885EOH      C 3544   2.343   0.488   1.943
  885EOH      H 3545   2.511   0.755   1.874
  886EOH      O 3546   2.881   1.569   3.652
  886EOH      C 3547   2.788   1.582   3.760
  886EOH      C 3548   2.868   1.538   3.884
  886EOH      H 3549   2.896   1.477   3.635
  887EOH      O 3550   3.222   4.489   0.140
  887EOH      C 3551   3.245   4.567   0.022
  887EOH      C 3552   3.287   0.008   0.072
  887EOH      H 3553   3.133   4.506   0.167
  888EOH      O 3554   2.724   3.286   1.211
  888EOH      C 3555   2.678   3.387   1.302
  888EOH      C 3556   2.692   3.326   1.442
  888EOH      H 3557   2.686   3.209   1.249
  889EOH      O 3558   2.817   2.241   4.206
  889EOH      C 3559   2.881   2.163   4.307
  889EOH      C 3560   2.792   2.142   4.431
  889EOH      H 3561   2.871   2.242   4.128
  890EOH      O 3562   2.946   2.559   1.673
  890EOH      C 3563   2.884   2.481   1.775
  890EOH      C 3564   2.902   2.332   1.744
  890EOH      H 3565   2.882   2.619   1.637
  891EOH      O 3566   3.029   3.262   2.483
  891EOH      C 3567   2.901   3.282   2.421
  891EOH      C 3568   2.910   3.224   2.279
  891EOH      H 3569   3.009   3.270   2.575
  892EOH      O 3570   3.244   0.566   0.761
  892EOH      C 3571   3.248   0.649   0.877
  892EOH      C 3572   3.387   0.715   0.881
  892EOH      H 3573   3.230   0.478   0.792
  893EOH      O 3574   3.834   1.550   1.223
  893EOH      C 3575   3.839   1.688   1.262
  893EOH      C 3576   3.861   1.788   1.147
  893EOH      H 3577   3.874   1.508   1.297
  894EOH      O 3578   3.802   3.327   1.969
  894EOH      C 3579   3.783   3.416   2.079
  894EOH      C 3580   3.641   3.476   2.083
  894EOH      H 3581   3.871   3.269   1.996
  895EOH      O 3582   4.311   0.936   1.105
  895EOH      C 3583   4.405   0.870   1.019
  895EOH      C 3584   4.329   0.850   0.887
  895EOH      H 3585   4.264   1.006   1.063
  896EOH      O 3586   4.035   2.896   1.560
  896EOH      C 3587   4.008   3.032   1.527
  896EOH      C 3588   3.860   3.074   1.541
  896EOH      H 3589   4.093   2.892   1.634
  897EOH      O 3590   2.479   3.238   4.507
  897EOH      C 3591   2.453   3.146   4.614
  897EOH      C 3592   2.334   3.058   4.572
  897EOH      H 3593   2.490   3.325   4.542
  898EOH      O 3594   0.411   0.748   4.132
  898EOH      C 3595   0.427   0.797   3.999
  898EOH      C 3596   0.310   0.736   3.921
  898EOH      H 3597   0.450   0.814   4.187
  899EOH      O 3598   3.608   3.742   0.582
  899EOH      C 3599   3.479   3.704   0.633
  899EOH      C 3600   3.357   3.791   0.597
  899EOH      H 3601   3.651   3.663   0.552
  900EOH      O 3602   4.664   2.465   1.550
  900EOH      C 3603   4.677   2.500   1.689
  900EOH      C 3604   4.659   2.376   1.780
  900EOH      H 3605   0.050   2.429   1.526
  901EOH      O 3606   2.983   4.569   1.087
  901EOH      C 3607   2.900   4.619   1.192
  901EOH      C 3608   2.897   0.074   1.168
  901EOH      H 3609   2.944   4.595   1.005
  902EOH      O 3610   4.450   0.726   2.668
  902EOH      C 3611   4.380   0.692   2.549
  902EOH      C 3612   4.247   0.622   2.584
  902EOH      H 3613   4.511   0.655   2.682
  903EOH      O 3614   1.429   2.783   2.140
  903EOH      C 3615   1.435   2.645   2.106
  903EOH      C 3616   1.580   2.598   2.084
  903EOH      H 3617   1.475   2.798   2.222
  904EOH      O 3618   0.254   1.406   3.385
  904EOH      C 3619   0.297   1.435   3.518
  904EOH      C 3620   0.192   1.484   3.619
  904EOH      H 3621   0.187   1.340   3.395
  905EOH      O 3622   3.955   0.341   2.360
  905EOH      C 3623   3.873   0.276   2.263
  905EOH      C 3624   3.940   0.140   2.232
  905EOH      H 3625   4.009   0.407   2.320
  906EOH      O 3626   0.397   1.375   4.307
  906EOH      C 3627   0.274   1.322   4.259
  906EOH      C 3628   0.299   1.213   4.153
  906EOH      H 3629   0.390   1.467   4.286
  907EOH      O 3630   1.733   1.047   3.664
  907EOH      C 3631   1.609   1.049   3.593
  907EOH      C 3632   1.578   1.199   3.578
  907EOH      H 3633   1.809   1.067   3.612
  908EOH      O 3634   3.238   4.662   1.187
  908EOH      C 3635   3.337   4.566   1.227
  908EOH      C 3636   3.423   4.633   1.336
  908EOH      H 3637   3.164   4.616   1.150
  909EOH      O 3638   1.043   2.504   2.842
  909EOH      C 3639   0.901   2.518   2.846
  909EOH      C 3640   0.852   2.624   2.746
  909EOH      H 3641   1.065   2.422   2.884
  910EOH      O 3642   1.019   0.030   3.788
  910EOH      C 3643   0.906   0.001   3.871
  910EOH      C 3644   0.806   0.116   3.847
  910EOH      H 3645   1.066   0.105   3.821
  911EOH      O 3646   0.749   0.407   4.503
  911EOH      C 3647   0.818   0.503   4.584
  911EOH      C 3648   0.966   0.461   4.580
  911EOH      H 3649   0.660   0.440   4.502
  912EOH      O 3650   4.337   1.043   1.559
  912EOH      C 3651   4.446   1.033   1.467
  912EOH      C 3652   4.395   1.107   1.341
  912EOH      H 3653   4.367   1.061   1.647
  913EOH      O 3654   3.926   2.037   1.474
  913EOH      C 3655   4.011   2.037   1.359
  913EOH      C 3656   4.156   1.999   1.394
  913EOH      H 3657   3.947   2.108   1.532
  914EOH      O 3658   1.318   3.238   4.429
  914EOH      C 3659   1.322   3.380   4.446
  914EOH      C 3660   1.200   3.457   4.499
  914EOH      H 3661   1.391   3.218   4.373
  915EOH      O 3662   2.441   4.289   2.526
  915EOH      C 3663   2.313   4.235   2.562
  915EOH      C 3664   2.309   4.231   2.716
  915EOH      H 3665   2.431   4.370   2.479
  916EOH      O 3666   2.701   0.733   1.753
  916EOH      C 3667   2.828   0.772   1.806
  916EOH      C 3668   2.926   0.666   1.859
  916EOH      H 3669   2.713   0.685   1.673
  917EOH      O 3670   0.968   2.393   1.355
  917EOH      C 3671   1.023   2.325   1.469
  917EOH      C 3672   0.910   2.291   1.567
  917EOH      H 3673   1.039   2.406   1.294
  918EOH      O 3674   0.746   1.749   2.171
  918EOH      C 3675   0.747   1.685   2.043
  918EOH      C 3676   0.685   1.770   1.931
  918EOH      H 3677   0.655   1.771   2.180
  919EOH      O 3678   3.562   2.467   0.098
  919EOH      C 3679   3.471   2.358   0.117
  919EOH      C 3680   3.442   2.291   4.679
  919EOH      H 3681   3.514   2.545   0.122
  920EOH      O 3682   4.440   2.573   1.286
  920EOH      C 3683   4.437   2.692   1.365
  920EOH      C 3684   4.554   2.776   1.312
  920EOH      H 3685   4.428   2.500   1.345
  921EOH      O 3686   2.705   2.822   0.448
  921EOH      C 3687   2.654   2.709   0.520
  921EOH      C 3688   2.561   2.748   0.637
  921EOH      H 3689   2.757   2.790   0.376
  922EOH      O 3690   4.141   3.811   4.025
  922EOH      C 3691   4.176   3.673   4.008
  922EOH      C 3692   4.049   3.586   4.017
  922EOH      H 3693   4.219   3.848   4.062
  923EOH      O 3694   2.715   1.722   0.262
  923EOH      C 3695   2.639   1.843   0.260
  923EOH      C 3696   2.695   1.930   0.145
  923EOH      H 3697   2.654   1.655   0.289
  924EOH      O 3698   2.037   4.405   3.970
  924EOH      C 3699   2.054   4.263   3.969
  924EOH      C 3700   1.949   4.190   4.055
  924EOH      H 3701   2.120   4.448   3.979
  925EOH      O 3702   0.768   1.685   0.077
  925EOH      C 3703   0.823   1.769   4.673
  925EOH      C 3704   0.754   1.750   4.537
  925EOH      H 3705   0.842   1.636   0.109
  926EOH      O 3706   1.804   3.952   3.264
  926EOH      C 3707   1.773   3.906   3.396
  926EOH      C 3708   1.867   3.947   3.510
  926EOH      H 3709   1.721   3.967   3.221
  927EOH      O 3710   1.299   0.017   4.099
  927EOH      C 3711   1.412   0.004   4.186
  927EOH      C 3712   1.366   4.633   4.317
  927EOH      H 3713   1.270   4.628   4.074
  928EOH      O 3714   1.546   4.147   2.218
  928EOH      C 3715   1.661   4.218   2.171
  928EOH      C 3716   1.673   4.326   2.280
  928EOH      H 3717   1.497   4.111   2.146
  929EOH      O 3718   3.198   2.318   0.844
  929EOH      C 3719   3.103   2.409   0.788
  929EOH      C 3720   2.960   2.395   0.843
  929EOH      H 3721   3.184   2.231   0.809
  930EOH      O 3722   3.358   2.994   2.651
  930EOH      C 3723   3.333   2.905   2.760
  930EOH      C 3724   3.462   2.878   2.840
  930EOH      H 3725   3.284   3.004   2.592
  931EOH      O 3726   4.639   4.330   0.578
  931EOH      C 3727   4.690   4.366   0.706
  931EOH      C 3728   0.143   4.332   0.702
  931EOH      H 3729   4.679   4.383   0.511
  932EOH      O 3730   1.335   2.564   4.116
  932EOH      C 3731   1.355   2.649   4.003
  932EOH      C 3732   1.442   2.773   4.032
  932EOH      H 3733   1.272   2.497   4.095
  933EOH      O 3734   3.420   1.149   4.076
  933EOH      C 3735   3.437   1.268   4.153
  933EOH      C 3736   3.448   1.229   4.301
  933EOH      H 3737   3.491   1.149   4.013
  934EOH      O 3738   3.467   2.700   0.152
  934EOH      C 3739   3.543   2.803   0.215
  934EOH      C 3740   3.607   2.903   0.116
  934EOH      H 3741   3.402   2.735   0.092
  935EOH      O 3742   1.849   2.804   1.543
  935EOH      C 3743   1.817   2.943   1.561
  935EOH      C 3744   1.666   2.972   1.561
  935EOH      H 3745   1.921   2.814   1.482
  936EOH      O 3746   4.510   0.754   3.780
  936EOH      C 3747   4.430   0.656   3.715
  936EOH      C 3748   4.524   0.563   3.635
  936EOH      H 3749   4.526   0.714   3.865
  937EOH      O 3750   3.061   1.123   3.909
  937EOH      C 3751   2.984   1.196   4.005
  937EOH      C 3752   2.843   1.135   4.009
  937EOH      H 3753   3.117   1.072   3.965
  938EOH      O 3754   0.304   4.643   3.893
  938EOH      C 3755   0.382   4.525   3.873
  938EOH      C 3756   0.496   4.529   3.977
  938EOH      H 3757   0.230   4.626   3.950
  939EOH      O 3758   0.374   1.619   4.278
  939EOH      C 3759   0.410   1.734   4.354
  939EOH      C 3760   0.515   1.823   4.285
  939EOH      H 3761   0.314   1.653   4.213
  940EOH      O 3762   2.370   3.502   2.371
  940EOH      C 3763   2.496   3.448   2.329
  940EOH      C 3764   2.466   3.352   2.212
  940EOH      H 3765   2.364   3.590   2.337
  941EOH      O 3766   0.116   4.535   1.321
  941EOH      C 3767   0.102   4.646   1.410
  941EOH      C 3768   0.166   4.603   1.544
  941EOH      H 3769   0.042   4.540   1.263
  942EOH      O 3770   1.752   3.937   1.323
  942EOH      C 3771   1.791   4.044   1.410
  942EOH      C 3772   1.723   4.175   1.365
  942EOH      H 3773   1.798   3.952   1.242
  943EOH      O 3774   4.184   2.092   0.787
  943EOH      C 3775   4.189   2.177   0.902
  943EOH      C 3776   4.131   2.094   1.018
  943EOH      H 3777   4.219   2.138   0.711
  944EOH      O 3778   4.121   2.740   4.186
  944EOH      C 3779   4.045   2.633   4.243
  944EOH      C 3780   3.921   2.602   4.157
  944EOH      H 3781   4.098   2.820   4.231
  945EOH      O 3782   4.407   1.330   3.890
  945EOH      C 3783   4.393   1.216   3.974
  945EOH      C 3784   4.510   1.231   4.074
  945EOH      H 3785   4.337   1.324   3.827
  946EOH      O 3786   3.253   3.925   3.912
  946EOH      C 3787   3.344   3.904   3.804
  946EOH      C 3788   3.345   3.760   3.751
  946EOH      H 3789   3.167   3.916   3.873
  947EOH      O 3790   3.449   2.055   3.946
  947EOH      C 3791   3.479   1.937   4.022
  947EOH      C 3792   3.423   1.816   3.944
  947EOH      H 3793   3.508   2.121   3.980
  948EOH      O 3794   2.420   3.864   2.046
  948EOH      C 3795   2.392   3.984   1.974
  948EOH      C 3796   2.253   4.044   2.004
  948EOH      H 3797   2.486   3.814   2.000
  949EOH      O 3798   2.910   3.474   3.350
  949EOH      C 3799   2.799   3.475   3.439
  949EOH      C 3800   2.730   3.340   3.414
  949EOH      H 3801   2.928   3.564   3.325
  950EOH      O 3802   1.536   0.371   0.917
  950EOH      C 3803   1.672   0.414   0.928
  950EOH      C 3804   1.677   0.559   0.879
  950EOH      H 3805   1.519   0.316   0.993
  951EOH      O 3806   1.511   2.170   0.671
  951EOH      C 3807   1.514   2.253   0.555
  951EOH      C 3808   1.657   2.294   0.513
  951EOH      H 3809   1.550   2.086   0.653
  952EOH      O 3810   4.238   2.771   2.927
  952EOH      C 3811   4.311   2.761   3.050
  952EOH      C 3812   4.453   2.820   3.048
  952EOH      H 3813   4.152   2.738   2.945
  953EOH      O 3814   0.029   0.444   1.057
  953EOH      C 3815   0.008   0.375   1.180
  953EOH      C 3816   0.133   0.398   1.268
  953EOH      H 3817   0.019   0.536   1.076
  954EOH      O 3818   3.381   3.726   4.647
  954EOH      C 3819   3.323   3.834   0.024
  954EOH      C 3820   3.431   3.893   0.117
  954EOH      H 3821   3.442   3.766   4.587
  955EOH      O 3822   3.376   0.339   3.544
  955EOH      C 3823   3.236   0.333   3.514
  955EOH      C 3824   3.188   0.475   3.546
  955EOH      H 3825   3.415   0.408   3.492
  956EOH      O 3826   4.279   2.257   3.800
  956EOH      C 3827   4.208   2.372   3.846
  956EOH      C 3828   4.232   2.482   3.741
  956EOH      H 3829   4.270   2.198   3.873
  957EOH      O 3830   3.230   1.647   2.895
  957EOH      C 3831   3.242   1.778   2.951
  957EOH      C 3832   3.157   1.888   2.885
  957EOH      H 3833   3.156   1.596   2.923
  958EOH      O 3834   3.763   4.388   2.945
  958EOH      C 3835   3.811   4.326   3.064
  958EOH      C 3836   3.824   4.172   3.058
  958EOH      H 3837   3.719   4.468   2.970
  959EOH      O 3838   0.804   2.856   2.339
  959EOH      C 3839   0.674   2.912   2.317
  959EOH      C 3840   0.606   2.970   2.442
  959EOH      H 3841   0.845   2.885   2.259
  960EOH      O 3842   3.857   1.649   3.502
  960EOH      C 3843   3.772   1.698   3.606
  960EOH      C 3844   3.772   1.590   3.716
  960EOH      H 3845   3.885   1.722   3.450
  961EOH      O 3846   1.272   2.123   0.099
  961EOH      C 3847   1.364   2.230   0.073
  961EOH      C 3848   1.471   2.236   0.184
  961EOH      H 3849   1.302   2.042   0.060
  962EOH      O 3850   4.536   3.448   0.269
  962EOH      C 3851   4.564   3.359   0.377
  962EOH      C 3852   4.624   3.224   0.334
  962EOH      H 3853   4.522   3.397   0.191
  963EOH      O 3854   1.611   0.185   0.518
  963EOH      C 3855   1.673   0.070   0.577
  963EOH      C 3856   1.565   4.670   0.627
  963EOH      H 3857   1.561   0.230   0.585
  964EOH      O 3858   0.784   3.461   4.246
  964EOH      C 3859   0.848   3.354   4.175
  964EOH      C 3860   0.962   3.303   4.265
  964EOH      H 3861   0.731   3.511   4.186
  965EOH      O 3862   3.617   2.585   3.070
  965EOH      C 3863   3.511   2.635   3.152
  965EOH      C 3864   3.515   2.617   3.305
  965EOH      H 3865   3.581   2.571   2.984
  966EOH      O 3866   2.868   2.952   3.673
  966EOH      C 3867   2.764   3.046   3.703
  966EOH      C 3868   2.813   3.132   3.822
  966EOH      H 3869   2.908   2.964   3.588
  967EOH      O 3870   4.166   1.811   4.176
  967EOH      C 3871   4.196   1.684   4.116
  967EOH      C 3872   4.167   1.681   3.965
  967EOH      H 3873   4.163   1.799   4.270
  968EOH      O 3874   3.421   3.737   3.293
  968EOH      C 3875   3.537   3.712   3.213
  968EOH      C 3876   3.647   3.813   3.251
  968EOH      H 3877   3.395   3.648   3.313
  969EOH      O 3878   3.887   1.834   3.327
  969EOH      C 3879   3.916   1.896   3.202
  969EOH      C 3880   3.965   1.784   3.108
  969EOH      H 3881   3.861   1.908   3.379
  970EOH      O 3882   4.006   4.279   4.655
  970EOH      C 3883   3.882   4.251   0.023
  970EOH      C 3884   3.785   4.352   4.656
  970EOH      H 3885   4.017   4.372   4.661
  971EOH      O 3886   3.712   3.519   0.474
  971EOH      C 3887   3.849   3.480   0.462
  971EOH      C 3888   3.927   3.590   0.537
  971EOH      H 3889   3.668   3.436   0.462
  972EOH      O 3890   2.987   4.117   0.980
  972EOH      C 3891   3.126   4.084   0.986
  972EOH      C 3892   3.203   4.215   0.963
  972EOH      H 3893   2.975   4.168   1.059
  973EOH      O 3894   3.712   4.654   1.177
  973EOH      C 3895   3.799   4.613   1.282
  973EOH      C 3896   3.886   4.491   1.246
  973EOH      H 3897   3.679   0.044   1.188
  974EOH      O 3898   3.193   3.476   0.717
  974EOH      C 3899   3.097   3.576   0.752
  974EOH      C 3900   2.977   3.555   0.657
  974EOH      H 3901   3.262   3.470   0.782
  975EOH      O 3902   4.204   4.350   2.012
  975EOH      C 3903   4.224   4.333   2.152
  975EOH      C 3904   4.327   4.223   2.184
  975EOH      H 3905   4.153   4.429   1.999
  976EOH      O 3906   3.679   2.986   3.557
  976EOH      C 3907   3.677   3.016   3.697
  976EOH      C 3908   3.535   3.051   3.745
  976EOH      H 3909   3.763   2.947   3.538
  977EOH      O 3910   1.082   4.069   0.577
  977EOH      C 3911   0.979   4.002   0.504
  977EOH      C 3912   0.960   4.067   0.365
  977EOH      H 3913   1.058   4.160   0.587
  978EOH      O 3914   3.539   3.142   2.561
  978EOH      C 3915   3.566   3.107   2.425
  978EOH      C 3916   3.600   2.959   2.402
  978EOH      H 3917   3.483   3.078   2.603
  979EOH      O 3918   4.426   2.319   4.254
  979EOH      C 3919   4.421   2.422   4.155
  979EOH      C 3920   4.564   2.468   4.119
  979EOH      H 3921   4.336   2.291   4.264
  980EOH      O 3922   0.224   2.172   2.959
  980EOH      C 3923   0.334   2.102   3.018
  980EOH      C 3924   0.413   2.203   3.104
  980EOH      H 3925   0.166   2.104   2.929
  981EOH      O 3926   4.553   4.334   2.820
  981EOH      C 3927   4.550   4.331   2.677
  981EOH      C 3928   4.676   4.253   2.638
  981EOH      H 3929   4.638   4.347   2.860
  982EOH      O 3930   0.346   2.158   4.512
  982EOH      C 3931   0.338   2.161   4.654
  982EOH      C 3932   0.403   2.278   0.033
  982EOH      H 3933   0.290   2.226   4.478
  983EOH      O 3934   4.377   4.419   1.725
  983EOH      C 3935   4.375   4.417   1.582
  983EOH      C 3936   4.403   4.562   1.538
  983EOH      H 3937   4.361   4.330   1.751
  984EOH      O 3938   4.463   2.683   4.649
  984EOH      C 3939   4.418   2.632   4.523
  984EOH      C 3940   4.495   2.696   4.406
  984EOH      H 3941   4.422   2.640   0.025
  985EOH      O 3942   0.527   0.157   1.350
  985EOH      C 3943   0.442   0.266   1.389
  985EOH      C 3944   0.541   0.368   1.446
  985EOH      H 3945   0.491   0.094   1.289
  986EOH      O 3946   0.614   2.169   1.298
  986EOH      C 3947   0.557   2.139   1.170
  986EOH      C 3948   0.658   2.096   1.061
  986EOH      H 3949   0.641   2.259   1.306
  987EOH      O 3950   0.451   3.542   2.538
  987EOH      C 3951   0.430   3.683   2.555
  987EOH      C 3952   0.380   3.703   2.699
  987EOH      H 3953   0.369   3.494   2.534
  988EOH      O 3954   3.311   2.764   4.643
  988EOH      C 3955   3.274   2.638   4.587
  988EOH      C 3956   3.122   2.641   4.567
  988EOH      H 3957   3.321   2.825   4.571
  989EOH      O 3958   1.293   1.578   3.389
  989EOH      C 3959   1.419   1.578   3.321
  989EOH      C 3960   1.537   1.528   3.407
  989EOH      H 3961   1.226   1.616   3.335
  990EOH      O 3962   1.257   0.451   3.198
  990EOH      C 3963   1.318   0.535   3.297
  990EOH      C 3964   1.279   0.683   3.280
  990EOH      H 3965   1.296   0.366   3.211
  991EOH      O 3966   0.180   4.116   2.259
  991EOH      C 3967   0.302   4.046   2.287
  991EOH      C 3968   0.306   4.040   2.440
  991EOH      H 3969   0.203   4.183   2.196
  992EOH      O 3970   1.462   0.212   1.104
  992EOH      C 3971   1.373   0.103   1.076
  992EOH      C 3972   1.444   4.673   1.029
  992EOH      H 3973   1.486   0.200   1.195
  993EOH      O 3974   4.516   0.247   3.306
  993EOH      C 3975   4.527   0.386   3.277
  993EOH      C 3976   4.669   0.419   3.229
  993EOH      H 3977   4.554   0.204   3.230
  994EOH      O 3978   4.272   0.755   3.189
  994EOH      C 3979   4.253   0.779   3.329
  994EOH      C 3980   4.356   0.879   3.386
  994EOH      H 3981   4.201   0.792   3.139
  995EOH      O 3982   1.675   0.695   1.412
  995EOH      C 3983   1.573   0.680   1.313
  995EOH      C 3984   1.452   0.681   1.409
  995EOH      H 3985   1.702   0.785   1.413
  996EOH      O 3986   2.214   0.620   1.142
  996EOH      C 3987   2.131   0.519   1.200
  996EOH      C 3988   1.990   0.517   1.138
  996EOH      H 3989   2.289   0.630   1.199
  997EOH      O 3990   4.255   1.462   0.087
  997EOH      C 3991   4.394   1.486   0.107
  997EOH      C 3992   4.474   1.361   0.066
  997EOH      H 3993   4.246   1.375   0.120
  998EOH      O 3994   2.083   2.935   1.343
  998EOH      C 3995   2.031   3.028   1.248
  998EOH      C 3996   2.074   3.169   1.293
  998EOH      H 3997   2.142   2.876   1.298
  999EOH      O 3998   2.162   3.320   2.380
  999EOH      C 3999   2.080   3.395   2.290
  999EOH      C 4000   1.944   3.323   2.305
  999EOH      H 4001   2.237   3.376   2.384
 1000EOH      O 4002   4.292   3.296   1.057
 1000EOH      C 4003   4.299   3.189   1.150
 1000EOH      C 4004   4.265   3.241   1.291
 1000EOH      H 4005   4.202   3.303   1.027
 1001EOH      O 4006   1.334   3.567   2.871
 1001EOH      C 4007   1.197   3.579   2.912
 1001EOH      C 4008   1.093   3.583   2.798
 1001EOH      H 4009   1.366   3.649   2.836
 1002EOH      O 4010   1.030   4.392   2.344
 1002EOH      C 4011   1.124   4.301   2.402
 1002EOH      C 4012   1.153   4.318   2.552
 1002EOH      H 4013   0.982   4.348   2.275
 1003EOH      O 4014   3.756   3.968   0.527
 1003EOH      C 4015   3.813   3.980   0.397
 1003EOH      C 4016   3.947   4.055   0.405
 1003EOH      H 4017   3.714   3.884   0.534
 1004EOH      O 4018   3.307   4.182   2.748
 1004EOH      C 4019   3.245   4.116   2.638
 1004EOH      C 4020   3.294   4.191   2.513
 1004EOH      H 4021   3.392   4.145   2.766
 1005EOH      O 4022   0.144   4.526   4.080
 1005EOH      C 4023   0.114   4.580   4.209
 1005EOH      C 4024   0.246   4.636   4.266
 1005EOH      H 4025   0.079   4.464   4.051
 1006EOH      O 4026   4.588   4.529   1.187
 1006EOH      C 4027   4.509   4.620   1.109
 1006EOH      C 4028   4.446   0.034   1.194
 1006EOH      H 4029   4.532   4.455   1.204
 1007EOH      O 4030   3.678   3.492   2.731
 1007EOH      C 4031   3.649   3.549   2.859
 1007EOH      C 4032   3.790   3.574   2.918
 1007EOH      H 4033   3.604   3.436   2.711
 1008EOH      O 4034   0.110   3.758   0.821
 1008EOH      C 4035   0.103   3.784   0.681
 1008EOH      C 4036   4.653   3.805   0.643
 1008EOH      H 4037   0.088   3.668   0.840
 1009EOH      O 4038   1.728   0.900   1.702
 1009EOH      C 4039   1.795   0.882   1.827
 1009EOH      C 4040   1.919   0.800   1.785
 1009EOH      H 4041   1.667   0.829   1.690
 1010EOH      O 4042   3.875   3.421   2.608
 1010EOH      C 4043   3.845   3.300   2.538
 1010EOH      C 4044   3.915   3.294   2.401
 1010EOH      H 4045   3.807   3.428   2.672
 1011EOH      O 4046   2.608   4.001   1.144
 1011EOH      C 4047   2.578   3.905   1.245
 1011EOH      C 4048   2.449   3.950   1.316
 1011EOH      H 4049   2.683   3.963   1.101
 1012EOH      O 4050   0.436   3.210   1.188
 1012EOH      C 4051   0.372   3.329   1.140
 1012EOH      C 4052   0.403   3.431   1.252
 1012EOH      H 4053   0.450   3.149   1.117
 1013EOH      O 4054   3.008   2.769   3.790
 1013EOH      C 4055   3.009   2.781   3.932
 1013EOH      C 4056   2.868   2.794   3.993
 1013EOH      H 4057   2.944   2.829   3.755
 1014EOH      O 4058   2.187   1.552   2.113
 1014EOH      C 4059   2.058   1.613   2.107
 1014EOH      C 4060   2.055   1.747   2.032
 1014EOH      H 4061   2.172   1.483   2.176
 1015EOH      O 4062   4.348   4.697   1.837
 1015EOH      C 4063   4.410   0.003   1.966
 1015EOH      C 4064   4.353   0.112   2.058
 1015EOH      H 4065   4.373   4.613   1.802
 1016EOH      O 4066   3.456   4.051   1.914
 1016EOH      C 4067   3.567   4.047   1.824
 1016EOH      C 4068   3.523   3.965   1.701
 1016EOH      H 4069   3.461   4.109   1.988
 1017EOH      O 4070   3.513   4.640   3.235
 1017EOH      C 4071   3.371   4.633   3.234
 1017EOH      C 4072   3.300   0.063   3.281
 1017EOH      H 4073   3.546   4.648   3.323
 1018EOH      O 4074   1.118   2.318   2.981
 1018EOH      C 4075   1.121   2.186   2.925
 1018EOH      C 4076   1.096   2.188   2.773
 1018EOH      H 4077   1.145   2.298   3.070
 1019EOH      O 4078   4.038   1.131   4.585
 1019EOH      C 4079   3.928   1.104   4.498
 1019EOH      C 4080   3.789   1.118   4.562
 1019EOH      H 4081   4.110   1.130   4.524
 1020EOH      O 4082   3.588   4.050   2.299
 1020EOH      C 4083   3.730   4.054   2.309
 1020EOH      C 4084   3.801   4.065   2.172
 1020EOH      H 4085   3.579   4.005   2.382
 1021EOH      O 4086   3.469   3.355   2.684
 1021EOH      C 4087   3.331   3.380   2.653
 1021EOH      C 4088   3.295   3.506   2.732
 1021EOH      H 4089   3.491   3.274   2.642
 1022EOH      O 4090   3.056   3.102   1.905
 1022EOH      C 4091   3.094   3.038   1.783
 1022EOH      C 4092   2.969   2.997   1.702
 1022EOH      H 4093   3.129   3.146   1.947
 1023EOH      O 4094   0.019   0.559   1.957
 1023EOH      C 4095   4.660   0.478   2.061
 1023EOH      C 4096   4.556   0.387   1.992
 1023EOH      H 4097   0.091   0.608   1.994
 1024EOH      O 4098   0.849   2.037   3.654
 1024EOH      C 4099   0.768   1.926   3.695
 1024EOH      C 4100   0.709   1.859   3.569
 1024EOH      H 4101   0.796   2.114   3.668
 1025EOH      O 4102   2.972   4.583   0.222
 1025EOH      C 4103   2.985   4.691   0.314
 1025EOH      C 4104   3.055   4.642   0.442
 1025EOH      H 4105   2.926   4.616   0.147
 1026EOH      O 4106   3.241   4.543   4.150
 1026EOH      C 4107   3.167   4.650   4.210
 1026EOH      C 4108   3.229   0.087   4.168
 1026EOH      H 4109   3.192   4.467   4.179
 1027EOH      O 4110   1.132   2.298   0.997
 1027EOH      C 4111   1.026   2.204   0.980
 1027EOH      C 4112   1.086   2.065   0.948
 1027EOH      H 4113   1.157   2.329   0.911
 1028EOH      O 4114   3.993   4.023   3.401
 1028EOH      C 4115   4.117   3.987   3.339
 1028EOH      C 4116   4.238   4.059   3.402
 1028EOH      H 4117   3.984   3.962   3.473
 1029EOH      O 4118   4.255   2.978   4.458
 1029EOH      C 4119   4.349   3.073   4.407
 1029EOH      C 4120   4.326   3.128   4.265
 1029EOH      H 4121   4.276   2.955   4.548
 1030EOH      O 4122   0.266   4.668   3.410
 1030EOH      C 4123   0.125   4.671   3.431
 1030EOH      C 4124   0.074   4.527   3.411
 1030EOH      H 4125   0.288   0.059   3.437
 1031EOH      O 4126   4.659   1.648   4.048
 1031EOH      C 4127   4.596   1.617   4.173
 1031EOH      C 4128   4.697   1.629   4.288
 1031EOH      H 4129   4.598   1.620   3.982
 1032EOH      O 4130   1.446   4.185   0.214
 1032EOH      C 4131   1.398   4.080   0.299
 1032EOH      C 4132   1.443   4.111   0.444
 1032EOH      H 4133   1.379   4.189   0.148
 1033EOH      O 4134   3.017   3.934   3.859
 1033EOH      C 4135   2.910   3.884   3.939
 1033EOH      C 4136   2.851   4.007   4.012
 1033EOH      H 4137   2.985   4.004   3.805
 1034EOH      O 4138   1.976   3.587   2.783
 1034EOH      C 4139   1.848   3.544   2.738
 1034EOH      C 4140   1.843   3.552   2.584
 1034EOH      H 4141   1.981   3.593   2.877
 1035EOH      O 4142   4.093   0.495   2.205
 1035EOH      C 4143   4.229   0.501   2.162
 1035EOH      C 4144   4.313   0.423   2.265
 1035EOH      H 4145   4.062   0.568   2.153
 1036EOH      O 4146   2.857   2.981   0.070
 1036EOH      C 4147   2.765   2.961   4.659
 1036EOH      C 4148   2.740   2.810   4.638
 1036EOH      H 4149   2.894   3.068   0.073
 1037EOH      O 4150   2.963   3.945   0.153
 1037EOH      C 4151   2.940   3.996   0.285
 1037EOH      C 4152   3.025   3.925   0.393
 1037EOH      H 4153   3.036   3.993   0.118
 1038EOH      O 4154   3.160   4.102   0.050
 1038EOH      C 4155   3.092   4.200   4.668
 1038EOH      C 4156   3.030   4.135   4.542
 1038EOH      H 4157   3.220   4.158   0.096
 1039EOH      O 4158   4.366   3.705   3.203
 1039EOH      C 4159   4.283   3.725   3.088
 1039EOH      C 4160   4.133   3.723   3.121
 1039EOH      H 4161   4.444   3.753   3.182
 1040EOH      O 4162   0.433   2.844   3.349
 1040EOH      C 4163   0.335   2.757   3.406
 1040EOH      C 4164   0.378   2.666   3.522
 1040EOH      H 4165   0.390   2.903   3.289
 1041EOH      O 4166   3.613   3.197   1.857
 1041EOH      C 4167   3.597   3.263   1.732
 1041EOH      C 4168   3.494   3.378   1.721
 1041EOH      H 4169   3.677   3.252   1.900
 1042EOH      O 4170   3.878   2.639   0.761
 1042EOH      C 4171   3.786   2.531   0.780
 1042EOH      C 4172   3.686   2.531   0.662
 1042EOH      H 4173   3.926   2.648   0.842
 1043EOH      O 4174   4.633   2.546   0.964
 1043EOH      C 4175   0.024   2.658   0.974
 1043EOH      C 4176   4.668   2.771   0.883
 1043EOH      H 4177   4.592   2.530   1.047
 1044EOH      O 4178   2.977   0.210   4.608
 1044EOH      C 4179   3.068   0.310   4.562
 1044EOH      C 4180   3.057   0.425   4.662
 1044EOH      H 4181   2.890   0.246   4.597
   4.69765   4.69765   4.69765
