Ethanol t= 1020.00000 step= 1020000
10277
    1EOH      O    1   1.504   1.712   0.901
    1EOH      C    2   1.645   1.738   0.908
    1EOH      C    3   1.682   1.773   1.054
    1EOH      H    4   1.468   1.795   0.926
    1EOH      H    5   1.668   1.824   0.846
    1EOH      H    6   1.700   1.649   0.876
    1EOH      H    7   1.783   1.812   1.047
    1EOH      H    8   1.669   1.687   1.119
    1EOH      H    9   1.631   1.863   1.089
    2EOH      O   10   0.956   1.651   2.026
    2EOH      C   11   0.816   1.629   2.014
    2EOH      C   12   0.728   1.724   1.930
    2EOH      H   13   1.000   1.658   1.942
    3EOH      O   14   2.423   3.228   2.809
    3EOH      C   15   2.320   3.281   2.724
    3EOH      C   16   2.188   3.202   2.728
    3EOH      H   17   2.415   3.271   2.892
    4EOH      O   18   6.135   5.323   2.197
    4EOH      C   19   6.262   5.258   2.183
    4EOH      C   20   6.276   5.202   2.040
    4EOH      H   21   6.135   5.379   2.273
    5EOH      O   22   0.926   6.298   0.126
    5EOH      C   23   0.884   6.254  -0.003
    5EOH      C   24   0.897   6.103  -0.035
    5EOH      H   25   0.887   6.233   0.182
    6EOH      O   26   4.501   0.139   5.649
    6EOH      C   27   4.508   0.146   5.792
    6EOH      C   28   4.364   0.131   5.843
    6EOH      H   29   4.451   0.212   5.617
    7EOH      O   30   5.187   2.312   1.880
    7EOH      C   31   5.227   2.289   2.016
    7EOH      C   32   5.338   2.183   2.017
    7EOH      H   33   5.260   2.348   1.831
    8EOH      O   34   5.934   5.695   0.634
    8EOH      C   35   5.802   5.733   0.596
    8EOH      C   36   5.805   5.772   0.447
    8EOH      H   37   5.934   5.603   0.614
    9EOH      O   38   1.966   3.122   3.323
    9EOH      C   39   1.885   3.118   3.206
    9EOH      C   40   1.736   3.133   3.241
    9EOH      H   41   1.972   3.033   3.355
   10EOH      O   42   1.123   4.947   2.262
   10EOH      C   43   1.094   4.813   2.304
   10EOH      C   44   1.136   4.741   2.175
   10EOH      H   45   1.068   4.973   2.190
   11EOH      O   46   5.415   5.525   0.773
   11EOH      C   47   5.419   5.438   0.887
   11EOH      C   48   5.283   5.473   0.950
   11EOH      H   49   5.439   5.612   0.802
   12EOH      O   50   5.550   4.351   0.165
   12EOH      C   51   5.681   4.386   0.119
   12EOH      C   52   5.710   4.366  -0.031
   12EOH      H   53   5.510   4.288   0.107
   13EOH      O   54   1.877   2.872   2.142
   13EOH      C   55   1.839   2.768   2.052
   13EOH      C   56   1.833   2.808   1.903
   13EOH      H   57   1.807   2.936   2.146
   14EOH      O   58   4.784   3.756   1.116
   14EOH      C   59   4.772   3.769   1.258
   14EOH      C   60   4.828   3.652   1.341
   14EOH      H   61   4.875   3.736   1.100
   15EOH      O   62   1.482   1.996   4.980
   15EOH      C   63   1.537   2.050   4.860
   15EOH      C   64   1.688   2.020   4.873
   15EOH      H   65   1.404   1.952   4.950
   16EOH      O   66   2.784   1.739   4.027
   16EOH      C   67   2.844   1.696   4.150
   16EOH      C   68   2.752   1.717   4.272
   16EOH      H   69   2.760   1.669   3.968
   17EOH      O   70   2.162   4.102   4.042
   17EOH      C   71   2.298   4.069   4.069
   17EOH      C   72   2.397   4.174   4.015
   17EOH      H   73   2.161   4.105   3.948
   18EOH      O   74   2.530   2.534   2.726
   18EOH      C   75   2.524   2.536   2.583
   18EOH      C   76   2.609   2.643   2.513
   18EOH      H   77   2.623   2.530   2.746
   19EOH      O   78   2.505   0.104   4.604
   19EOH      C   79   2.375   0.092   4.664
   19EOH      C   80   2.384  -0.052   4.716
   19EOH      H   81   2.545   0.184   4.633
   20EOH      O   82   5.703   6.128   1.823
   20EOH      C   83   5.823   6.056   1.850
   20EOH      C   84   5.812   5.903   1.833
   20EOH      H   85   5.648   6.105   1.896
   21EOH      O   86   6.178   2.158   4.885
   21EOH      C   87   6.321   2.165   4.888
   21EOH      C   88   6.396   2.031   4.899
   21EOH      H   89   6.142   2.189   4.803
   22EOH      O   90   2.962   1.643   3.645
   22EOH      C   91   3.089   1.703   3.673
   22EOH      C   92   3.137   1.796   3.559
   22EOH      H   93   2.980   1.561   3.601
   23EOH      O   94   5.281   5.646   3.505
   23EOH      C   95   5.337   5.673   3.376
   23EOH      C   96   5.418   5.549   3.333
   23EOH      H   97   5.293   5.726   3.553
   24EOH      O   98   6.138   1.446   5.347
   24EOH      C   99   6.045   1.514   5.431
   24EOH      C  100   5.916   1.431   5.452
   24EOH      H  101   6.173   1.516   5.294
   25EOH      O  102   0.404   6.161   3.029
   25EOH      C  103   0.372   6.081   3.143
   25EOH      C  104   0.499   6.017   3.203
   25EOH      H  105   0.436   6.106   2.960
   26EOH      O  106   1.337   0.366   5.986
   26EOH      C  107   1.279   0.380   6.116
   26EOH      C  108   1.217   0.241   6.139
   26EOH      H  109   1.430   0.351   5.995
   27EOH      O  110   1.761   2.562   5.000
   27EOH      C  111   1.630   2.507   5.006
   27EOH      C  112   1.627   2.388   5.104
   27EOH      H  113   1.768   2.618   5.076
   28EOH      O  114   2.058   6.089   0.883
   28EOH      C  115   2.163   6.148   0.959
   28EOH      C  116   2.129   6.143   1.109
   28EOH      H  117   2.083   6.086   0.792
   29EOH      O  118   2.892   1.660   5.523
   29EOH      C  119   3.035   1.660   5.523
   29EOH      C  120   3.077   1.798   5.471
   29EOH      H  121   2.863   1.658   5.433
   30EOH      O  122   5.783   6.253   0.734
   30EOH      C  123   5.794   6.205   0.599
   30EOH      C  124   5.941   6.216   0.557
   30EOH      H  125   5.816   6.341   0.738
   31EOH      O  126   4.593   5.957   2.771
   31EOH      C  127   4.628   5.852   2.861
   31EOH      C  128   4.660   5.723   2.783
   31EOH      H  129   4.669   6.011   2.752
   32EOH      O  130   0.590   0.895   5.362
   32EOH      C  131   0.462   0.954   5.341
   32EOH      C  132   0.365   0.841   5.303
   32EOH      H  133   0.644   0.918   5.288
   33EOH      O  134   5.776   0.267   0.990
   33EOH      C  135   5.640   0.281   1.035
   33EOH      C  136   5.565   0.152   1.072
   33EOH      H  137   5.838   0.264   1.062
   34EOH      O  138   4.777   6.009   0.452
   34EOH      C  139   4.666   6.099   0.464
   34EOH      C  140   4.544   6.005   0.461
   34EOH      H  141   4.763   5.961   0.372
   35EOH      O  142   4.523   5.563   4.362
   35EOH      C  143   4.662   5.532   4.369
   35EOH      C  144   4.686   5.501   4.518
   35EOH      H  145   4.478   5.506   4.301
   36EOH      O  146   4.432   1.025   3.580
   36EOH      C  147   4.508   1.072   3.691
   36EOH      C  148   4.636   0.989   3.711
   36EOH      H  149   4.359   1.082   3.560
   37EOH      O  150   2.088   0.965   3.442
   37EOH      C  151   2.110   0.884   3.558
   37EOH      C  152   2.052   0.945   3.687
   37EOH      H  153   2.080   0.903   3.372
   38EOH      O  154   3.100   3.383   0.251
   38EOH      C  155   3.133   3.368   0.389
   38EOH      C  156   3.059   3.475   0.471
   38EOH      H  157   3.124   3.302   0.208
   39EOH      O  158   0.430   3.398   3.004
   39EOH      C  159   0.527   3.323   3.077
   39EOH      C  160   0.649   3.281   2.993
   39EOH      H  161   0.354   3.345   2.987
   40EOH      O  162   5.328   5.509   0.514
   40EOH      C  163   5.440   5.579   0.459
   40EOH      C  164   5.426   5.729   0.488
   40EOH      H  165   5.355   5.498   0.604
   41EOH      O  166   2.652   2.777   0.849
   41EOH      C  167   2.525   2.713   0.864
   41EOH      C  168   2.518   2.608   0.976
   41EOH      H  169   2.630   2.856   0.804
   42EOH      O  170   1.213   4.321   5.720
   42EOH      C  171   1.155   4.220   5.637
   42EOH      C  172   1.233   4.206   5.504
   42EOH      H  173   1.148   4.331   5.787
   43EOH      O  174   3.851   3.667   4.434
   43EOH      C  175   3.857   3.771   4.532
   43EOH      C  176   3.860   3.709   4.673
   43EOH      H  177   3.938   3.630   4.425
   44EOH      O  178   4.327   6.242   4.811
   44EOH      C  179   4.255   6.279   4.693
   44EOH      C  180   4.146   6.380   4.733
   44EOH      H  181   4.344   6.149   4.813
   45EOH      O  182   0.099   4.885   0.758
   45EOH      C  183   0.120   4.745   0.739
   45EOH      C  184   0.004   4.687   0.656
   45EOH      H  185   0.020   4.886   0.810
   46EOH      O  186   3.897   1.615   0.752
   46EOH      C  187   3.850   1.748   0.775
   46EOH      C  188   3.919   1.846   0.679
   46EOH      H  189   3.854   1.559   0.814
   47EOH      O  190   1.657   1.148   6.055
   47EOH      C  191   1.632   1.089   5.927
   47EOH      C  192   1.480   1.075   5.905
   47EOH      H  193   1.609   1.230   6.062
   48EOH      O  194   4.117   3.857   6.133
   48EOH      C  195   4.091   3.991   6.177
   48EOH      C  196   4.135   4.102   6.079
   48EOH      H  197   4.159   3.808   6.202
   49EOH      O  198   4.056   1.850   1.870
   49EOH      C  199   4.015   1.835   2.006
   49EOH      C  200   3.968   1.979   2.035
   49EOH      H  201   4.030   1.775   1.820
   50EOH      O  202   3.605   5.811   5.673
   50EOH      C  203   3.746   5.835   5.685
   50EOH      C  204   3.819   5.718   5.616
   50EOH      H  205   3.596   5.735   5.729
   51EOH      O  206   2.384   1.381   4.452
   51EOH      C  207   2.324   1.507   4.484
   51EOH      C  208   2.361   1.616   4.382
   51EOH      H  209   2.318   1.314   4.460
   52EOH      O  210   1.831   3.036   0.467
   52EOH      C  211   1.902   3.154   0.505
   52EOH      C  212   1.794   3.242   0.571
   52EOH      H  213   1.849   2.971   0.533
   53EOH      O  214   4.688   4.536   6.173
   53EOH      C  215   4.807   4.484   6.114
   53EOH      C  216   4.873   4.382   6.209
   53EOH      H  217   4.713   4.591   6.246
   54EOH      O  218   5.894   2.500   5.469
   54EOH      C  219   5.869   2.441   5.341
   54EOH      C  220   5.782   2.316   5.363
   54EOH      H  221   5.967   2.559   5.460
   55EOH      O  222   4.805   2.958   5.560
   55EOH      C  223   4.684   3.031   5.581
   55EOH      C  224   4.720   3.176   5.619
   55EOH      H  225   4.808   2.929   5.470
   56EOH      O  226   6.228   3.908   0.145
   56EOH      C  227   6.208   3.912   0.286
   56EOH      C  228   6.211   3.778   0.362
   56EOH      H  229   6.227   3.998   0.116
   57EOH      O  230   6.126   6.266   5.109
   57EOH      C  231   6.226   6.273   5.007
   57EOH      C  232   6.332   6.374   5.051
   57EOH      H  233   6.063   6.201   5.085
   58EOH      O  234   2.241   3.913   0.412
   58EOH      C  235   2.251   3.940   0.552
   58EOH      C  236   2.134   3.899   0.643
   58EOH      H  237   2.175   3.974   0.383
   59EOH      O  238   2.087   4.668   1.490
   59EOH      C  239   2.000   4.769   1.542
   59EOH      C  240   2.094   4.838   1.643
   59EOH      H  241   2.038   4.622   1.424
   60EOH      O  242   0.895   4.865   0.179
   60EOH      C  243   0.878   4.728   0.144
   60EOH      C  244   0.827   4.710  -0.000
   60EOH      H  245   0.923   4.867   0.269
   61EOH      O  246   2.955   4.591   6.286
   61EOH      C  247   2.974   4.683   6.179
   61EOH      C  248   3.069   4.615   6.079
   61EOH      H  249   2.875   4.548   6.260
   62EOH      O  250   2.393   5.386   5.871
   62EOH      C  251   2.426   5.518   5.826
   62EOH      C  252   2.565   5.558   5.880
   62EOH      H  253   2.372   5.392   5.963
   63EOH      O  254   0.881   2.561   1.853
   63EOH      C  255   0.981   2.468   1.810
   63EOH      C  256   1.033   2.505   1.671
   63EOH      H  257   0.803   2.507   1.847
   64EOH      O  258   3.679   5.790   6.229
   64EOH      C  259   3.589   5.741   6.130
   64EOH      C  260   3.497   5.858   6.091
   64EOH      H  261   3.631   5.831   6.299
   65EOH      O  262   0.178   1.830   4.358
   65EOH      C  263   0.185   1.879   4.492
   65EOH      C  264   0.329   1.865   4.546
   65EOH      H  265   0.087   1.808   4.344
   66EOH      O  266   5.927   0.710   2.178
   66EOH      C  267   6.010   0.625   2.099
   66EOH      C  268   6.005   0.480   2.150
   66EOH      H  269   5.850   0.735   2.129
   67EOH      O  270   2.249   3.849   6.055
   67EOH      C  271   2.151   3.950   6.026
   67EOH      C  272   2.010   3.916   6.078
   67EOH      H  273   2.331   3.887   6.026
   68EOH      O  274   4.823   1.453   4.958
   68EOH      C  275   4.681   1.453   4.936
   68EOH      C  276   4.631   1.554   4.832
   68EOH      H  277   4.841   1.361   4.968
   69EOH      O  278   0.313   6.279   1.948
   69EOH      C  279   0.396   6.169   1.910
   69EOH      C  280   0.330   6.042   1.967
   69EOH      H  281   0.363   6.358   1.936
   70EOH      O  282   0.736   1.566   4.178
   70EOH      C  283   0.823   1.519   4.281
   70EOH      C  284   0.919   1.411   4.227
   70EOH      H  285   0.692   1.644   4.206
   71EOH      O  286   1.104   1.083   5.577
   71EOH      C  287   1.016   1.114   5.469
   71EOH      C  288   0.882   1.171   5.519
   71EOH      H  289   1.146   1.164   5.603
   72EOH      O  290   4.411   4.967   2.250
   72EOH      C  291   4.419   4.903   2.122
   72EOH      C  292   4.540   4.807   2.124
   72EOH      H  293   4.421   5.058   2.226
   73EOH      O  294   2.501   3.120   4.395
   73EOH      C  295   2.543   3.001   4.328
   73EOH      C  296   2.419   2.933   4.267
   73EOH      H  297   2.573   3.151   4.448
   74EOH      O  298   0.647   3.550   5.914
   74EOH      C  299   0.718   3.628   6.011
   74EOH      C  300   0.872   3.621   6.006
   74EOH      H  301   0.556   3.568   5.927
   75EOH      O  302   5.080   1.856   0.299
   75EOH      C  303   5.175   1.868   0.193
   75EOH      C  304   5.159   1.763   0.081
   75EOH      H  305   5.082   1.930   0.358
   76EOH      O  306   0.477   0.656   5.664
   76EOH      C  307   0.444   0.729   5.782
   76EOH      C  308   0.291   0.740   5.773
   76EOH      H  309   0.556   0.693   5.628
   77EOH      O  310   4.647   3.030   0.808
   77EOH      C  311   4.559   2.933   0.866
   77EOH      C  312   4.500   2.840   0.759
   77EOH      H  313   4.734   2.994   0.818
   78EOH      O  314   2.899   6.264   1.027
   78EOH      C  315   2.880   6.196   1.152
   78EOH      C  316   2.884   6.306   1.260
   78EOH      H  317   2.819   6.301   0.992
   79EOH      O  318   6.100   6.266   1.632
   79EOH      C  319   6.089   6.220   1.497
   79EOH      C  320   6.229   6.190   1.441
   79EOH      H  321   6.145   6.200   1.682
   80EOH      O  322   5.466   0.877   0.462
   80EOH      C  323   5.418   0.972   0.366
   80EOH      C  324   5.537   1.067   0.344
   80EOH      H  325   5.416   0.894   0.540
   81EOH      O  326   3.695   1.661   1.084
   81EOH      C  327   3.612   1.615   1.192
   81EOH      C  328   3.657   1.697   1.315
   81EOH      H  329   3.690   1.601   1.011
   82EOH      O  330   2.101   5.558   4.480
   82EOH      C  331   2.126   5.586   4.342
   82EOH      C  332   2.086   5.729   4.302
   82EOH      H  333   2.112   5.464   4.482
   83EOH      O  334   3.061   1.579   1.266
   83EOH      C  335   3.069   1.645   1.392
   83EOH      C  336   3.180   1.750   1.383
   83EOH      H  337   3.117   1.503   1.279
   84EOH      O  338   4.598   1.496   3.815
   84EOH      C  339   4.716   1.417   3.833
   84EOH      C  340   4.779   1.388   3.695
   84EOH      H  341   4.629   1.583   3.798
   85EOH      O  342   5.091   3.133   1.283
   85EOH      C  343   5.116   3.016   1.204
   85EOH      C  344   5.038   2.895   1.260
   85EOH      H  345   4.998   3.148   1.283
   86EOH      O  346   6.172   3.275   1.945
   86EOH      C  347   6.068   3.373   1.931
   86EOH      C  348   6.023   3.373   1.784
   86EOH      H  349   6.201   3.282   2.034
   87EOH      O  350   3.241   0.401   1.600
   87EOH      C  351   3.222   0.293   1.509
   87EOH      C  352   3.176   0.162   1.576
   87EOH      H  353   3.322   0.390   1.647
   88EOH      O  354   3.098   0.887   4.968
   88EOH      C  355   3.213   0.906   5.050
   88EOH      C  356   3.150   0.961   5.179
   88EOH      H  357   3.116   0.902   4.876
   89EOH      O  358   6.039   3.048   1.908
   89EOH      C  359   6.140   2.948   1.922
   89EOH      C  360   6.093   2.802   1.932
   89EOH      H  361   6.076   3.133   1.891
   90EOH      O  362   3.206   1.482   1.997
   90EOH      C  363   3.171   1.554   2.115
   90EOH      C  364   3.023   1.538   2.154
   90EOH      H  365   3.279   1.427   2.018
   91EOH      O  366   3.314   2.202   2.808
   91EOH      C  367   3.350   2.227   2.944
   91EOH      C  368   3.220   2.254   3.022
   91EOH      H  369   3.392   2.188   2.756
   92EOH      O  370   2.191   0.694   3.095
   92EOH      C  371   2.288   0.629   3.176
   92EOH      C  372   2.372   0.726   3.261
   92EOH      H  373   2.186   0.640   3.017
   93EOH      O  374   2.554   5.613   0.776
   93EOH      C  375   2.636   5.498   0.795
   93EOH      C  376   2.658   5.442   0.937
   93EOH      H  377   2.615   5.683   0.791
   94EOH      O  378   3.237   1.607   0.570
   94EOH      C  379   3.203   1.505   0.664
   94EOH      C  380   3.239   1.381   0.580
   94EOH      H  381   3.184   1.683   0.589
   95EOH      O  382   4.417   0.727   2.615
   95EOH      C  383   4.421   0.599   2.551
   95EOH      C  384   4.331   0.511   2.640
   95EOH      H  385   4.351   0.728   2.683
   96EOH      O  386   2.464   5.203   5.718
   96EOH      C  387   2.384   5.179   5.603
   96EOH      C  388   2.239   5.153   5.648
   96EOH      H  389   2.432   5.282   5.761
   97EOH      O  390   3.329   4.552   3.882
   97EOH      C  391   3.220   4.599   3.802
   97EOH      C  392   3.091   4.613   3.886
   97EOH      H  393   3.408   4.536   3.834
   98EOH      O  394   5.448   3.680   2.377
   98EOH      C  395   5.388   3.753   2.270
   98EOH      C  396   5.247   3.698   2.241
   98EOH      H  397   5.495   3.742   2.431
   99EOH      O  398   3.728   1.263   1.703
   99EOH      C  399   3.804   1.236   1.585
   99EOH      C  400   3.751   1.316   1.464
   99EOH      H  401   3.693   1.177   1.719
  100EOH      O  402   1.731   3.490   4.570
  100EOH      C  403   1.617   3.547   4.505
  100EOH      C  404   1.627   3.701   4.508
  100EOH      H  405   1.806   3.540   4.541
  101EOH      O  406   4.523   3.738   0.992
  101EOH      C  407   4.473   3.606   1.013
  101EOH      C  408   4.335   3.583   0.947
  101EOH      H  409   4.617   3.739   0.991
  102EOH      O  410   4.790   4.987   0.516
  102EOH      C  411   4.705   4.932   0.616
  102EOH      C  412   4.696   4.782   0.586
  102EOH      H  413   4.876   4.950   0.530
  103EOH      O  414   5.636   2.951   0.678
  103EOH      C  415   5.689   2.984   0.806
  103EOH      C  416   5.631   3.124   0.834
  103EOH      H  417   5.669   2.871   0.640
  104EOH      O  418   1.732   0.808   3.671
  104EOH      C  419   1.601   0.749   3.676
  104EOH      C  420   1.585   0.642   3.566
  104EOH      H  421   1.757   0.840   3.757
  105EOH      O  422   6.113   2.834   0.532
  105EOH      C  423   6.203   2.738   0.476
  105EOH      C  424   6.353   2.767   0.486
  105EOH      H  425   6.031   2.833   0.484
  106EOH      O  426   3.179   0.574   5.244
  106EOH      C  427   3.066   0.636   5.307
  106EOH      C  428   2.980   0.526   5.371
  106EOH      H  429   3.245   0.639   5.226
  107EOH      O  430   4.184   2.327   2.713
  107EOH      C  431   4.189   2.212   2.628
  107EOH      C  432   4.055   2.137   2.619
  107EOH      H  433   4.266   2.373   2.709
  108EOH      O  434   1.753   1.008   3.530
  108EOH      C  435   1.666   1.016   3.417
  108EOH      C  436   1.566   1.127   3.455
  108EOH      H  437   1.748   0.921   3.567
  109EOH      O  438   5.546   2.798   3.031
  109EOH      C  439   5.451   2.812   2.925
  109EOH      C  440   5.354   2.921   2.971
  109EOH      H  441   5.524   2.724   3.085
  110EOH      O  442   1.645   2.329   1.633
  110EOH      C  443   1.644   2.453   1.703
  110EOH      C  444   1.782   2.520   1.697
  110EOH      H  445   1.700   2.262   1.672
  111EOH      O  446   1.973   3.597   4.475
  111EOH      C  447   2.073   3.517   4.539
  111EOH      C  448   2.154   3.433   4.439
  111EOH      H  449   2.010   3.683   4.479
  112EOH      O  450   0.827   2.068   1.115
  112EOH      C  451   0.949   1.992   1.117
  112EOH      C  452   0.916   1.842   1.109
  112EOH      H  453   0.837   2.160   1.132
  113EOH      O  454   2.435   4.555   1.015
  113EOH      C  455   2.450   4.680   1.083
  113EOH      C  456   2.311   4.745   1.085
  113EOH      H  457   2.492   4.494   1.061
  114EOH      O  458   3.530   4.518   3.732
  114EOH      C  459   3.628   4.491   3.632
  114EOH      C  460   3.652   4.339   3.625
  114EOH      H  461   3.543   4.608   3.759
  115EOH      O  462   0.153   1.295   1.334
  115EOH      C  463   0.220   1.228   1.227
  115EOH      C  464   0.343   1.306   1.178
  115EOH      H  465   0.194   1.252   1.409
  116EOH      O  466   0.828   3.956   4.735
  116EOH      C  467   0.730   4.038   4.671
  116EOH      C  468   0.590   3.974   4.665
  116EOH      H  469   0.803   3.928   4.821
  117EOH      O  470   1.017   3.947   4.596
  117EOH      C  471   1.117   4.038   4.641
  117EOH      C  472   1.257   4.013   4.582
  117EOH      H  473   0.941   3.953   4.651
  118EOH      O  474   1.410   2.974   4.256
  118EOH      C  475   1.513   2.924   4.342
  118EOH      C  476   1.586   3.024   4.434
  118EOH      H  477   1.450   3.037   4.198
  119EOH      O  478   1.373   0.861   2.231
  119EOH      C  479   1.247   0.794   2.234
  119EOH      C  480   1.161   0.843   2.117
  119EOH      H  481   1.371   0.919   2.306
  120EOH      O  482   0.277   3.586   5.712
  120EOH      C  483   0.318   3.700   5.636
  120EOH      C  484   0.469   3.683   5.613
  120EOH      H  485   0.257   3.523   5.645
  121EOH      O  486   0.345   6.045   0.327
  121EOH      C  487   0.356   5.903   0.313
  121EOH      C  488   0.371   5.861   0.166
  121EOH      H  489   0.257   6.072   0.305
  122EOH      O  490   1.497   4.468   0.959
  122EOH      C  491   1.452   4.451   1.094
  122EOH      C  492   1.561   4.377   1.174
  122EOH      H  493   1.490   4.556   0.925
  123EOH      O  494   2.308   5.665   0.789
  123EOH      C  495   2.276   5.795   0.740
  123EOH      C  496   2.211   5.782   0.601
  123EOH      H  497   2.401   5.649   0.789
  124EOH      O  498   2.479   1.272   1.111
  124EOH      C  499   2.559   1.387   1.081
  124EOH      C  500   2.577   1.471   1.208
  124EOH      H  501   2.459   1.226   1.032
  125EOH      O  502   3.177   4.161   1.798
  125EOH      C  503   3.125   4.127   1.927
  125EOH      C  504   2.972   4.132   1.903
  125EOH      H  505   3.140   4.096   1.740
  126EOH      O  506   1.633   2.340   0.693
  126EOH      C  507   1.769   2.337   0.738
  126EOH      C  508   1.778   2.232   0.850
  126EOH      H  509   1.625   2.381   0.608
  127EOH      O  510   6.187   0.665   6.092
  127EOH      C  511   6.283   0.760   6.139
  127EOH      C  512   6.370   0.808   6.022
  127EOH      H  513   6.124   0.640   6.157
  128EOH      O  514   3.430   2.290   2.194
  128EOH      C  515   3.302   2.352   2.201
  128EOH      C  516   3.238   2.364   2.340
  128EOH      H  517   3.445   2.262   2.105
  129EOH      O  518   1.050   2.168   2.689
  129EOH      C  519   0.993   2.284   2.751
  129EOH      C  520   0.922   2.389   2.663
  129EOH      H  521   0.990   2.114   2.641
  130EOH      O  522   4.862   5.286   4.839
  130EOH      C  523   4.813   5.230   4.717
  130EOH      C  524   4.866   5.088   4.693
  130EOH      H  525   4.817   5.234   4.905
  131EOH      O  526   6.091   0.562   1.559
  131EOH      C  527   6.226   0.532   1.597
  131EOH      C  528   6.310   0.659   1.619
  131EOH      H  529   6.033   0.600   1.623
  132EOH      O  530   4.666   3.229   0.663
  132EOH      C  531   4.658   3.359   0.723
  132EOH      C  532   4.583   3.452   0.626
  132EOH      H  533   4.652   3.157   0.722
  133EOH      O  534   3.543   4.476   4.242
  133EOH      C  535   3.459   4.376   4.184
  133EOH      C  536   3.387   4.294   4.292
  133EOH      H  537   3.492   4.553   4.261
  134EOH      O  538   4.661   2.777   4.148
  134EOH      C  539   4.714   2.670   4.070
  134EOH      C  540   4.835   2.607   4.141
  134EOH      H  541   4.573   2.751   4.168
  135EOH      O  542   5.954   6.087   5.062
  135EOH      C  543   5.962   5.966   5.138
  135EOH      C  544   6.059   6.001   5.252
  135EOH      H  545   5.869   6.075   5.023
  136EOH      O  546   1.329   6.044   1.618
  136EOH      C  547   1.296   6.115   1.498
  136EOH      C  548   1.303   6.265   1.533
  136EOH      H  549   1.251   5.998   1.646
  137EOH      O  550   3.689   5.383   3.004
  137EOH      C  551   3.602   5.412   3.114
  137EOH      C  552   3.487   5.311   3.094
  137EOH      H  553   3.751   5.317   3.030
  138EOH      O  554   1.933   0.666   5.627
  138EOH      C  555   1.802   0.636   5.580
  138EOH      C  556   1.743   0.499   5.619
  138EOH      H  557   1.966   0.745   5.587
  139EOH      O  558   0.298   0.619   0.935
  139EOH      C  559   0.335   0.490   0.887
  139EOH      C  560   0.328   0.510   0.734
  139EOH      H  561   0.223   0.605   0.991
  140EOH      O  562   0.782   2.956   2.502
  140EOH      C  563   0.854   2.875   2.595
  140EOH      C  564   0.923   2.768   2.509
  140EOH      H  565   0.802   3.048   2.511
  141EOH      O  566   3.789   1.755   4.971
  141EOH      C  567   3.792   1.866   4.882
  141EOH      C  568   3.907   1.967   4.902
  141EOH      H  569   3.796   1.788   5.060
  142EOH      O  570   6.018   4.056   1.741
  142EOH      C  571   5.957   4.143   1.836
  142EOH      C  572   5.805   4.123   1.828
  142EOH      H  573   5.998   4.094   1.657
  143EOH      O  574   1.709   3.889   0.762
  143EOH      C  575   1.761   3.972   0.866
  143EOH      C  576   1.713   3.926   1.005
  143EOH      H  577   1.619   3.919   0.760
  144EOH      O  578   4.421   2.182   4.120
  144EOH      C  579   4.400   2.181   4.261
  144EOH      C  580   4.258   2.126   4.284
  144EOH      H  581   4.442   2.090   4.108
  145EOH      O  582   1.282   3.474   2.547
  145EOH      C  583   1.160   3.543   2.575
  145EOH      C  584   1.148   3.529   2.728
  145EOH      H  585   1.355   3.533   2.557
  146EOH      O  586   2.642   2.252   2.081
  146EOH      C  587   2.552   2.344   2.020
  146EOH      C  588   2.461   2.410   2.125
  146EOH      H  589   2.697   2.305   2.137
  147EOH      O  590   6.168   1.424   6.169
  147EOH      C  591   6.179   1.285   6.138
  147EOH      C  592   6.094   1.204   6.238
  147EOH      H  593   6.205   1.468   6.094
  148EOH      O  594   4.576   0.924   5.670
  148EOH      C  595   4.434   0.919   5.686
  148EOH      C  596   4.373   1.038   5.610
  148EOH      H  597   4.599   1.002   5.718
  149EOH      O  598   2.917   0.599   3.994
  149EOH      C  599   3.035   0.650   3.932
  149EOH      C  600   3.156   0.567   3.981
  149EOH      H  601   2.863   0.561   3.926
  150EOH      O  602   0.270   2.531   6.232
  150EOH      C  603   0.191   2.649   6.244
  150EOH      C  604   0.171   2.677   6.394
  150EOH      H  605   0.361   2.556   6.224
  151EOH      O  606   1.697   3.592   4.150
  151EOH      C  607   1.605   3.699   4.129
  151EOH      C  608   1.469   3.638   4.165
  151EOH      H  609   1.785   3.623   4.162
  152EOH      O  610   3.015   5.838   3.245
  152EOH      C  611   2.891   5.772   3.272
  152EOH      C  612   2.867   5.704   3.408
  152EOH      H  613   3.090   5.780   3.244
  153EOH      O  614   4.606   1.819   5.224
  153EOH      C  615   4.745   1.807   5.189
  153EOH      C  616   4.781   1.658   5.203
  153EOH      H  617   4.586   1.889   5.284
  154EOH      O  618   6.278   1.598   5.210
  154EOH      C  619   6.298   1.721   5.139
  154EOH      C  620   6.194   1.739   5.027
  154EOH      H  621   6.351   1.582   5.268
  155EOH      O  622   2.372   4.090   0.864
  155EOH      C  623   2.259   4.139   0.936
  155EOH      C  624   2.186   4.029   1.016
  155EOH      H  625   2.387   4.167   0.811
  156EOH      O  626   5.012   2.131   1.817
  156EOH      C  627   4.989   2.114   1.677
  156EOH      C  628   4.944   1.968   1.658
  156EOH      H  629   5.088   2.185   1.836
  157EOH      O  630   4.405   4.256   0.437
  157EOH      C  631   4.432   4.341   0.549
  157EOH      C  632   4.453   4.257   0.676
  157EOH      H  633   4.422   4.301   0.356
  158EOH      O  634   0.920   4.427   3.569
  158EOH      C  635   0.936   4.328   3.670
  158EOH      C  636   1.067   4.250   3.651
  158EOH      H  637   1.002   4.473   3.557
  159EOH      O  638   3.541   4.911   2.891
  159EOH      C  639   3.544   4.915   3.034
  159EOH      C  640   3.400   4.885   3.081
  159EOH      H  641   3.574   4.824   2.874
  160EOH      O  642   0.233   2.657   3.560
  160EOH      C  643   0.364   2.695   3.516
  160EOH      C  644   0.454   2.577   3.476
  160EOH      H  645   0.197   2.744   3.564
  161EOH      O  646   4.392   5.628   5.572
  161EOH      C  647   4.364   5.489   5.594
  161EOH      C  648   4.289   5.488   5.729
  161EOH      H  649   4.310   5.667   5.547
  162EOH      O  650   4.706   2.883   5.145
  162EOH      C  651   4.717   3.007   5.076
  162EOH      C  652   4.621   3.109   5.140
  162EOH      H  653   4.624   2.837   5.131
  163EOH      O  654   0.999   1.052   1.601
  163EOH      C  655   0.946   1.012   1.474
  163EOH      C  656   0.984   0.865   1.450
  163EOH      H  657   0.957   1.133   1.625
  164EOH      O  658   3.605   2.510   4.717
  164EOH      C  659   3.641   2.473   4.584
  164EOH      C  660   3.528   2.388   4.525
  164EOH      H  661   3.631   2.442   4.779
  165EOH      O  662   4.387   6.060   3.393
  165EOH      C  663   4.457   6.108   3.508
  165EOH      C  664   4.606   6.103   3.468
  165EOH      H  665   4.296   6.085   3.396
  166EOH      O  666   2.953   5.298   2.024
  166EOH      C  667   2.930   5.408   2.113
  166EOH      C  668   2.782   5.451   2.113
  166EOH      H  669   3.045   5.281   2.035
  167EOH      O  670   6.055   6.306   4.388
  167EOH      C  671   6.029   6.241   4.512
  167EOH      C  672   6.063   6.340   4.625
  167EOH      H  673   5.991   6.376   4.382
  168EOH      O  674   0.920   4.313   1.859
  168EOH      C  675   0.903   4.407   1.965
  168EOH      C  676   0.943   4.546   1.913
  168EOH      H  677   0.929   4.227   1.897
  169EOH      O  678   3.225   3.792   4.247
  169EOH      C  679   3.174   3.864   4.359
  169EOH      C  680   3.129   3.773   4.475
  169EOH      H  681   3.252   3.857   4.183
  170EOH      O  682   2.669   4.218   3.811
  170EOH      C  683   2.724   4.343   3.768
  170EOH      C  684   2.841   4.322   3.671
  170EOH      H  685   2.705   4.198   3.896
  171EOH      O  686   4.087   3.577   4.380
  171EOH      C  687   4.222   3.625   4.386
  171EOH      C  688   4.226   3.777   4.362
  171EOH      H  689   4.089   3.483   4.374
  172EOH      O  690   4.577   5.882   1.008
  172EOH      C  691   4.569   5.938   0.877
  172EOH      C  692   4.571   5.826   0.771
  172EOH      H  693   4.543   5.943   1.071
  173EOH      O  694   1.842   4.579   3.716
  173EOH      C  695   1.820   4.696   3.794
  173EOH      C  696   1.940   4.788   3.763
  173EOH      H  697   1.803   4.605   3.634
  174EOH      O  698   3.902   5.893   2.258
  174EOH      C  699   3.807   5.833   2.346
  174EOH      C  700   3.666   5.842   2.283
  174EOH      H  701   3.898   5.839   2.181
  175EOH      O  702   3.487   3.464   2.778
  175EOH      C  703   3.429   3.401   2.663
  175EOH      C  704   3.363   3.491   2.556
  175EOH      H  705   3.573   3.497   2.759
  176EOH      O  706   3.395   1.334   2.017
  176EOH      C  707   3.465   1.220   2.069
  176EOH      C  708   3.418   1.193   2.213
  176EOH      H  709   3.423   1.351   1.928
  177EOH      O  710   1.877   2.113   1.967
  177EOH      C  711   1.802   2.049   2.071
  177EOH      C  712   1.692   1.960   2.011
  177EOH      H  713   1.943   2.161   2.014
  178EOH      O  714   6.075   3.803   1.738
  178EOH      C  715   6.036   3.750   1.865
  178EOH      C  716   6.126   3.805   1.977
  178EOH      H  717   6.064   3.895   1.754
  179EOH      O  718   3.434   4.764   4.577
  179EOH      C  719   3.513   4.873   4.625
  179EOH      C  720   3.425   5.000   4.626
  179EOH      H  721   3.378   4.735   4.647
  180EOH      O  722   6.042   1.920   1.169
  180EOH      C  723   6.177   1.956   1.203
  180EOH      C  724   6.176   1.956   1.357
  180EOH      H  725   6.041   1.907   1.075
  181EOH      O  726   6.282   0.042   4.289
  181EOH      C  727   6.375  -0.022   4.376
  181EOH      C  728   6.365  -0.176   4.382
  181EOH      H  729   6.200   0.040   4.336
  182EOH      O  730   4.899   3.894   4.899
  182EOH      C  731   4.834   3.779   4.954
  182EOH      C  732   4.684   3.808   4.971
  182EOH      H  733   4.926   3.929   4.982
  183EOH      O  734   0.285   5.265   4.848
  183EOH      C  735   0.154   5.284   4.902
  183EOH      C  736   0.156   5.399   5.005
  183EOH      H  737   0.313   5.345   4.807
  184EOH      O  738   5.751   0.817   6.184
  184EOH      C  739   5.831   0.934   6.204
  184EOH      C  740   5.903   0.951   6.069
  184EOH      H  741   5.732   0.784   6.271
  185EOH      O  742   2.494   1.181   3.423
  185EOH      C  743   2.466   1.313   3.471
  185EOH      C  744   2.578   1.404   3.419
  185EOH      H  745   2.430   1.156   3.358
  186EOH      O  746   2.367   5.999   1.999
  186EOH      C  747   2.471   6.049   1.915
  186EOH      C  748   2.590   6.066   2.011
  186EOH      H  749   2.299   5.958   1.948
  187EOH      O  750   0.351   6.201   5.322
  187EOH      C  751   0.224   6.244   5.372
  187EOH      C  752   0.222   6.241   5.526
  187EOH      H  753   0.423   6.251   5.356
  188EOH      O  754   2.092   6.140   0.594
  188EOH      C  755   2.178   6.241   0.543
  188EOH      C  756   2.322   6.193   0.516
  188EOH      H  757   2.003   6.168   0.576
  189EOH      O  758   2.147   6.152   6.149
  189EOH      C  759   2.235   6.180   6.258
  189EOH      C  760   2.351   6.268   6.207
  189EOH      H  761   2.077   6.094   6.172
  190EOH      O  762   3.687   0.443   5.917
  190EOH      C  763   3.549   0.464   5.886
  190EOH      C  764   3.525   0.464   5.734
  190EOH      H  765   3.746   0.508   5.880
  191EOH      O  766   3.796   1.693   2.763
  191EOH      C  767   3.865   1.792   2.687
  191EOH      C  768   4.015   1.758   2.691
  191EOH      H  769   3.711   1.676   2.724
  192EOH      O  770   5.402   2.326   3.704
  192EOH      C  771   5.484   2.253   3.613
  192EOH      C  772   5.398   2.170   3.516
  192EOH      H  773   5.378   2.261   3.769
  193EOH      O  774   3.099   1.789   0.649
  193EOH      C  775   3.080   1.931   0.644
  193EOH      C  776   3.010   1.967   0.511
  193EOH      H  777   3.060   1.770   0.733
  194EOH      O  778   1.637   1.828   0.392
  194EOH      C  779   1.631   1.960   0.447
  194EOH      C  780   1.742   1.967   0.554
  194EOH      H  781   1.605   1.835   0.304
  195EOH      O  782   3.887   3.317   5.349
  195EOH      C  783   3.802   3.432   5.357
  195EOH      C  784   3.673   3.396   5.433
  195EOH      H  785   3.968   3.349   5.311
  196EOH      O  786   4.236   6.026   2.617
  196EOH      C  787   4.133   5.959   2.543
  196EOH      C  788   4.109   5.833   2.629
  196EOH      H  789   4.312   5.974   2.598
  197EOH      O  790   4.483   0.091   4.910
  197EOH      C  791   4.405   0.155   5.012
  197EOH      C  792   4.478   0.239   5.119
  197EOH      H  793   4.433   0.019   4.875
  198EOH      O  794   2.539   3.525   3.464
  198EOH      C  795   2.565   3.627   3.560
  198EOH      C  796   2.465   3.745   3.565
  198EOH      H  797   2.596   3.453   3.487
  199EOH      O  798   5.751   0.281   3.536
  199EOH      C  799   5.868   0.239   3.607
  199EOH      C  800   5.827   0.246   3.756
  199EOH      H  801   5.704   0.202   3.512
  200EOH      O  802   3.885   4.901   3.335
  200EOH      C  803   3.881   4.941   3.198
  200EOH      C  804   3.941   4.836   3.103
  200EOH      H  805   3.854   4.972   3.390
  201EOH      O  806   2.022   0.834   3.234
  201EOH      C  807   1.976   0.941   3.151
  201EOH      C  808   1.842   0.896   3.089
  201EOH      H  809   2.080   0.791   3.173
  202EOH      O  810   4.027   2.793   2.001
  202EOH      C  811   3.886   2.772   2.006
  202EOH      C  812   3.832   2.787   1.863
  202EOH      H  813   4.054   2.852   2.070
  203EOH      O  814   3.564   4.287   6.131
  203EOH      C  815   3.481   4.176   6.167
  203EOH      C  816   3.566   4.056   6.211
  203EOH      H  817   3.643   4.264   6.085
  204EOH      O  818   0.203   3.426   5.521
  204EOH      C  819   0.160   3.464   5.391
  204EOH      C  820   0.068   3.587   5.401
  204EOH      H  821   0.199   3.331   5.525
  205EOH      O  822   0.361   3.151   0.410
  205EOH      C  823   0.381   3.051   0.510
  205EOH      C  824   0.457   3.091   0.637
  205EOH      H  825   0.357   3.103   0.329
  206EOH      O  826   0.701   2.137   0.384
  206EOH      C  827   0.769   2.144   0.258
  206EOH      C  828   0.913   2.104   0.294
  206EOH      H  829   0.726   2.053   0.420
  207EOH      O  830   0.570   3.183   3.530
  207EOH      C  831   0.547   3.068   3.448
  207EOH      C  832   0.583   2.947   3.535
  207EOH      H  833   0.625   3.162   3.604
  208EOH      O  834   1.728   3.227   5.078
  208EOH      C  835   1.632   3.333   5.064
  208EOH      C  836   1.568   3.335   4.924
  208EOH      H  837   1.781   3.223   5.000
  209EOH      O  838   0.492   5.352   2.362
  209EOH      C  839   0.518   5.391   2.497
  209EOH      C  840   0.412   5.314   2.578
  209EOH      H  841   0.525   5.265   2.346
  210EOH      O  842   2.749   4.928   1.363
  210EOH      C  843   2.699   4.978   1.238
  210EOH      C  844   2.567   5.058   1.234
  210EOH      H  845   2.728   5.000   1.421
  211EOH      O  846   0.929   0.168   2.741
  211EOH      C  847   0.989   0.146   2.869
  211EOH      C  848   1.139   0.174   2.849
  211EOH      H  849   0.963   0.098   2.689
  212EOH      O  850   2.560   5.716   5.433
  212EOH      C  851   2.702   5.711   5.428
  212EOH      C  852   2.734   5.616   5.311
  212EOH      H  853   2.518   5.718   5.348
  213EOH      O  854   2.735   5.798   0.777
  213EOH      C  855   2.711   5.906   0.868
  213EOH      C  856   2.680   5.837   1.002
  213EOH      H  857   2.769   5.838   0.698
  214EOH      O  858   4.369   2.423   2.239
  214EOH      C  859   4.433   2.296   2.248
  214EOH      C  860   4.544   2.306   2.354
  214EOH      H  861   4.411   2.466   2.165
  215EOH      O  862   0.591   0.968   0.467
  215EOH      C  863   0.641   0.953   0.599
  215EOH      C  864   0.677   0.813   0.652
  215EOH      H  865   0.513   0.914   0.464
  216EOH      O  866   4.004   0.730   3.693
  216EOH      C  867   3.947   0.860   3.712
  216EOH      C  868   3.830   0.840   3.810
  216EOH      H  869   4.091   0.726   3.729
  217EOH      O  870   0.775   5.047   5.628
  217EOH      C  871   0.859   5.162   5.619
  217EOH      C  872   0.972   5.139   5.720
  217EOH      H  873   0.696   5.076   5.672
  218EOH      O  874   2.789   0.472   3.808
  218EOH      C  875   2.648   0.467   3.831
  218EOH      C  876   2.585   0.490   3.693
  218EOH      H  877   2.825   0.385   3.804
  219EOH      O  878   2.939   5.623   3.897
  219EOH      C  879   2.943   5.620   3.754
  219EOH      C  880   3.010   5.494   3.696
  219EOH      H  881   2.897   5.702   3.929
  220EOH      O  882   6.063   2.176   6.258
  220EOH      C  883   5.975   2.287   6.242
  220EOH      C  884   6.053   2.412   6.196
  220EOH      H  885   6.083   2.145   6.171
  221EOH      O  886   5.767   1.615   3.930
  221EOH      C  887   5.872   1.689   3.866
  221EOH      C  888   5.974   1.588   3.808
  221EOH      H  889   5.723   1.691   3.964
  222EOH      O  890   4.029   0.145   0.077
  222EOH      C  891   3.943   0.048   0.017
  222EOH      C  892   3.854  -0.026   0.119
  222EOH      H  893   4.114   0.103   0.078
  223EOH      O  894   5.368   5.079   5.606
  223EOH      C  895   5.333   5.158   5.720
  223EOH      C  896   5.288   5.059   5.829
  223EOH      H  897   5.450   5.034   5.618
  224EOH      O  898   3.538   2.301   1.215
  224EOH      C  899   3.627   2.191   1.235
  224EOH      C  900   3.595   2.083   1.130
  224EOH      H  901   3.576   2.356   1.148
  225EOH      O  902   0.276   3.635   3.909
  225EOH      C  903   0.371   3.726   3.853
  225EOH      C  904   0.294   3.789   3.736
  225EOH      H  905   0.291   3.549   3.872
  226EOH      O  906   3.632   5.554   2.811
  226EOH      C  907   3.705   5.673   2.838
  226EOH      C  908   3.855   5.641   2.856
  226EOH      H  909   3.670   5.480   2.856
  227EOH      O  910   0.104   3.603   1.570
  227EOH      C  911   0.097   3.494   1.663
  227EOH      C  912   0.243   3.448   1.681
  227EOH      H  913   0.019   3.643   1.557
  228EOH      O  914   2.459   3.945   5.952
  228EOH      C  915   2.520   3.954   5.822
  228EOH      C  916   2.419   3.956   5.706
  228EOH      H  917   2.518   3.892   6.002
  229EOH      O  918   5.535   2.441   6.264
  229EOH      C  919   5.394   2.444   6.288
  229EOH      C  920   5.326   2.361   6.179
  229EOH      H  921   5.553   2.485   6.182
  230EOH      O  922   2.898   1.591   2.920
  230EOH      C  923   2.801   1.509   2.986
  230EOH      C  924   2.658   1.559   2.958
  230EOH      H  925   2.961   1.525   2.895
  231EOH      O  926   5.388   2.788   4.759
  231EOH      C  927   5.495   2.863   4.816
  231EOH      C  928   5.552   2.936   4.693
  231EOH      H  929   5.306   2.835   4.761
  232EOH      O  930   4.746   0.564   2.127
  232EOH      C  931   4.726   0.516   1.994
  232EOH      C  932   4.606   0.585   1.927
  232EOH      H  933   4.776   0.654   2.123
  233EOH      O  934   4.876   1.012   1.588
  233EOH      C  935   4.931   0.884   1.620
  233EOH      C  936   4.818   0.781   1.639
  233EOH      H  937   4.820   0.999   1.513
  234EOH      O  938   5.742   2.662   5.571
  234EOH      C  939   5.667   2.741   5.478
  234EOH      C  940   5.582   2.850   5.547
  234EOH      H  941   5.791   2.597   5.522
  235EOH      O  942   4.019   1.039   0.147
  235EOH      C  943   4.061   0.964   0.261
  235EOH      C  944   3.972   0.842   0.295
  235EOH      H  945   4.091   1.017   0.090
  236EOH      O  946   5.580   1.898   0.016
  236EOH      C  947   5.537   2.034   0.029
  236EOH      C  948   5.659   2.126   0.014
  236EOH      H  949   5.535   1.841   0.076
  237EOH      O  950   0.472   3.421   0.691
  237EOH      C  951   0.613   3.441   0.675
  237EOH      C  952   0.656   3.434   0.528
  237EOH      H  953   0.440   3.422   0.603
  238EOH      O  954   0.018   0.859   1.948
  238EOH      C  955   0.161   0.858   1.950
  238EOH      C  956   0.226   0.760   1.850
  238EOH      H  957  -0.001   0.896   2.033
  239EOH      O  958   4.848   5.172   1.643
  239EOH      C  959   4.805   5.112   1.521
  239EOH      C  960   4.857   4.967   1.526
  239EOH      H  961   4.846   5.266   1.634
  240EOH      O  962   4.710   4.863   0.103
  240EOH      C  963   4.785   4.941   0.010
  240EOH      C  964   4.901   5.009   0.084
  240EOH      H  965   4.683   4.921   0.172
  241EOH      O  966   6.006   4.146   3.435
  241EOH      C  967   5.935   4.206   3.327
  241EOH      C  968   5.849   4.317   3.391
  241EOH      H  969   6.083   4.106   3.398
  242EOH      O  970   5.421   4.209   6.269
  242EOH      C  971   5.317   4.114   6.292
  242EOH      C  972   5.182   4.166   6.344
  242EOH      H  973   5.432   4.239   6.180
  243EOH      O  974   5.581   5.404   4.806
  243EOH      C  975   5.697   5.437   4.730
  243EOH      C  976   5.703   5.343   4.608
  243EOH      H  977   5.587   5.430   4.896
  244EOH      O  978   4.453   6.028   1.198
  244EOH      C  979   4.479   6.025   1.339
  244EOH      C  980   4.522   5.884   1.383
  244EOH      H  981   4.368   6.067   1.185
  245EOH      O  982   1.303   5.796   0.994
  245EOH      C  983   1.245   5.814   1.124
  245EOH      C  984   1.309   5.732   1.237
  245EOH      H  985   1.258   5.855   0.937
  246EOH      O  986   2.468   0.177   2.560
  246EOH      C  987   2.432   0.140   2.693
  246EOH      C  988   2.451  -0.007   2.733
  246EOH      H  989   2.408   0.132   2.502
  247EOH      O  990   0.498   0.699   1.499
  247EOH      C  991   0.369   0.759   1.483
  247EOH      C  992   0.386   0.899   1.422
  247EOH      H  993   0.542   0.684   1.416
  248EOH      O  994   1.833   4.096   2.796
  248EOH      C  995   1.898   3.969   2.779
  248EOH      C  996   2.003   3.946   2.889
  248EOH      H  997   1.739   4.087   2.802
  249EOH      O  998   4.550   4.562   4.208
  249EOH      C  999   4.593   4.460   4.299
  249EOH      C 1000   4.459   4.394   4.338
  249EOH      H 1001   4.559   4.532   4.119
  250EOH      O 1002   4.213   6.239   0.124
  250EOH      C 1003   4.216   6.254   0.266
  250EOH      C 1004   4.344   6.326   0.312
  250EOH      H 1005   4.296   6.215   0.085
  251EOH      O 1006   6.269   0.612   3.411
  251EOH      C 1007   6.306   0.708   3.312
  251EOH      C 1008   6.459   0.718   3.311
  251EOH      H 1009   6.175   0.605   3.402
  252EOH      O 1010   0.324   6.103   3.908
  252EOH      C 1011   0.380   6.218   3.970
  252EOH      C 1012   0.314   6.240   4.108
  252EOH      H 1013   0.281   6.135   3.830
  253EOH      O 1014   5.166   1.856   4.946
  253EOH      C 1015   5.095   1.738   4.908
  253EOH      C 1016   5.169   1.694   4.781
  253EOH      H 1017   5.240   1.819   4.992
  254EOH      O 1018   0.959   5.899   1.512
  254EOH      C 1019   0.876   5.784   1.496
  254EOH      C 1020   0.837   5.755   1.350
  254EOH      H 1021   0.906   5.973   1.488
  255EOH      O 1022   0.829   5.862   0.237
  255EOH      C 1023   0.933   5.793   0.168
  255EOH      C 1024   1.050   5.812   0.266
  255EOH      H 1025   0.764   5.800   0.268
  256EOH      O 1026   4.886   4.715   2.215
  256EOH      C 1027   5.003   4.648   2.260
  256EOH      C 1028   5.010   4.503   2.208
  256EOH      H 1029   4.869   4.780   2.282
  257EOH      O 1030   2.104   6.125   1.780
  257EOH      C 1031   2.114   6.146   1.639
  257EOH      C 1032   2.232   6.072   1.573
  257EOH      H 1033   2.126   6.034   1.797
  258EOH      O 1034   1.784   1.152   4.736
  258EOH      C 1035   1.771   1.010   4.739
  258EOH      C 1036   1.679   0.942   4.636
  258EOH      H 1037   1.697   1.188   4.731
  259EOH      O 1038   4.237   0.688   3.736
  259EOH      C 1039   4.296   0.559   3.756
  259EOH      C 1040   4.277   0.469   3.633
  259EOH      H 1041   4.273   0.722   3.656
  260EOH      O 1042   1.225   0.091   1.967
  260EOH      C 1043   1.271  -0.020   2.044
  260EOH      C 1044   1.424  -0.010   2.064
  260EOH      H 1045   1.267   0.170   1.998
  261EOH      O 1046   6.198   4.167   0.083
  261EOH      C 1047   6.180   4.252   0.196
  261EOH      C 1048   6.043   4.317   0.169
  261EOH      H 1049   6.244   4.218   0.018
  262EOH      O 1050   0.982   1.808   2.233
  262EOH      C 1051   1.119   1.818   2.270
  262EOH      C 1052   1.143   1.684   2.343
  262EOH      H 1053   0.979   1.764   2.149
  263EOH      O 1054   1.780   4.688   4.807
  263EOH      C 1055   1.682   4.676   4.910
  263EOH      C 1056   1.596   4.799   4.943
  263EOH      H 1057   1.748   4.648   4.728
  264EOH      O 1058   0.323   3.038   0.198
  264EOH      C 1059   0.409   3.039   0.084
  264EOH      C 1060   0.437   3.188   0.056
  264EOH      H 1061   0.236   3.020   0.166
  265EOH      O 1062   1.226   4.556   1.640
  265EOH      C 1063   1.267   4.448   1.556
  265EOH      C 1064   1.214   4.480   1.415
  265EOH      H 1065   1.294   4.577   1.703
  266EOH      O 1066   6.051   0.341   4.453
  266EOH      C 1067   6.084   0.446   4.362
  266EOH      C 1068   6.231   0.424   4.321
  266EOH      H 1069   5.978   0.283   4.437
  267EOH      O 1070   1.248   5.211   2.782
  267EOH      C 1071   1.191   5.181   2.654
  267EOH      C 1072   1.102   5.056   2.661
  267EOH      H 1073   1.177   5.235   2.840
  268EOH      O 1074   5.892   1.063   5.655
  268EOH      C 1075   6.024   1.109   5.629
  268EOH      C 1076   6.116   1.050   5.737
  268EOH      H 1077   5.855   1.053   5.569
  269EOH      O 1078   1.477   4.772   6.130
  269EOH      C 1079   1.336   4.766   6.156
  269EOH      C 1080   1.290   4.845   6.280
  269EOH      H 1081   1.506   4.682   6.124
  270EOH      O 1082   5.697   4.806   4.206
  270EOH      C 1083   5.774   4.754   4.097
  270EOH      C 1084   5.923   4.793   4.098
  270EOH      H 1085   5.637   4.741   4.237
  271EOH      O 1086   5.366   1.763   5.088
  271EOH      C 1087   5.389   1.627   5.124
  271EOH      C 1088   5.542   1.609   5.128
  271EOH      H 1089   5.443   1.810   5.114
  272EOH      O 1090   3.554   3.743   0.689
  272EOH      C 1091   3.520   3.719   0.552
  272EOH      C 1092   3.494   3.569   0.532
  272EOH      H 1093   3.639   3.784   0.686
  273EOH      O 1094   0.174   4.513   3.724
  273EOH      C 1095   0.296   4.441   3.707
  273EOH      C 1096   0.426   4.514   3.744
  273EOH      H 1097   0.095   4.465   3.704
  274EOH      O 1098   5.917   2.844   0.392
  274EOH      C 1099   5.819   2.924   0.325
  274EOH      C 1100   5.775   3.048   0.406
  274EOH      H 1101   5.918   2.764   0.341
  275EOH      O 1102   4.271   4.883   4.323
  275EOH      C 1103   4.318   4.805   4.213
  275EOH      C 1104   4.197   4.763   4.127
  275EOH      H 1105   4.342   4.887   4.385
  276EOH      O 1106   6.039   2.947   6.251
  276EOH      C 1107   5.978   2.825   6.294
  276EOH      C 1108   6.070   2.729   6.371
  276EOH      H 1109   5.975   3.013   6.229
  277EOH      O 1110   1.985   5.627   2.955
  277EOH      C 1111   2.122   5.587   2.970
  277EOH      C 1112   2.214   5.668   2.877
  277EOH      H 1113   1.953   5.640   3.043
  278EOH      O 1114   3.257   0.582   2.759
  278EOH      C 1115   3.396   0.616   2.758
  278EOH      C 1116   3.432   0.746   2.832
  278EOH      H 1117   3.233   0.548   2.675
  279EOH      O 1118   2.134   1.211   0.394
  279EOH      C 1119   2.000   1.212   0.343
  279EOH      C 1120   1.927   1.077   0.363
  279EOH      H 1121   2.130   1.208   0.488
  280EOH      O 1122   5.864   5.960   4.703
  280EOH      C 1123   5.959   5.854   4.713
  280EOH      C 1124   6.102   5.902   4.744
  280EOH      H 1125   5.808   5.942   4.629
  281EOH      O 1126   3.035   1.684   2.684
  281EOH      C 1127   2.963   1.785   2.614
  281EOH      C 1128   2.812   1.767   2.642
  281EOH      H 1129   3.004   1.689   2.773
  282EOH      O 1130   1.357   3.516   0.668
  282EOH      C 1131   1.422   3.427   0.578
  282EOH      C 1132   1.364   3.291   0.623
  282EOH      H 1133   1.423   3.532   0.733
  283EOH      O 1134   3.595   0.276   2.379
  283EOH      C 1135   3.556   0.141   2.350
  283EOH      C 1136   3.502   0.156   2.207
  283EOH      H 1137   3.634   0.280   2.465
  284EOH      O 1138   1.491   2.499   2.458
  284EOH      C 1139   1.491   2.447   2.591
  284EOH      C 1140   1.358   2.467   2.665
  284EOH      H 1141   1.558   2.566   2.453
  285EOH      O 1142   1.727   2.158   5.977
  285EOH      C 1143   1.755   2.231   6.096
  285EOH      C 1144   1.904   2.242   6.133
  285EOH      H 1145   1.635   2.162   5.956
  286EOH      O 1146   4.034   2.900   1.244
  286EOH      C 1147   4.006   2.891   1.384
  286EOH      C 1148   4.133   2.923   1.464
  286EOH      H 1149   4.086   2.975   1.222
  287EOH      O 1150   3.896   2.707   3.734
  287EOH      C 1151   3.901   2.565   3.719
  287EOH      C 1152   3.817   2.510   3.835
  287EOH      H 1153   3.811   2.737   3.707
  288EOH      O 1154   1.482   3.828   2.752
  288EOH      C 1155   1.533   3.793   2.881
  288EOH      C 1156   1.549   3.640   2.889
  288EOH      H 1157   1.490   3.922   2.751
  289EOH      O 1158   5.342   5.320   0.142
  289EOH      C 1159   5.359   5.183   0.104
  289EOH      C 1160   5.475   5.156   0.008
  289EOH      H 1161   5.301   5.323   0.227
  290EOH      O 1162   2.519   2.054   4.282
  290EOH      C 1163   2.382   2.071   4.319
  290EOH      C 1164   2.352   2.222   4.322
  290EOH      H 1165   2.524   2.047   4.188
  291EOH      O 1166   0.972   5.681   4.966
  291EOH      C 1167   1.108   5.720   4.987
  291EOH      C 1168   1.139   5.838   4.893
  291EOH      H 1169   0.918   5.746   5.009
  292EOH      O 1170   3.863   2.853   4.791
  292EOH      C 1171   3.887   2.799   4.661
  292EOH      C 1172   3.960   2.900   4.571
  292EOH      H 1173   3.787   2.805   4.818
  293EOH      O 1174   2.314   1.087   2.194
  293EOH      C 1175   2.226   1.199   2.186
  293EOH      C 1176   2.090   1.126   2.176
  293EOH      H 1177   2.334   1.065   2.284
  294EOH      O 1178   5.732   6.066   0.086
  294EOH      C 1179   5.682   6.054   0.219
  294EOH      C 1180   5.600   6.177   0.263
  294EOH      H 1181   5.679   6.016   0.025
  295EOH      O 1182   1.696   3.327   4.152
  295EOH      C 1183   1.820   3.269   4.192
  295EOH      C 1184   1.846   3.133   4.123
  295EOH      H 1185   1.711   3.418   4.171
  296EOH      O 1186   1.166   0.502   4.439
  296EOH      C 1187   1.175   0.433   4.564
  296EOH      C 1188   1.261   0.306   4.556
  296EOH      H 1189   1.074   0.521   4.430
  297EOH      O 1190   0.263   2.175   1.081
  297EOH      C 1191   0.242   2.117   1.209
  297EOH      C 1192   0.382   2.097   1.269
  297EOH      H 1193   0.177   2.186   1.042
  298EOH      O 1194   0.201   5.032   3.136
  298EOH      C 1195   0.264   4.943   3.043
  298EOH      C 1196   0.398   4.884   3.089
  298EOH      H 1197   0.190   4.969   3.206
  299EOH      O 1198   5.667   0.696   0.085
  299EOH      C 1199   5.530   0.671   0.117
  299EOH      C 1200   5.449   0.775   0.038
  299EOH      H 1201   5.720   0.659   0.153
  300EOH      O 1202   4.529   5.016   2.459
  300EOH      C 1203   4.657   4.952   2.468
  300EOH      C 1204   4.775   5.046   2.438
  300EOH      H 1205   4.496   4.991   2.374
  301EOH      O 1206   4.336   5.579   0.771
  301EOH      C 1207   4.276   5.552   0.644
  301EOH      C 1208   4.131   5.504   0.664
  301EOH      H 1209   4.426   5.549   0.769
  302EOH      O 1210   4.244   5.618   0.987
  302EOH      C 1211   4.239   5.759   1.012
  302EOH      C 1212   4.179   5.786   1.151
  302EOH      H 1213   4.290   5.610   0.905
  303EOH      O 1214   6.236   5.827   3.448
  303EOH      C 1215   6.242   5.951   3.376
  303EOH      C 1216   6.356   5.919   3.278
  303EOH      H 1217   6.241   5.753   3.391
  304EOH      O 1218   1.132   2.392   3.463
  304EOH      C 1219   1.236   2.452   3.540
  304EOH      C 1220   1.255   2.601   3.505
  304EOH      H 1221   1.164   2.393   3.374
  305EOH      O 1222   4.269   5.434   0.013
  305EOH      C 1223   4.241   5.478   0.146
  305EOH      C 1224   4.232   5.365   0.250
  305EOH      H 1225   4.213   5.493  -0.035
  306EOH      O 1226   6.011   4.434   4.509
  306EOH      C 1227   6.063   4.455   4.378
  306EOH      C 1228   5.940   4.444   4.286
  306EOH      H 1229   6.084   4.466   4.560
  307EOH      O 1230   0.236   2.332   5.921
  307EOH      C 1231   0.138   2.436   5.922
  307EOH      C 1232   0.222   2.560   5.886
  307EOH      H 1233   0.242   2.312   6.013
  308EOH      O 1234   6.267   1.947   2.190
  308EOH      C 1235   6.134   1.980   2.234
  308EOH      C 1236   6.063   2.028   2.106
  308EOH      H 1237   6.285   1.855   2.203
  309EOH      O 1238   4.652   2.637   3.118
  309EOH      C 1239   4.517   2.684   3.102
  309EOH      C 1240   4.432   2.566   3.152
  309EOH      H 1241   4.705   2.713   3.103
  310EOH      O 1242   5.247   1.895   2.888
  310EOH      C 1243   5.355   1.976   2.840
  310EOH      C 1244   5.438   1.893   2.740
  310EOH      H 1245   5.196   1.954   2.942
  311EOH      O 1246   3.309   5.556   5.347
  311EOH      C 1247   3.215   5.660   5.319
  311EOH      C 1248   3.225   5.723   5.179
  311EOH      H 1249   3.396   5.591   5.342
  312EOH      O 1250   6.247   4.346   1.631
  312EOH      C 1251   6.285   4.453   1.717
  312EOH      C 1252   6.180   4.497   1.821
  312EOH      H 1253   6.309   4.278   1.652
  313EOH      O 1254   0.559   2.260   2.427
  313EOH      C 1255   0.559   2.396   2.382
  313EOH      C 1256   0.551   2.484   2.508
  313EOH      H 1257   0.594   2.214   2.352
  314EOH      O 1258   3.097   1.629   1.005
  314EOH      C 1259   3.225   1.694   1.014
  314EOH      C 1260   3.211   1.845   0.987
  314EOH      H 1261   3.091   1.607   1.097
  315EOH      O 1262   3.354   4.895   3.699
  315EOH      C 1263   3.284   4.880   3.575
  315EOH      C 1264   3.170   4.984   3.577
  315EOH      H 1265   3.382   4.985   3.695
  316EOH      O 1266   2.865   4.433   5.480
  316EOH      C 1267   2.966   4.414   5.578
  316EOH      C 1268   3.082   4.512   5.554
  316EOH      H 1269   2.823   4.350   5.465
  317EOH      O 1270   2.747   0.755   5.785
  317EOH      C 1271   2.723   0.730   5.924
  317EOH      C 1272   2.620   0.617   5.943
  317EOH      H 1273   2.699   0.834   5.766
  318EOH      O 1274   3.718   3.011   0.855
  318EOH      C 1275   3.792   3.039   0.975
  318EOH      C 1276   3.759   2.935   1.083
  318EOH      H 1277   3.632   3.050   0.854
  319EOH      O 1278   2.261   5.036   3.451
  319EOH      C 1279   2.146   5.033   3.366
  319EOH      C 1280   2.079   4.895   3.367
  319EOH      H 1281   2.332   5.006   3.397
  320EOH      O 1282   4.930   4.523   4.947
  320EOH      C 1283   4.891   4.618   5.047
  320EOH      C 1284   5.023   4.692   5.080
  320EOH      H 1285   4.853   4.504   4.895
  321EOH      O 1286   0.133   3.111   5.530
  321EOH      C 1287   0.088   3.106   5.666
  321EOH      C 1288  -0.011   3.219   5.699
  321EOH      H 1289   0.063   3.125   5.469
  322EOH      O 1290   4.343   5.596   3.099
  322EOH      C 1291   4.347   5.653   2.968
  322EOH      C 1292   4.217   5.615   2.895
  322EOH      H 1293   4.374   5.669   3.151
  323EOH      O 1294   3.333   2.056   5.122
  323EOH      C 1295   3.315   1.949   5.028
  323EOH      C 1296   3.448   1.873   5.022
  323EOH      H 1297   3.254   2.108   5.116
  324EOH      O 1298   1.414   1.157   5.299
  324EOH      C 1299   1.327   1.060   5.241
  324EOH      C 1300   1.228   1.134   5.149
  324EOH      H 1301   1.492   1.160   5.245
  325EOH      O 1302   2.184   1.701   5.680
  325EOH      C 1303   2.219   1.751   5.551
  325EOH      C 1304   2.369   1.717   5.548
  325EOH      H 1305   2.096   1.729   5.701
  326EOH      O 1306   1.864   4.557   1.901
  326EOH      C 1307   2.001   4.520   1.886
  326EOH      C 1308   2.009   4.390   1.803
  326EOH      H 1309   1.856   4.638   1.949
  327EOH      O 1310   0.205   3.308   2.292
  327EOH      C 1311   0.238   3.323   2.430
  327EOH      C 1312   0.189   3.460   2.481
  327EOH      H 1313   0.288   3.293   2.248
  328EOH      O 1314   1.817   0.541   0.018
  328EOH      C 1315   1.931   0.556   0.103
  328EOH      C 1316   1.913   0.684   0.187
  328EOH      H 1317   1.829   0.598  -0.057
  329EOH      O 1318   2.518   3.041   5.323
  329EOH      C 1319   2.551   3.106   5.447
  329EOH      C 1320   2.617   3.241   5.410
  329EOH      H 1321   2.474   2.961   5.347
  330EOH      O 1322   0.575   0.075   4.591
  330EOH      C 1323   0.453   0.088   4.518
  330EOH      C 1324   0.370   0.217   4.536
  330EOH      H 1325   0.617  -0.007   4.570
  331EOH      O 1326   5.704   0.162   0.041
  331EOH      C 1327   5.782   0.174   0.160
  331EOH      C 1328   5.765   0.309   0.233
  331EOH      H 1329   5.757   0.113  -0.020
  332EOH      O 1330   6.197   2.620   0.954
  332EOH      C 1331   6.293   2.696   0.880
  332EOH      C 1332   6.330   2.821   0.962
  332EOH      H 1333   6.122   2.673   0.980
  333EOH      O 1334   3.333   3.936   4.054
  333EOH      C 1335   3.455   3.947   3.980
  333EOH      C 1336   3.530   3.813   3.982
  333EOH      H 1337   3.268   3.975   3.997
  334EOH      O 1338   4.771   0.994   1.363
  334EOH      C 1339   4.786   1.001   1.221
  334EOH      C 1340   4.651   1.003   1.146
  334EOH      H 1341   4.706   0.927   1.377
  335EOH      O 1342   3.868   3.734   0.879
  335EOH      C 1343   3.944   3.771   0.994
  335EOH      C 1344   3.869   3.699   1.107
  335EOH      H 1345   3.838   3.645   0.882
  336EOH      O 1346   5.633   1.202   2.038
  336EOH      C 1347   5.589   1.332   1.998
  336EOH      C 1348   5.510   1.386   2.119
  336EOH      H 1349   5.682   1.222   2.116
  337EOH      O 1350   1.225   1.287   5.685
  337EOH      C 1351   1.187   1.403   5.760
  337EOH      C 1352   1.099   1.494   5.672
  337EOH      H 1353   1.290   1.322   5.625
  338EOH      O 1354   4.780   3.416   2.520
  338EOH      C 1355   4.903   3.479   2.482
  338EOH      C 1356   5.015   3.437   2.579
  338EOH      H 1357   4.775   3.360   2.444
  339EOH      O 1358   2.973   5.006   2.558
  339EOH      C 1359   2.887   5.114   2.520
  339EOH      C 1360   2.799   5.072   2.401
  339EOH      H 1361   3.038   5.044   2.615
  340EOH      O 1362   3.142   2.419   1.768
  340EOH      C 1363   3.022   2.417   1.846
  340EOH      C 1364   3.035   2.305   1.951
  340EOH      H 1365   3.119   2.463   1.688
  341EOH      O 1366   5.292   6.210   5.955
  341EOH      C 1367   5.271   6.351   5.949
  341EOH      C 1368   5.124   6.382   5.982
  341EOH      H 1369   5.242   6.159   5.892
  342EOH      O 1370   0.916   3.323   1.361
  342EOH      C 1371   0.901   3.195   1.423
  342EOH      C 1372   0.760   3.143   1.389
  342EOH      H 1373   0.866   3.396   1.395
  343EOH      O 1374   0.648   5.319   3.157
  343EOH      C 1375   0.541   5.310   3.063
  343EOH      C 1376   0.553   5.400   2.939
  343EOH      H 1377   0.610   5.342   3.240
  344EOH      O 1378   6.213   3.291   2.213
  344EOH      C 1379   6.129   3.341   2.318
  344EOH      C 1380   6.096   3.485   2.275
  344EOH      H 1381   6.302   3.320   2.228
  345EOH      O 1382   5.748   2.872   2.252
  345EOH      C 1383   5.863   2.945   2.296
  345EOH      C 1384   5.817   3.064   2.381
  345EOH      H 1385   5.764   2.780   2.265
  346EOH      O 1386   3.109   4.726   0.120
  346EOH      C 1387   3.177   4.651   0.221
  346EOH      C 1388   3.213   4.507   0.178
  346EOH      H 1389   3.035   4.676   0.091
  347EOH      O 1390   1.469   3.001   1.343
  347EOH      C 1391   1.377   3.104   1.380
  347EOH      C 1392   1.386   3.221   1.279
  347EOH      H 1393   1.456   2.927   1.401
  348EOH      O 1394   5.645   1.063   5.749
  348EOH      C 1395   5.578   0.940   5.777
  348EOH      C 1396   5.561   0.937   5.930
  348EOH      H 1397   5.736   1.043   5.734
  349EOH      O 1398   5.804   4.414   4.667
  349EOH      C 1399   5.749   4.284   4.644
  349EOH      C 1400   5.607   4.297   4.585
  349EOH      H 1401   5.887   4.414   4.622
  350EOH      O 1402   2.800   3.745   1.678
  350EOH      C 1403   2.710   3.855   1.697
  350EOH      C 1404   2.645   3.881   1.560
  350EOH      H 1405   2.751   3.665   1.687
  351EOH      O 1406   5.958   5.454   0.650
  351EOH      C 1407   5.991   5.362   0.755
  351EOH      C 1408   6.087   5.430   0.854
  351EOH      H 1409   5.924   5.411   0.573
  352EOH      O 1410   4.944   1.916   5.800
  352EOH      C 1411   4.970   2.018   5.897
  352EOH      C 1412   4.960   2.155   5.827
  352EOH      H 1413   4.898   1.842   5.838
  353EOH      O 1414   1.428   3.645   3.205
  353EOH      C 1415   1.296   3.700   3.210
  353EOH      C 1416   1.196   3.639   3.110
  353EOH      H 1417   1.479   3.684   3.274
  354EOH      O 1418   0.148   4.304   0.427
  354EOH      C 1419   0.107   4.319   0.563
  354EOH      C 1420   0.135   4.186   0.637
  354EOH      H 1421   0.237   4.273   0.419
  355EOH      O 1422   0.979   3.245   1.105
  355EOH      C 1423   0.913   3.341   1.023
  355EOH      C 1424   0.878   3.293   0.880
  355EOH      H 1425   0.978   3.276   1.194
  356EOH      O 1426   1.097   2.625   0.089
  356EOH      C 1427   1.084   2.519   0.184
  356EOH      C 1428   1.187   2.548   0.295
  356EOH      H 1429   1.028   2.688   0.100
  357EOH      O 1430   0.590   4.555   2.954
  357EOH      C 1431   0.687   4.652   2.913
  357EOH      C 1432   0.734   4.618   2.771
  357EOH      H 1433   0.645   4.495   3.001
  358EOH      O 1434   4.498   2.346   3.954
  358EOH      C 1435   4.574   2.306   3.840
  358EOH      C 1436   4.711   2.376   3.824
  358EOH      H 1437   4.478   2.271   4.008
  359EOH      O 1438   0.682   0.936   1.882
  359EOH      C 1439   0.711   0.828   1.792
  359EOH      C 1440   0.610   0.717   1.823
  359EOH      H 1441   0.763   0.983   1.894
  360EOH      O 1442   0.777   4.455   3.373
  360EOH      C 1443   0.647   4.431   3.426
  360EOH      C 1444   0.567   4.316   3.362
  360EOH      H 1445   0.833   4.448   3.449
  361EOH      O 1446   6.258   4.101   5.212
  361EOH      C 1447   6.307   4.084   5.079
  361EOH      C 1448   6.423   4.184   5.072
  361EOH      H 1449   6.314   4.047   5.266
  362EOH      O 1450   0.751   4.506   1.474
  362EOH      C 1451   0.626   4.486   1.408
  362EOH      C 1452   0.565   4.611   1.343
  362EOH      H 1453   0.763   4.434   1.534
  363EOH      O 1454   2.397   4.277   0.702
  363EOH      C 1455   2.505   4.280   0.608
  363EOH      C 1456   2.646   4.256   0.664
  363EOH      H 1457   2.371   4.366   0.720
  364EOH      O 1458   2.358   0.357   5.181
  364EOH      C 1459   2.378   0.216   5.195
  364EOH      C 1460   2.386   0.155   5.053
  364EOH      H 1461   2.330   0.386   5.267
  365EOH      O 1462   3.773   5.029   1.910
  365EOH      C 1463   3.867   5.136   1.898
  365EOH      C 1464   3.990   5.044   1.896
  365EOH      H 1465   3.757   5.009   2.001
  366EOH      O 1466   1.029   5.967   4.396
  366EOH      C 1467   1.162   5.988   4.349
  366EOH      C 1468   1.174   6.134   4.301
  366EOH      H 1469   1.015   5.874   4.402
  367EOH      O 1470   0.252   5.571   1.329
  367EOH      C 1471   0.378   5.551   1.393
  367EOH      C 1472   0.407   5.685   1.462
  367EOH      H 1473   0.273   5.568   1.237
  368EOH      O 1474   5.929   4.097   3.682
  368EOH      C 1475   5.864   3.970   3.687
  368EOH      C 1476   5.721   3.986   3.744
  368EOH      H 1477   5.965   4.115   3.596
  369EOH      O 1478   3.566   1.123   5.908
  369EOH      C 1479   3.581   0.981   5.917
  369EOH      C 1480   3.467   0.906   5.988
  369EOH      H 1481   3.543   1.149   5.820
  370EOH      O 1482   3.985   4.412   4.277
  370EOH      C 1483   4.016   4.316   4.176
  370EOH      C 1484   4.119   4.360   4.071
  370EOH      H 1485   3.927   4.480   4.245
  371EOH      O 1486   6.234   1.821   4.284
  371EOH      C 1487   6.267   1.841   4.147
  371EOH      C 1488   6.331   1.977   4.114
  371EOH      H 1489   6.145   1.789   4.282
  372EOH      O 1490   2.574   4.379   1.139
  372EOH      C 1491   2.530   4.258   1.201
  372EOH      C 1492   2.496   4.273   1.351
  372EOH      H 1493   2.660   4.393   1.175
  373EOH      O 1494   5.577   5.906   3.357
  373EOH      C 1495   5.701   5.837   3.338
  373EOH      C 1496   5.812   5.897   3.426
  373EOH      H 1497   5.568   5.977   3.295
  374EOH      O 1498   5.419   5.653   2.063
  374EOH      C 1499   5.524   5.586   2.134
  374EOH      C 1500   5.651   5.588   2.048
  374EOH      H 1501   5.337   5.642   2.109
  375EOH      O 1502   2.714   2.431   4.350
  375EOH      C 1503   2.618   2.451   4.454
  375EOH      C 1504   2.531   2.572   4.417
  375EOH      H 1505   2.718   2.337   4.356
  376EOH      O 1506   0.571   1.444   4.021
  376EOH      C 1507   0.602   1.503   3.895
  376EOH      C 1508   0.593   1.386   3.794
  376EOH      H 1509   0.617   1.499   4.083
  377EOH      O 1510   1.018   1.191   3.727
  377EOH      C 1511   0.906   1.156   3.810
  377EOH      C 1512   0.958   1.089   3.938
  377EOH      H 1513   1.025   1.120   3.665
  378EOH      O 1514   0.738   5.339   1.705
  378EOH      C 1515   0.635   5.241   1.686
  378EOH      C 1516   0.503   5.320   1.684
  378EOH      H 1517   0.787   5.349   1.625
  379EOH      O 1518   3.895   5.176   5.693
  379EOH      C 1519   3.802   5.201   5.587
  379EOH      C 1520   3.729   5.077   5.531
  379EOH      H 1521   3.839   5.132   5.755
  380EOH      O 1522   2.830   0.576   1.317
  380EOH      C 1523   2.916   0.469   1.275
  380EOH      C 1524   2.847   0.332   1.263
  380EOH      H 1525   2.802   0.564   1.406
  381EOH      O 1526   0.103   2.851   1.593
  381EOH      C 1527   0.008   2.891   1.494
  381EOH      C 1528   0.078   2.849   1.364
  381EOH      H 1529   0.178   2.905   1.570
  382EOH      O 1530   6.208   5.618   3.316
  382EOH      C 1531   6.083   5.552   3.337
  382EOH      C 1532   6.088   5.468   3.466
  382EOH      H 1533   6.263   5.558   3.269
  383EOH      O 1534   2.547   2.017   4.038
  383EOH      C 1535   2.478   1.924   3.952
  383EOH      C 1536   2.393   2.009   3.857
  383EOH      H 1537   2.640   2.009   4.027
  384EOH      O 1538   1.591   3.032   0.120
  384EOH      C 1539   1.568   3.128   0.224
  384EOH      C 1540   1.682   3.232   0.231
  384EOH      H 1541   1.515   2.976   0.123
  385EOH      O 1542   5.229   0.263   5.604
  385EOH      C 1543   5.139   0.208   5.508
  385EOH      C 1544   5.135   0.054   5.509
  385EOH      H 1545   5.252   0.353   5.586
  386EOH      O 1546   0.580   4.666   2.212
  386EOH      C 1547   0.684   4.570   2.228
  386EOH      C 1548   0.783   4.608   2.339
  386EOH      H 1549   0.538   4.667   2.127
  387EOH      O 1550   4.727   1.485   0.902
  387EOH      C 1551   4.616   1.510   0.816
  387EOH      C 1552   4.554   1.378   0.767
  387EOH      H 1553   4.713   1.537   0.980
  388EOH      O 1554   0.475   4.017   0.452
  388EOH      C 1555   0.550   3.914   0.386
  388EOH      C 1556   0.693   3.968   0.372
  388EOH      H 1557   0.496   4.008   0.544
  389EOH      O 1558   2.879   2.545   0.935
  389EOH      C 1559   2.970   2.487   0.841
  389EOH      C 1560   2.895   2.400   0.740
  389EOH      H 1561   2.870   2.638   0.921
  390EOH      O 1562   0.794   3.260   3.347
  390EOH      C 1563   0.934   3.277   3.367
  390EOH      C 1564   0.988   3.357   3.247
  390EOH      H 1565   0.745   3.256   3.427
  391EOH      O 1566   4.428   5.827   3.228
  391EOH      C 1567   4.568   5.833   3.202
  391EOH      C 1568   4.650   5.763   3.312
  391EOH      H 1569   4.408   5.908   3.273
  392EOH      O 1570   0.897   2.942   3.696
  392EOH      C 1571   1.011   2.895   3.769
  392EOH      C 1572   0.997   2.750   3.818
  392EOH      H 1573   0.890   2.892   3.616
  393EOH      O 1574   1.609   5.544   5.440
  393EOH      C 1575   1.528   5.599   5.335
  393EOH      C 1576   1.589   5.575   5.196
  393EOH      H 1577   1.575   5.458   5.458
  394EOH      O 1578   1.427   1.659   1.404
  394EOH      C 1579   1.325   1.563   1.433
  394EOH      C 1580   1.193   1.611   1.368
  394EOH      H 1581   1.508   1.638   1.448
  395EOH      O 1582   5.575   3.761   2.589
  395EOH      C 1583   5.645   3.654   2.653
  395EOH      C 1584   5.787   3.660   2.595
  395EOH      H 1585   5.568   3.824   2.659
  396EOH      O 1586   5.373   2.771   6.232
  396EOH      C 1587   5.276   2.831   6.145
  396EOH      C 1588   5.163   2.735   6.104
  396EOH      H 1589   5.444   2.739   6.178
  397EOH      O 1590   0.846   2.466   6.019
  397EOH      C 1591   0.961   2.431   6.096
  397EOH      C 1592   0.924   2.337   6.212
  397EOH      H 1593   0.799   2.386   6.000
  398EOH      O 1594   3.885   3.255   0.467
  398EOH      C 1595   3.856   3.284   0.330
  398EOH      C 1596   3.797   3.423   0.302
  398EOH      H 1597   3.892   3.161   0.473
  399EOH      O 1598   1.119   1.282   3.250
  399EOH      C 1599   1.101   1.232   3.382
  399EOH      C 1600   1.220   1.261   3.475
  399EOH      H 1601   1.034   1.270   3.210
  400EOH      O 1602   1.493   0.529   4.170
  400EOH      C 1603   1.579   0.441   4.242
  400EOH      C 1604   1.716   0.441   4.172
  400EOH      H 1605   1.410   0.484   4.173
  401EOH      O 1606   2.874   1.757   3.135
  401EOH      C 1607   3.007   1.791   3.175
  401EOH      C 1608   3.087   1.839   3.052
  401EOH      H 1609   2.876   1.688   3.070
  402EOH      O 1610   2.552   4.230   5.041
  402EOH      C 1611   2.672   4.210   4.966
  402EOH      C 1612   2.752   4.111   5.051
  402EOH      H 1613   2.516   4.143   5.055
  403EOH      O 1614   4.446   4.371   2.165
  403EOH      C 1615   4.577   4.388   2.220
  403EOH      C 1616   4.610   4.246   2.270
  403EOH      H 1617   4.458   4.379   2.071
  404EOH      O 1618   3.347   5.182   1.852
  404EOH      C 1619   3.415   5.289   1.786
  404EOH      C 1620   3.489   5.248   1.658
  404EOH      H 1621   3.398   5.106   1.831
  405EOH      O 1622   2.405   0.374   2.131
  405EOH      C 1623   2.414   0.248   2.197
  405EOH      C 1624   2.415   0.136   2.091
  405EOH      H 1625   2.313   0.391   2.115
  406EOH      O 1626   4.579   4.178   3.947
  406EOH      C 1627   4.437   4.192   3.962
  406EOH      C 1628   4.380   4.076   4.046
  406EOH      H 1629   4.599   4.096   3.906
  407EOH      O 1630   5.556   3.957   4.110
  407EOH      C 1631   5.675   3.878   4.104
  407EOH      C 1632   5.799   3.923   4.184
  407EOH      H 1633   5.517   3.953   4.024
  408EOH      O 1634   3.960   3.028   0.482
  408EOH      C 1635   4.093   3.025   0.536
  408EOH      C 1636   4.200   3.058   0.430
  408EOH      H 1637   3.891   2.982   0.527
  409EOH      O 1638   4.102   2.965   2.162
  409EOH      C 1639   4.205   3.046   2.108
  409EOH      C 1640   4.289   3.079   2.233
  409EOH      H 1641   4.074   3.012   2.240
  410EOH      O 1642   2.596   1.925   0.120
  410EOH      C 1643   2.731   1.945   0.075
  410EOH      C 1644   2.827   1.875   0.172
  410EOH      H 1645   2.558   1.855   0.069
  411EOH      O 1646   3.556   0.704   4.222
  411EOH      C 1647   3.691   0.674   4.258
  411EOH      C 1648   3.704   0.528   4.304
  411EOH      H 1649   3.561   0.745   4.137
  412EOH      O 1650   2.753   0.568   4.197
  412EOH      C 1651   2.706   0.703   4.208
  412EOH      C 1652   2.798   0.790   4.296
  412EOH      H 1653   2.825   0.571   4.136
  413EOH      O 1654   5.264   3.684   5.916
  413EOH      C 1655   5.254   3.742   6.046
  413EOH      C 1656   5.325   3.878   6.040
  413EOH      H 1657   5.192   3.720   5.867
  414EOH      O 1658   3.869   5.870   0.923
  414EOH      C 1659   3.769   5.941   0.996
  414EOH      C 1660   3.789   6.087   0.953
  414EOH      H 1661   3.848   5.778   0.929
  415EOH      O 1662   5.172   2.926   2.482
  415EOH      C 1663   5.224   2.979   2.604
  415EOH      C 1664   5.106   3.021   2.693
  415EOH      H 1665   5.247   2.891   2.435
  416EOH      O 1666   0.362   1.094   4.172
  416EOH      C 1667   0.250   1.039   4.102
  416EOH      C 1668   0.123   1.053   4.188
  416EOH      H 1669   0.361   1.188   4.177
  417EOH      O 1670   2.572   6.085   4.243
  417EOH      C 1671   2.432   6.096   4.215
  417EOH      C 1672   2.378   5.957   4.254
  417EOH      H 1673   2.590   6.124   4.327
  418EOH      O 1674   3.700   4.171   5.391
  418EOH      C 1675   3.738   4.089   5.502
  418EOH      C 1676   3.610   4.030   5.563
  418EOH      H 1677   3.736   4.132   5.313
  419EOH      O 1678   1.210   5.471   3.692
  419EOH      C 1679   1.342   5.468   3.747
  419EOH      C 1680   1.391   5.612   3.772
  419EOH      H 1681   1.215   5.407   3.622
  420EOH      O 1682   1.959   4.539   1.326
  420EOH      C 1683   1.944   4.397   1.330
  420EOH      C 1684   2.023   4.353   1.205
  420EOH      H 1685   1.916   4.570   1.248
  421EOH      O 1686   0.537   4.064   0.741
  421EOH      C 1687   0.448   4.001   0.833
  421EOH      C 1688   0.383   3.888   0.750
  421EOH      H 1689   0.598   4.121   0.785
  422EOH      O 1690   0.581   5.078   2.386
  422EOH      C 1691   0.694   5.019   2.451
  422EOH      C 1692   0.680   4.976   2.598
  422EOH      H 1693   0.557   5.019   2.315
  423EOH      O 1694   1.948   3.602   4.222
  423EOH      C 1695   2.066   3.645   4.154
  423EOH      C 1696   2.041   3.659   4.003
  423EOH      H 1697   1.959   3.593   4.315
  424EOH      O 1698   2.892   1.314   4.112
  424EOH      C 1699   2.962   1.375   4.221
  424EOH      C 1700   3.097   1.409   4.154
  424EOH      H 1701   2.824   1.254   4.139
  425EOH      O 1702   4.836   2.819   5.345
  425EOH      C 1703   4.865   2.680   5.332
  425EOH      C 1704   4.924   2.630   5.465
  425EOH      H 1705   4.794   2.852   5.267
  426EOH      O 1706   5.186   4.259   2.845
  426EOH      C 1707   5.194   4.208   2.978
  426EOH      C 1708   5.067   4.124   3.003
  426EOH      H 1709   5.115   4.317   2.870
  427EOH      O 1710   5.120   6.095   5.828
  427EOH      C 1711   5.160   5.979   5.755
  427EOH      C 1712   5.273   6.011   5.656
  427EOH      H 1713   5.070   6.056   5.898
  428EOH      O 1714   0.793   1.414   1.402
  428EOH      C 1715   0.773   1.349   1.276
  428EOH      C 1716   0.848   1.433   1.171
  428EOH      H 1717   0.741   1.493   1.399
  429EOH      O 1718   5.496   4.689   1.090
  429EOH      C 1719   5.438   4.596   1.182
  429EOH      C 1720   5.506   4.459   1.166
  429EOH      H 1721   5.578   4.711   1.132
  430EOH      O 1722   2.823   1.638   5.254
  430EOH      C 1723   2.917   1.613   5.148
  430EOH      C 1724   2.896   1.485   5.066
  430EOH      H 1725   2.740   1.652   5.211
  431EOH      O 1726   1.646   2.081   3.704
  431EOH      C 1727   1.600   2.181   3.613
  431EOH      C 1728   1.671   2.315   3.637
  431EOH      H 1729   1.741   2.080   3.705
  432EOH      O 1730   2.564   0.939   2.460
  432EOH      C 1731   2.694   0.904   2.506
  432EOH      C 1732   2.693   0.840   2.646
  432EOH      H 1733   2.548   0.873   2.394
  433EOH      O 1734   0.069   0.561   1.030
  433EOH      C 1735  -0.048   0.515   0.962
  433EOH      C 1736  -0.029   0.363   0.942
  433EOH      H 1737   0.042   0.631   1.088
  434EOH      O 1738   2.507   1.141   1.332
  434EOH      C 1739   2.555   1.209   1.448
  434EOH      C 1740   2.477   1.166   1.574
  434EOH      H 1741   2.496   1.192   1.254
  435EOH      O 1742   3.052   1.454   1.782
  435EOH      C 1743   3.013   1.326   1.729
  435EOH      C 1744   2.924   1.351   1.606
  435EOH      H 1745   3.098   1.429   1.860
  436EOH      O 1746   2.073   3.663   2.355
  436EOH      C 1747   2.175   3.623   2.447
  436EOH      C 1748   2.142   3.697   2.578
  436EOH      H 1749   2.092   3.750   2.324
  437EOH      O 1750   3.820   0.227   1.558
  437EOH      C 1751   3.926   0.208   1.651
  437EOH      C 1752   4.051   0.152   1.579
  437EOH      H 1753   3.811   0.145   1.513
  438EOH      O 1754   1.992   2.566   3.011
  438EOH      C 1755   1.956   2.584   3.148
  438EOH      C 1756   1.841   2.685   3.162
  438EOH      H 1757   2.060   2.501   3.014
  439EOH      O 1758   0.454   2.930   5.259
  439EOH      C 1759   0.559   2.881   5.344
  439EOH      C 1760   0.582   2.735   5.300
  439EOH      H 1761   0.374   2.894   5.294
  440EOH      O 1762   4.326   6.008   1.715
  440EOH      C 1763   4.275   6.141   1.729
  440EOH      C 1764   4.375   6.232   1.653
  440EOH      H 1765   4.379   5.985   1.789
  441EOH      O 1766   4.056   0.569   3.410
  441EOH      C 1767   3.978   0.639   3.312
  441EOH      C 1768   3.919   0.525   3.227
  441EOH      H 1769   4.104   0.627   3.468
  442EOH      O 1770   4.419   2.725   6.173
  442EOH      C 1771   4.384   2.764   6.306
  442EOH      C 1772   4.405   2.913   6.339
  442EOH      H 1773   4.507   2.691   6.165
  443EOH      O 1774   2.266   3.410   0.909
  443EOH      C 1775   2.251   3.456   0.775
  443EOH      C 1776   2.246   3.362   0.654
  443EOH      H 1777   2.280   3.486   0.963
  444EOH      O 1778   6.253   6.113   1.795
  444EOH      C 1779   6.231   5.985   1.854
  444EOH      C 1780   6.240   5.875   1.745
  444EOH      H 1781   6.298   6.165   1.860
  445EOH      O 1782   0.826   6.105   0.269
  445EOH      C 1783   0.796   6.142   0.404
  445EOH      C 1784   0.927   6.134   0.485
  445EOH      H 1785   0.834   6.011   0.256
  446EOH      O 1786   3.072   5.369   6.061
  446EOH      C 1787   2.939   5.403   6.021
  446EOH      C 1788   2.834   5.394   6.133
  446EOH      H 1789   3.091   5.298   6.002
  447EOH      O 1790   1.940   5.936   3.835
  447EOH      C 1791   1.825   6.017   3.808
  447EOH      C 1792   1.705   5.923   3.788
  447EOH      H 1793   2.010   5.999   3.838
  448EOH      O 1794   0.187   5.754   4.907
  448EOH      C 1795   0.087   5.750   5.010
  448EOH      C 1796   0.090   5.874   5.100
  448EOH      H 1797   0.155   5.703   4.834
  449EOH      O 1798   2.599   3.121   2.625
  449EOH      C 1799   2.631   2.985   2.658
  449EOH      C 1800   2.782   2.953   2.654
  449EOH      H 1801   2.547   3.159   2.694
  450EOH      O 1802   3.882   1.723   3.555
  450EOH      C 1803   3.972   1.832   3.576
  450EOH      C 1804   4.076   1.847   3.463
  450EOH      H 1805   3.847   1.696   3.639
  451EOH      O 1806   5.173   1.833   2.027
  451EOH      C 1807   5.054   1.766   1.984
  451EOH      C 1808   4.960   1.714   2.094
  451EOH      H 1809   5.239   1.827   1.959
  452EOH      O 1810   1.806   2.804   5.160
  452EOH      C 1811   1.933   2.865   5.143
  452EOH      C 1812   1.960   2.965   5.257
  452EOH      H 1813   1.741   2.870   5.140
  453EOH      O 1814   0.224   1.541   5.856
  453EOH      C 1815   0.303   1.638   5.926
  453EOH      C 1816   0.352   1.748   5.829
  453EOH      H 1817   0.274   1.464   5.834
  454EOH      O 1818   0.956   4.150   0.880
  454EOH      C 1819   1.023   4.080   0.985
  454EOH      C 1820   1.076   4.192   1.076
  454EOH      H 1821   0.969   4.099   0.802
  455EOH      O 1822   4.372   5.340   1.456
  455EOH      C 1823   4.426   5.391   1.333
  455EOH      C 1824   4.484   5.272   1.254
  455EOH      H 1825   4.287   5.318   1.421
  456EOH      O 1826   5.823   0.803   0.673
  456EOH      C 1827   5.762   0.752   0.791
  456EOH      C 1828   5.809   0.824   0.919
  456EOH      H 1829   5.779   0.764   0.599
  457EOH      O 1830   3.550   2.602   0.052
  457EOH      C 1831   3.547   2.489   0.140
  457EOH      C 1832   3.403   2.440   0.162
  457EOH      H 1833   3.608   2.575  -0.018
  458EOH      O 1834   1.709   3.051   1.225
  458EOH      C 1835   1.715   3.019   1.085
  458EOH      C 1836   1.624   3.106   0.996
  458EOH      H 1837   1.620   3.043   1.256
  459EOH      O 1838   2.057   0.393   5.373
  459EOH      C 1839   1.945   0.383   5.284
  459EOH      C 1840   1.857   0.261   5.318
  459EOH      H 1841   2.035   0.361   5.459
  460EOH      O 1842   1.663   2.695   2.504
  460EOH      C 1843   1.687   2.791   2.400
  460EOH      C 1844   1.563   2.803   2.310
  460EOH      H 1845   1.685   2.741   2.584
  461EOH      O 1846   3.776   4.019   3.407
  461EOH      C 1847   3.697   4.102   3.321
  461EOH      C 1848   3.622   4.011   3.221
  461EOH      H 1849   3.748   3.931   3.428
  462EOH      O 1850   6.089   5.347   1.491
  462EOH      C 1851   6.173   5.314   1.381
  462EOH      C 1852   6.085   5.293   1.256
  462EOH      H 1853   6.137   5.406   1.548
  463EOH      O 1854   0.558   5.373   5.868
  463EOH      C 1855   0.434   5.444   5.862
  463EOH      C 1856   0.412   5.535   5.984
  463EOH      H 1857   0.625   5.435   5.841
  464EOH      O 1858   3.944   4.031   2.697
  464EOH      C 1859   3.985   4.040   2.833
  464EOH      C 1860   3.875   4.070   2.937
  464EOH      H 1861   4.004   4.088   2.651
  465EOH      O 1862   0.404   4.668   1.966
  465EOH      C 1863   0.406   4.607   1.836
  465EOH      C 1864   0.543   4.607   1.765
  465EOH      H 1865   0.316   4.694   1.989
  466EOH      O 1866   1.706   4.585   4.593
  466EOH      C 1867   1.766   4.571   4.464
  466EOH      C 1868   1.853   4.697   4.444
  466EOH      H 1869   1.624   4.631   4.582
  467EOH      O 1870   5.540   4.675   4.363
  467EOH      C 1871   5.405   4.718   4.381
  467EOH      C 1872   5.339   4.623   4.482
  467EOH      H 1873   5.588   4.684   4.444
  468EOH      O 1874   2.445   1.960   6.047
  468EOH      C 1875   2.376   1.870   5.959
  468EOH      C 1876   2.299   1.947   5.851
  468EOH      H 1877   2.496   1.915   6.112
  469EOH      O 1878   3.312   4.672   5.004
  469EOH      C 1879   3.441   4.622   5.042
  469EOH      C 1880   3.563   4.675   4.966
  469EOH      H 1881   3.268   4.705   5.080
  470EOH      O 1882   0.934   0.545   1.079
  470EOH      C 1883   0.856   0.460   0.995
  470EOH      C 1884   0.869   0.493   0.845
  470EOH      H 1885   0.994   0.588   1.020
  471EOH      O 1886   5.693   2.700   1.354
  471EOH      C 1887   5.718   2.608   1.248
  471EOH      C 1888   5.692   2.464   1.294
  471EOH      H 1889   5.759   2.683   1.419
  472EOH      O 1890   2.235   5.158   5.015
  472EOH      C 1891   2.193   5.147   5.151
  472EOH      C 1892   2.320   5.171   5.234
  472EOH      H 1893   2.158   5.137   4.963
  473EOH      O 1894   2.409   0.876   0.995
  473EOH      C 1895   2.421   0.735   0.978
  473EOH      C 1896   2.513   0.689   0.863
  473EOH      H 1897   2.348   0.888   1.066
  474EOH      O 1898   0.102   5.428   3.320
  474EOH      C 1899   0.118   5.364   3.447
  474EOH      C 1900   0.127   5.210   3.436
  474EOH      H 1901   0.134   5.366   3.256
  475EOH      O 1902   0.967   5.598   4.168
  475EOH      C 1903   1.107   5.585   4.144
  475EOH      C 1904   1.163   5.727   4.123
  475EOH      H 1905   0.920   5.573   4.089
  476EOH      O 1906   0.308   2.285   6.177
  476EOH      C 1907   0.432   2.225   6.217
  476EOH      C 1908   0.413   2.075   6.190
  476EOH      H 1909   0.294   2.365   6.226
  477EOH      O 1910   0.047   5.722   3.668
  477EOH      C 1911  -0.066   5.735   3.755
  477EOH      C 1912  -0.098   5.598   3.818
  477EOH      H 1913   0.021   5.762   3.586
  478EOH      O 1914   2.286   6.057   2.235
  478EOH      C 1915   2.243   5.933   2.291
  478EOH      C 1916   2.295   5.939   2.435
  478EOH      H 1917   2.305   6.038   2.145
  479EOH      O 1918   2.237   5.809   5.275
  479EOH      C 1919   2.230   5.816   5.418
  479EOH      C 1920   2.200   5.952   5.483
  479EOH      H 1921   2.149   5.817   5.242
  480EOH      O 1922   4.947   0.209   4.458
  480EOH      C 1923   5.053   0.113   4.460
  480EOH      C 1924   5.181   0.195   4.438
  480EOH      H 1925   4.937   0.251   4.374
  481EOH      O 1926   0.012   1.329   3.657
  481EOH      C 1927  -0.056   1.330   3.783
  481EOH      C 1928   0.023   1.259   3.894
  481EOH      H 1929   0.079   1.396   3.660
  482EOH      O 1930   3.938   3.399   4.134
  482EOH      C 1931   3.977   3.494   4.035
  482EOH      C 1932   3.899   3.481   3.903
  482EOH      H 1933   3.852   3.429   4.158
  483EOH      O 1934   4.104   1.172   3.124
  483EOH      C 1935   3.991   1.100   3.074
  483EOH      C 1936   3.905   1.067   3.197
  483EOH      H 1937   4.131   1.221   3.048
  484EOH      O 1938   0.788   4.369   3.028
  484EOH      C 1939   0.714   4.248   3.005
  484EOH      C 1940   0.703   4.242   2.851
  484EOH      H 1941   0.849   4.346   3.097
  485EOH      O 1942   3.068   2.504   1.539
  485EOH      C 1943   3.079   2.644   1.566
  485EOH      C 1944   3.214   2.705   1.525
  485EOH      H 1945   3.049   2.492   1.447
  486EOH      O 1946   6.212   5.573   5.414
  486EOH      C 1947   6.104   5.626   5.336
  486EOH      C 1948   6.006   5.507   5.345
  486EOH      H 1949   6.257   5.499   5.377
  487EOH      O 1950   3.933   2.426   4.934
  487EOH      C 1951   4.026   2.479   4.839
  487EOH      C 1952   3.999   2.425   4.697
  487EOH      H 1953   3.888   2.502   4.967
  488EOH      O 1954   3.208   1.538   0.313
  488EOH      C 1955   3.296   1.624   0.240
  488EOH      C 1956   3.218   1.715   0.143
  488EOH      H 1957   3.217   1.566   0.403
  489EOH      O 1958   3.498   0.713   0.951
  489EOH      C 1959   3.590   0.654   1.043
  489EOH      C 1960   3.704   0.589   0.962
  489EOH      H 1961   3.415   0.682   0.986
  490EOH      O 1962   3.820   0.892   1.995
  490EOH      C 1963   3.797   0.911   2.135
  490EOH      C 1964   3.888   1.023   2.190
  490EOH      H 1965   3.881   0.820   1.982
  491EOH      O 1966   5.320   4.071   5.432
  491EOH      C 1967   5.248   4.110   5.549
  491EOH      C 1968   5.100   4.131   5.511
  491EOH      H 1969   5.408   4.103   5.423
  492EOH      O 1970   5.318   2.827   2.297
  492EOH      C 1971   5.274   2.701   2.244
  492EOH      C 1972   5.368   2.582   2.273
  492EOH      H 1973   5.386   2.864   2.243
  493EOH      O 1974   3.798   3.831   0.677
  493EOH      C 1975   3.837   3.961   0.633
  493EOH      C 1976   3.755   4.012   0.512
  493EOH      H 1977   3.841   3.822   0.760
  494EOH      O 1978   0.684   5.683   0.320
  494EOH      C 1979   0.659   5.666   0.460
  494EOH      C 1980   0.676   5.796   0.541
  494EOH      H 1981   0.697   5.600   0.277
  495EOH      O 1982   0.395   2.559   1.586
  495EOH      C 1983   0.455   2.687   1.565
  495EOH      C 1984   0.518   2.700   1.425
  495EOH      H 1985   0.303   2.576   1.573
  496EOH      O 1986   1.306   0.176   4.909
  496EOH      C 1987   1.404   0.280   4.920
  496EOH      C 1988   1.405   0.334   5.064
  496EOH      H 1989   1.324   0.118   4.836
  497EOH      O 1990   2.591   6.080   3.270
  497EOH      C 1991   2.707   6.092   3.187
  497EOH      C 1992   2.668   6.113   3.040
  497EOH      H 1993   2.612   6.038   3.352
  498EOH      O 1994   3.843   4.327   0.147
  498EOH      C 1995   3.739   4.270   0.227
  498EOH      C 1996   3.602   4.339   0.210
  498EOH      H 1997   3.870   4.409   0.186
  499EOH      O 1998   3.075   4.325   2.406
  499EOH      C 1999   3.076   4.388   2.534
  499EOH      C 2000   2.949   4.353   2.614
  499EOH      H 2001   3.146   4.263   2.402
  500EOH      O 2002   4.900   0.903   4.347
  500EOH      C 2003   4.980   0.806   4.415
  500EOH      C 2004   5.051   0.723   4.307
  500EOH      H 2005   4.811   0.898   4.376
  501EOH      O 2006   3.360   0.274   0.772
  501EOH      C 2007   3.481   0.288   0.848
  501EOH      C 2008   3.564   0.172   0.791
  501EOH      H 2009   3.310   0.347   0.807
  502EOH      O 2010   2.999   5.886   6.237
  502EOH      C 2011   3.093   5.783   6.270
  502EOH      C 2012   3.029   5.672   6.356
  502EOH      H 2013   3.038   5.934   6.165
  503EOH      O 2014   3.404   5.082   2.789
  503EOH      C 2015   3.476   5.174   2.707
  503EOH      C 2016   3.404   5.310   2.714
  503EOH      H 2017   3.469   5.020   2.818
  504EOH      O 2018   0.451   5.291   5.311
  504EOH      C 2019   0.499   5.193   5.403
  504EOH      C 2020   0.467   5.246   5.544
  504EOH      H 2021   0.450   5.257   5.222
  505EOH      O 2022   0.754   3.534   1.456
  505EOH      C 2023   0.699   3.570   1.584
  505EOH      C 2024   0.762   3.475   1.687
  505EOH      H 2025   0.725   3.602   1.398
  506EOH      O 2026   1.237   3.958   3.546
  506EOH      C 2027   1.332   3.990   3.444
  506EOH      C 2028   1.379   4.135   3.464
  506EOH      H 2029   1.169   3.905   3.506
  507EOH      O 2030   4.002   4.626   0.915
  507EOH      C 2031   4.026   4.494   0.868
  507EOH      C 2032   3.957   4.396   0.965
  507EOH      H 2033   4.085   4.664   0.943
  508EOH      O 2034   3.202   3.623   5.462
  508EOH      C 2035   3.289   3.704   5.383
  508EOH      C 2036   3.392   3.624   5.301
  508EOH      H 2037   3.124   3.595   5.416
  509EOH      O 2038   0.628   0.262   5.290
  509EOH      C 2039   0.699   0.382   5.259
  509EOH      C 2040   0.837   0.373   5.327
  509EOH      H 2041   0.581   0.242   5.211
  510EOH      O 2042   0.415   3.010   2.201
  510EOH      C 2043   0.305   2.919   2.186
  510EOH      C 2044   0.195   2.958   2.085
  510EOH      H 2045   0.486   2.963   2.242
  511EOH      O 2046   3.689   1.190   4.058
  511EOH      C 2047   3.733   1.062   4.104
  511EOH      C 2048   3.732   1.057   4.258
  511EOH      H 2049   3.595   1.176   4.050
  512EOH      O 2050   1.511   1.018   2.084
  512EOH      C 2051   1.585   1.106   2.170
  512EOH      C 2052   1.676   1.188   2.077
  512EOH      H 2053   1.469   0.951   2.135
  513EOH      O 2054   2.590   1.782   3.393
  513EOH      C 2055   2.706   1.793   3.475
  513EOH      C 2056   2.652   1.815   3.618
  513EOH      H 2057   2.618   1.821   3.312
  514EOH      O 2058   2.665   4.640   3.043
  514EOH      C 2059   2.756   4.633   2.932
  514EOH      C 2060   2.903   4.625   2.977
  514EOH      H 2061   2.669   4.568   3.104
  515EOH      O 2062   2.442   3.351   3.051
  515EOH      C 2063   2.402   3.306   3.180
  515EOH      C 2064   2.323   3.178   3.143
  515EOH      H 2065   2.393   3.427   3.021
  516EOH      O 2066   2.476   3.216   5.133
  516EOH      C 2067   2.448   3.173   5.000
  516EOH      C 2068   2.357   3.049   5.013
  516EOH      H 2069   2.501   3.138   5.181
  517EOH      O 2070   2.172   1.664   0.985
  517EOH      C 2071   2.227   1.535   0.957
  517EOH      C 2072   2.274   1.541   0.810
  517EOH      H 2073   2.172   1.684   1.077
  518EOH      O 2074   5.496   0.446   5.297
  518EOH      C 2075   5.382   0.373   5.249
  518EOH      C 2076   5.407   0.222   5.267
  518EOH      H 2077   5.516   0.420   5.385
  519EOH      O 2078   5.617   0.007   1.661
  519EOH      C 2079   5.713  -0.006   1.555
  519EOH      C 2080   5.693  -0.131   1.468
  519EOH      H 2081   5.641  -0.056   1.727
  520EOH      O 2082   0.743   0.553   2.811
  520EOH      C 2083   0.691   0.425   2.848
  520EOH      C 2084   0.735   0.406   2.994
  520EOH      H 2085   0.828   0.529   2.777
  521EOH      O 2086   2.757   1.764   5.698
  521EOH      C 2087   2.753   1.683   5.816
  521EOH      C 2088   2.611   1.633   5.851
  521EOH      H 2089   2.798   1.709   5.633
  522EOH      O 2090   3.949   4.768   1.353
  522EOH      C 2091   3.861   4.715   1.453
  522EOH      C 2092   3.810   4.815   1.558
  522EOH      H 2093   3.923   4.765   1.263
  523EOH      O 2094   5.815   5.647   3.042
  523EOH      C 2095   5.939   5.717   3.026
  523EOH      C 2096   6.047   5.637   2.952
  523EOH      H 2097   5.786   5.628   2.954
  524EOH      O 2098   4.399   4.434   5.451
  524EOH      C 2099   4.436   4.493   5.326
  524EOH      C 2100   4.528   4.409   5.236
  524EOH      H 2101   4.315   4.398   5.429
  525EOH      O 2102   4.973   4.429   2.921
  525EOH      C 2103   4.853   4.482   2.865
  525EOH      C 2104   4.860   4.477   2.711
  525EOH      H 2105   5.022   4.499   2.961
  526EOH      O 2106   0.037   0.052   6.217
  526EOH      C 2107   0.136  -0.016   6.140
  526EOH      C 2108   0.182  -0.146   6.208
  526EOH      H 2109   0.044   0.144   6.195
  527EOH      O 2110   2.828   5.931   0.585
  527EOH      C 2111   2.934   5.956   0.493
  527EOH      C 2112   3.064   5.911   0.563
  527EOH      H 2113   2.752   5.949   0.532
  528EOH      O 2114   0.661   3.572   4.185
  528EOH      C 2115   0.522   3.550   4.214
  528EOH      C 2116   0.520   3.444   4.325
  528EOH      H 2117   0.699   3.616   4.260
  529EOH      O 2118   5.510   0.207   2.445
  529EOH      C 2119   5.546   0.341   2.412
  529EOH      C 2120   5.691   0.382   2.446
  529EOH      H 2121   5.419   0.192   2.422
  530EOH      O 2122   0.293   0.799   4.558
  530EOH      C 2123   0.245   0.711   4.456
  530EOH      C 2124   0.095   0.695   4.485
  530EOH      H 2125   0.273   0.890   4.545
  531EOH      O 2126   1.748   3.610   0.828
  531EOH      C 2127   1.878   3.552   0.842
  531EOH      C 2128   1.958   3.645   0.935
  531EOH      H 2129   1.755   3.703   0.813
  532EOH      O 2130   1.649   0.367   1.385
  532EOH      C 2131   1.544   0.274   1.356
  532EOH      C 2132   1.529   0.265   1.203
  532EOH      H 2133   1.596   0.445   1.380
  533EOH      O 2134   3.681   2.518   3.015
  533EOH      C 2135   3.581   2.589   2.943
  533EOH      C 2136   3.571   2.738   2.981
  533EOH      H 2137   3.701   2.433   2.979
  534EOH      O 2138   1.704   5.173   0.632
  534EOH      C 2139   1.743   5.192   0.768
  534EOH      C 2140   1.786   5.055   0.825
  534EOH      H 2141   1.647   5.247   0.618
  535EOH      O 2142   3.218   0.561   0.657
  535EOH      C 2143   3.318   0.663   0.654
  535EOH      C 2144   3.451   0.592   0.622
  535EOH      H 2145   3.214   0.521   0.571
  536EOH      O 2146   2.967   4.016   0.170
  536EOH      C 2147   2.888   3.958   0.274
  536EOH      C 2148   2.744   4.011   0.288
  536EOH      H 2149   3.037   3.954   0.155
  537EOH      O 2150   2.230   2.105   2.493
  537EOH      C 2151   2.179   2.223   2.556
  537EOH      C 2152   2.217   2.340   2.463
  537EOH      H 2153   2.207   2.027   2.542
  538EOH      O 2154   5.298   4.388   1.647
  538EOH      C 2155   5.204   4.491   1.679
  538EOH      C 2156   5.161   4.557   1.547
  538EOH      H 2157   5.375   4.403   1.700
  539EOH      O 2158   3.401   5.627   4.709
  539EOH      C 2159   3.376   5.488   4.729
  539EOH      C 2160   3.329   5.465   4.874
  539EOH      H 2161   3.495   5.640   4.709
  540EOH      O 2162   1.696   0.772   1.848
  540EOH      C 2163   1.793   0.802   1.949
  540EOH      C 2164   1.902   0.896   1.896
  540EOH      H 2165   1.623   0.831   1.861
  541EOH      O 2166   1.425   4.406   2.962
  541EOH      C 2167   1.390   4.474   3.083
  541EOH      C 2168   1.446   4.617   3.083
  541EOH      H 2169   1.363   4.422   2.892
  542EOH      O 2170   2.724   1.116   4.220
  542EOH      C 2171   2.642   1.052   4.123
  542EOH      C 2172   2.653   1.100   3.977
  542EOH      H 2173   2.689   1.103   4.307
  543EOH      O 2174   5.596   3.505   0.504
  543EOH      C 2175   5.580   3.365   0.530
  543EOH      C 2176   5.494   3.298   0.421
  543EOH      H 2177   5.680   3.515   0.464
  544EOH      O 2178   3.066   6.065   3.331
  544EOH      C 2179   3.159   6.144   3.257
  544EOH      C 2180   3.222   6.245   3.355
  544EOH      H 2181   3.061   5.980   3.290
  545EOH      O 2182   1.274   3.621   1.617
  545EOH      C 2183   1.144   3.565   1.599
  545EOH      C 2184   1.091   3.588   1.457
  545EOH      H 2185   1.305   3.590   1.702
  546EOH      O 2186   0.821   0.344   3.804
  546EOH      C 2187   0.921   0.437   3.761
  546EOH      C 2188   0.923   0.565   3.846
  546EOH      H 2189   0.808   0.278   3.737
  547EOH      O 2190   3.610   2.954   4.397
  547EOH      C 2191   3.573   2.819   4.426
  547EOH      C 2192   3.423   2.807   4.461
  547EOH      H 2193   3.584   3.011   4.468
  548EOH      O 2194   1.307   2.504   2.290
  548EOH      C 2195   1.234   2.625   2.271
  548EOH      C 2196   1.098   2.586   2.208
  548EOH      H 2197   1.378   2.515   2.351
  549EOH      O 2198   5.513   3.924   2.765
  549EOH      C 2199   5.371   3.940   2.765
  549EOH      C 2200   5.317   3.950   2.621
  549EOH      H 2201   5.541   3.981   2.835
  550EOH      O 2202   4.943   4.416   4.290
  550EOH      C 2203   5.068   4.458   4.236
  550EOH      C 2204   5.094   4.404   4.095
  550EOH      H 2205   4.948   4.437   4.382
  551EOH      O 2206   0.617   4.051   2.088
  551EOH      C 2207   0.529   4.148   2.030
  551EOH      C 2208   0.415   4.066   1.968
  551EOH      H 2209   0.700   4.090   2.105
  552EOH      O 2210   6.298   1.446   1.503
  552EOH      C 2211   6.327   1.578   1.457
  552EOH      C 2212   6.244   1.680   1.537
  552EOH      H 2213   6.375   1.400   1.475
  553EOH      O 2214   1.215   0.878   5.661
  553EOH      C 2215   1.180   0.851   5.797
  553EOH      C 2216   1.235   0.716   5.848
  553EOH      H 2217   1.178   0.964   5.645
  554EOH      O 2218   2.419   3.890   0.241
  554EOH      C 2219   2.373   3.788   0.153
  554EOH      C 2220   2.465   3.664   0.146
  554EOH      H 2221   2.356   3.898   0.311
  555EOH      O 2222   3.914   4.368   6.199
  555EOH      C 2223   3.961   4.503   6.200
  555EOH      C 2224   4.113   4.523   6.198
  555EOH      H 2225   3.874   4.353   6.284
  556EOH      O 2226   5.177   0.191   2.137
  556EOH      C 2227   5.143   0.310   2.065
  556EOH      C 2228   5.216   0.422   2.142
  556EOH      H 2229   5.195   0.125   2.072
  557EOH      O 2230   2.139   0.249   1.782
  557EOH      C 2231   2.258   0.224   1.707
  557EOH      C 2232   2.289   0.360   1.641
  557EOH      H 2233   2.109   0.171   1.827
  558EOH      O 2234   3.272   1.027   4.222
  558EOH      C 2235   3.129   1.026   4.221
  558EOH      C 2236   3.081   0.994   4.078
  558EOH      H 2237   3.295   0.953   4.276
  559EOH      O 2238   2.815   0.116   2.490
  559EOH      C 2239   2.822   0.076   2.353
  559EOH      C 2240   2.850  -0.075   2.346
  559EOH      H 2241   2.776   0.202   2.486
  560EOH      O 2242   0.017   4.285   6.228
  560EOH      C 2243   0.142   4.354   6.232
  560EOH      C 2244   0.156   4.486   6.155
  560EOH      H 2245   0.013   4.256   6.138
  561EOH      O 2246   2.150   2.087   5.194
  561EOH      C 2247   2.028   2.013   5.195
  561EOH      C 2248   1.903   2.101   5.182
  561EOH      H 2249   2.189   2.064   5.111
  562EOH      O 2250   1.339   3.769   5.184
  562EOH      C 2251   1.445   3.763   5.280
  562EOH      C 2252   1.567   3.679   5.236
  562EOH      H 2253   1.296   3.685   5.178
  563EOH      O 2254   0.498   3.102   5.042
  563EOH      C 2255   0.500   3.054   4.907
  563EOH      C 2256   0.473   3.175   4.817
  563EOH      H 2257   0.498   3.032   5.105
  564EOH      O 2258   4.170   0.377   1.241
  564EOH      C 2259   4.147   0.508   1.293
  564EOH      C 2260   4.063   0.517   1.422
  564EOH      H 2261   4.262   0.360   1.223
  565EOH      O 2262   3.841   1.562   3.976
  565EOH      C 2263   3.845   1.564   4.119
  565EOH      C 2264   3.717   1.518   4.190
  565EOH      H 2265   3.856   1.475   3.945
  566EOH      O 2266   4.695   0.057   3.837
  566EOH      C 2267   4.605   0.157   3.788
  566EOH      C 2268   4.633   0.297   3.846
  566EOH      H 2269   4.645  -0.021   3.848
  567EOH      O 2270   4.381   3.546   6.274
  567EOH      C 2271   4.370   3.519   6.134
  567EOH      C 2272   4.339   3.368   6.132
  567EOH      H 2273   4.461   3.507   6.304
  568EOH      O 2274   3.112   6.015   6.070
  568EOH      C 2275   3.227   6.100   6.059
  568EOH      C 2276   3.213   6.217   6.158
  568EOH      H 2277   3.050   6.052   6.011
  569EOH      O 2278   0.187   5.309   3.103
  569EOH      C 2279   0.086   5.334   3.004
  569EOH      C 2280   0.144   5.378   2.868
  569EOH      H 2281   0.205   5.216   3.102
  570EOH      O 2282   5.865   1.920   6.019
  570EOH      C 2283   5.801   1.846   5.914
  570EOH      C 2284   5.779   1.945   5.799
  570EOH      H 2285   5.837   1.874   6.096
  571EOH      O 2286   5.976   1.250   0.434
  571EOH      C 2287   5.933   1.180   0.317
  571EOH      C 2288   5.956   1.028   0.330
  571EOH      H 2289   6.013   1.188   0.495
  572EOH      O 2290   1.159   0.609   0.923
  572EOH      C 2291   1.244   0.556   0.821
  572EOH      C 2292   1.378   0.508   0.880
  572EOH      H 2293   1.193   0.695   0.940
  573EOH      O 2294   3.024   1.038   0.301
  573EOH      C 2295   3.100   0.995   0.415
  573EOH      C 2296   3.006   0.997   0.536
  573EOH      H 2297   3.087   1.079   0.243
  574EOH      O 2298   3.760   5.748   0.324
  574EOH      C 2299   3.880   5.804   0.270
  574EOH      C 2300   3.988   5.800   0.380
  574EOH      H 2301   3.727   5.803   0.394
  575EOH      O 2302   3.322   5.473   1.069
  575EOH      C 2303   3.296   5.346   1.130
  575EOH      C 2304   3.274   5.366   1.281
  575EOH      H 2305   3.307   5.453   0.977
  576EOH      O 2306   3.188   0.324   0.970
  576EOH      C 2307   3.112   0.225   1.039
  576EOH      C 2308   3.188   0.152   1.152
  576EOH      H 2309   3.134   0.356   0.899
  577EOH      O 2310   0.663   0.142   0.620
  577EOH      C 2311   0.780   0.196   0.557
  577EOH      C 2312   0.913   0.156   0.623
  577EOH      H 2313   0.588   0.157   0.565
  578EOH      O 2314   1.554   4.795   0.393
  578EOH      C 2315   1.450   4.716   0.334
  578EOH      C 2316   1.530   4.585   0.319
  578EOH      H 2317   1.561   4.872   0.338
  579EOH      O 2318   5.337   5.997   5.165
  579EOH      C 2319   5.269   6.105   5.229
  579EOH      C 2320   5.139   6.071   5.303
  579EOH      H 2321   5.329   6.005   5.071
  580EOH      O 2322   1.578   5.921   1.652
  580EOH      C 2323   1.665   6.032   1.677
  580EOH      C 2324   1.609   6.108   1.799
  580EOH      H 2325   1.498   5.956   1.617
  581EOH      O 2326   1.260   6.079   0.665
  581EOH      C 2327   1.347   6.042   0.559
  581EOH      C 2328   1.460   5.943   0.593
  581EOH      H 2329   1.301   6.158   0.698
  582EOH      O 2330   5.881   5.903   4.279
  582EOH      C 2331   6.008   5.958   4.243
  582EOH      C 2332   6.070   5.883   4.123
  582EOH      H 2333   5.819   5.919   4.209
  583EOH      O 2334   3.260   2.934   0.036
  583EOH      C 2335   3.232   2.805   0.089
  583EOH      C 2336   3.288   2.802   0.232
  583EOH      H 2337   3.259   2.936  -0.059
  584EOH      O 2338   0.323   1.518   4.941
  584EOH      C 2339   0.234   1.406   4.943
  584EOH      C 2340   0.317   1.290   5.001
  584EOH      H 2341   0.323   1.550   5.030
  585EOH      O 2342   5.156   0.548   3.453
  585EOH      C 2343   5.123   0.590   3.321
  585EOH      C 2344   5.193   0.498   3.219
  585EOH      H 2345   5.103   0.600   3.511
  586EOH      O 2346   3.481   6.002   4.797
  586EOH      C 2347   3.521   6.044   4.928
  586EOH      C 2348   3.540   6.197   4.920
  586EOH      H 2349   3.407   6.053   4.767
  587EOH      O 2350   1.952   0.405   3.589
  587EOH      C 2351   1.952   0.542   3.547
  587EOH      C 2352   1.942   0.528   3.394
  587EOH      H 2353   1.864   0.372   3.576
  588EOH      O 2354   4.429   1.657   5.260
  588EOH      C 2355   4.327   1.667   5.160
  588EOH      C 2356   4.234   1.789   5.170
  588EOH      H 2357   4.483   1.734   5.251
  589EOH      O 2358   2.928   1.546   0.230
  589EOH      C 2359   2.851   1.565   0.349
  589EOH      C 2360   2.857   1.433   0.428
  589EOH      H 2361   3.017   1.531   0.257
  590EOH      O 2362   4.403   0.263   0.074
  590EOH      C 2363   4.320   0.311  -0.031
  590EOH      C 2364   4.366   0.454  -0.066
  590EOH      H 2365   4.388   0.325   0.144
  591EOH      O 2366   2.280   2.513   6.217
  591EOH      C 2367   2.351   2.634   6.186
  591EOH      C 2368   2.365   2.733   6.304
  591EOH      H 2369   2.259   2.485   6.129
  592EOH      O 2370   3.211   3.709   6.235
  592EOH      C 2371   3.318   3.701   6.140
  592EOH      C 2372   3.451   3.655   6.203
  592EOH      H 2373   3.180   3.620   6.243
  593EOH      O 2374   5.036   2.532   1.829
  593EOH      C 2375   4.977   2.582   1.949
  593EOH      C 2376   4.960   2.733   1.924
  593EOH      H 2377   5.079   2.449   1.846
  594EOH      O 2378   0.828   3.210   2.532
  594EOH      C 2379   0.783   3.344   2.513
  594EOH      C 2380   0.633   3.345   2.547
  594EOH      H 2381   0.893   3.219   2.600
  595EOH      O 2382   2.133   3.614   1.537
  595EOH      C 2383   2.057   3.641   1.655
  595EOH      C 2384   1.915   3.675   1.608
  595EOH      H 2385   2.141   3.520   1.527
  596EOH      O 2386   2.265   2.277   1.470
  596EOH      C 2387   2.131   2.306   1.510
  596EOH      C 2388   2.120   2.311   1.664
  596EOH      H 2389   2.262   2.222   1.393
  597EOH      O 2390   0.021   2.202   0.996
  597EOH      C 2391  -0.049   2.171   0.876
  597EOH      C 2392  -0.011   2.259   0.755
  597EOH      H 2393  -0.010   2.279   1.040
  598EOH      O 2394   4.247   4.073   1.722
  598EOH      C 2395   4.223   4.160   1.833
  598EOH      C 2396   4.075   4.201   1.849
  598EOH      H 2397   4.269   4.129   1.650
  599EOH      O 2398   1.212   3.535   5.189
  599EOH      C 2399   1.129   3.471   5.286
  599EOH      C 2400   0.988   3.533   5.294
  599EOH      H 2401   1.184   3.516   5.101
  600EOH      O 2402   0.674   5.043   0.518
  600EOH      C 2403   0.676   5.184   0.500
  600EOH      C 2404   0.551   5.218   0.415
  600EOH      H 2405   0.642   5.008   0.600
  601EOH      O 2406   2.139   5.314   1.874
  601EOH      C 2407   2.252   5.229   1.855
  601EOH      C 2408   2.277   5.230   1.703
  601EOH      H 2409   2.138   5.344   1.964
  602EOH      O 2410   4.922   4.888   3.511
  602EOH      C 2411   4.994   4.994   3.448
  602EOH      C 2412   5.077   4.942   3.328
  602EOH      H 2413   4.829   4.906   3.511
  603EOH      O 2414   2.336   1.296   1.829
  603EOH      C 2415   2.196   1.325   1.830
  603EOH      C 2416   2.135   1.290   1.693
  603EOH      H 2417   2.352   1.208   1.860
  604EOH      O 2418   0.285   5.847   4.043
  604EOH      C 2419   0.151   5.838   4.092
  604EOH      C 2420   0.119   5.694   4.134
  604EOH      H 2421   0.308   5.938   4.035
  605EOH      O 2422   2.531   1.955   2.371
  605EOH      C 2423   2.616   2.007   2.474
  605EOH      C 2424   2.564   2.146   2.516
  605EOH      H 2425   2.564   1.974   2.285
  606EOH      O 2426   5.880   3.110   6.155
  606EOH      C 2427   5.936   3.142   6.027
  606EOH      C 2428   5.939   3.017   5.937
  606EOH      H 2429   5.813   3.175   6.173
  607EOH      O 2430   6.008   4.602   5.293
  607EOH      C 2431   6.056   4.737   5.299
  607EOH      C 2432   6.126   4.775   5.167
  607EOH      H 2433   6.074   4.549   5.335
  608EOH      O 2434   2.489   6.093   5.613
  608EOH      C 2435   2.466   6.151   5.742
  608EOH      C 2436   2.413   6.295   5.738
  608EOH      H 2437   2.439   6.013   5.609
  609EOH      O 2438   3.970   4.272   4.690
  609EOH      C 2439   4.026   4.153   4.635
  609EOH      C 2440   4.001   4.136   4.484
  609EOH      H 2441   4.006   4.345   4.641
  610EOH      O 2442   3.180   5.349   5.274
  610EOH      C 2443   3.251   5.225   5.268
  610EOH      C 2444   3.352   5.231   5.151
  610EOH      H 2445   3.234   5.420   5.308
  611EOH      O 2446   5.303   3.140   5.327
  611EOH      C 2447   5.242   3.015   5.294
  611EOH      C 2448   5.278   2.986   5.148
  611EOH      H 2449   5.243   3.209   5.301
  612EOH      O 2450   5.042   5.012   0.972
  612EOH      C 2451   4.992   5.103   0.874
  612EOH      C 2452   4.861   5.151   0.938
  612EOH      H 2453   5.089   5.057   1.041
  613EOH      O 2454   4.600   3.548   2.636
  613EOH      C 2455   4.480   3.496   2.578
  613EOH      C 2456   4.470   3.575   2.446
  613EOH      H 2457   4.671   3.505   2.592
  614EOH      O 2458   2.329   3.637   3.263
  614EOH      C 2459   2.243   3.742   3.307
  614EOH      C 2460   2.167   3.810   3.192
  614EOH      H 2461   2.397   3.625   3.327
  615EOH      O 2462   5.471   4.313   6.050
  615EOH      C 2463   5.478   4.241   5.927
  615EOH      C 2464   5.616   4.179   5.898
  615EOH      H 2465   5.479   4.406   6.033
  616EOH      O 2466   5.819   1.608   1.095
  616EOH      C 2467   5.742   1.648   0.981
  616EOH      C 2468   5.805   1.588   0.854
  616EOH      H 2469   5.809   1.677   1.159
  617EOH      O 2470   1.191   3.703   0.644
  617EOH      C 2471   1.064   3.639   0.632
  617EOH      C 2472   0.947   3.738   0.649
  617EOH      H 2473   1.254   3.637   0.667
  618EOH      O 2474   1.892   2.864   0.669
  618EOH      C 2475   1.840   2.737   0.628
  618EOH      C 2476   1.717   2.711   0.717
  618EOH      H 2477   1.986   2.864   0.659
  619EOH      O 2478   4.208   6.136   2.829
  619EOH      C 2479   4.314   6.089   2.912
  619EOH      C 2480   4.273   6.115   3.058
  619EOH      H 2481   4.216   6.107   2.739
  620EOH      O 2482   0.022   4.341   4.501
  620EOH      C 2483   0.162   4.342   4.476
  620EOH      C 2484   0.183   4.241   4.362
  620EOH      H 2485  -0.016   4.254   4.499
  621EOH      O 2486   5.474   1.702   0.188
  621EOH      C 2487   5.457   1.569   0.139
  621EOH      C 2488   5.545   1.470   0.217
  621EOH      H 2489   5.445   1.712   0.277
  622EOH      O 2490   1.385   4.950   2.291
  622EOH      C 2491   1.430   5.079   2.250
  622EOH      C 2492   1.584   5.087   2.242
  622EOH      H 2493   1.292   4.943   2.282
  623EOH      O 2494   1.626   4.485   1.857
  623EOH      C 2495   1.622   4.373   1.767
  623EOH      C 2496   1.689   4.400   1.632
  623EOH      H 2497   1.715   4.502   1.881
  624EOH      O 2498   1.798   5.660   4.068
  624EOH      C 2499   1.768   5.522   4.051
  624EOH      C 2500   1.622   5.494   4.092
  624EOH      H 2501   1.887   5.686   4.053
  625EOH      O 2502   2.227   2.714   5.438
  625EOH      C 2503   2.237   2.735   5.579
  625EOH      C 2504   2.336   2.851   5.598
  625EOH      H 2505   2.156   2.657   5.413
  626EOH      O 2506   5.419   4.032   1.494
  626EOH      C 2507   5.543   4.097   1.522
  626EOH      C 2508   5.616   4.124   1.389
  626EOH      H 2509   5.346   4.092   1.500
  627EOH      O 2510   4.069   1.569   0.548
  627EOH      C 2511   4.005   1.442   0.528
  627EOH      C 2512   3.895   1.475   0.425
  627EOH      H 2513   4.029   1.611   0.622
  628EOH      O 2514   4.433   6.194   0.018
  628EOH      C 2515   4.410   6.151  -0.116
  628EOH      C 2516   4.509   6.040  -0.155
  628EOH      H 2517   4.497   6.264   0.024
  629EOH      O 2518   4.883   4.835   1.052
  629EOH      C 2519   4.921   4.766   1.171
  629EOH      C 2520   5.073   4.746   1.184
  629EOH      H 2521   4.946   4.904   1.037
  630EOH      O 2522   6.087   2.413   0.330
  630EOH      C 2523   6.076   2.356   0.461
  630EOH      C 2524   6.003   2.221   0.451
  630EOH      H 2525   6.154   2.363   0.287
  631EOH      O 2526   1.038   1.507   0.580
  631EOH      C 2527   1.027   1.378   0.520
  631EOH      C 2528   1.078   1.280   0.627
  631EOH      H 2529   1.017   1.568   0.510
  632EOH      O 2530   1.882   1.957   4.384
  632EOH      C 2531   1.893   2.080   4.310
  632EOH      C 2532   1.780   2.162   4.374
  632EOH      H 2533   1.795   1.926   4.364
  633EOH      O 2534   1.589   0.086   4.571
  633EOH      C 2535   1.633   0.021   4.451
  633EOH      C 2536   1.547   0.067   4.333
  633EOH      H 2537   1.637   0.167   4.572
  634EOH      O 2538   2.379   5.889   3.203
  634EOH      C 2539   2.250   5.936   3.164
  634EOH      C 2540   2.175   5.975   3.293
  634EOH      H 2541   2.434   5.966   3.199
  635EOH      O 2542   2.873   2.778   4.270
  635EOH      C 2543   2.854   2.782   4.412
  635EOH      C 2544   2.975   2.854   4.474
  635EOH      H 2545   2.815   2.715   4.231
  636EOH      O 2546   0.300   3.513   4.951
  636EOH      C 2547   0.365   3.490   4.825
  636EOH      C 2548   0.313   3.559   4.698
  636EOH      H 2549   0.348   3.460   5.012
  637EOH      O 2550   3.082   4.975   0.095
  637EOH      C 2551   3.180   5.036   0.010
  637EOH      C 2552   3.302   5.051   0.102
  637EOH      H 2553   3.080   4.880   0.097
  638EOH      O 2554   1.560   1.356   0.068
  638EOH      C 2555   1.655   1.353   0.175
  638EOH      C 2556   1.700   1.499   0.195
  638EOH      H 2557   1.512   1.278   0.088
  639EOH      O 2558   1.672   4.632   4.104
  639EOH      C 2559   1.590   4.520   4.138
  639EOH      C 2560   1.441   4.538   4.102
  639EOH      H 2561   1.764   4.616   4.117
  640EOH      O 2562   1.901   3.504   2.184
  640EOH      C 2563   1.863   3.600   2.086
  640EOH      C 2564   1.793   3.722   2.149
  640EOH      H 2565   1.964   3.535   2.247
  641EOH      O 2566   6.157   4.466   3.046
  641EOH      C 2567   6.271   4.504   3.124
  641EOH      C 2568   6.355   4.378   3.149
  641EOH      H 2569   6.109   4.543   3.020
  642EOH      O 2570   3.775   4.540   1.996
  642EOH      C 2571   3.894   4.506   1.925
  642EOH      C 2572   3.982   4.631   1.902
  642EOH      H 2573   3.709   4.479   1.963
  643EOH      O 2574   3.601   3.229   1.465
  643EOH      C 2575   3.571   3.234   1.605
  643EOH      C 2576   3.586   3.093   1.664
  643EOH      H 2577   3.628   3.316   1.440
  644EOH      O 2578   5.938   4.149   1.472
  644EOH      C 2579   5.983   4.085   1.352
  644EOH      C 2580   5.974   3.934   1.380
  644EOH      H 2581   5.971   4.237   1.475
  645EOH      O 2582   0.862   5.338   1.491
  645EOH      C 2583   0.993   5.389   1.517
  645EOH      C 2584   1.057   5.433   1.384
  645EOH      H 2585   0.860   5.286   1.412
  646EOH      O 2586   4.864   2.272   1.184
  646EOH      C 2587   4.788   2.164   1.239
  646EOH      C 2588   4.738   2.212   1.376
  646EOH      H 2589   4.809   2.312   1.118
  647EOH      O 2590   5.248   1.214   5.705
  647EOH      C 2591   5.239   1.083   5.760
  647EOH      C 2592   5.118   1.064   5.853
  647EOH      H 2593   5.333   1.217   5.664
  648EOH      O 2594   2.737   2.160   4.361
  648EOH      C 2595   2.851   2.096   4.303
  648EOH      C 2596   2.896   2.189   4.188
  648EOH      H 2597   2.666   2.103   4.336
  649EOH      O 2598   1.421   2.266   5.486
  649EOH      C 2599   1.477   2.182   5.385
  649EOH      C 2600   1.600   2.106   5.438
  649EOH      H 2601   1.339   2.230   5.516
  650EOH      O 2602   4.871   5.768   4.788
  650EOH      C 2603   4.802   5.874   4.855
  650EOH      C 2604   4.840   6.009   4.792
  650EOH      H 2605   4.838   5.684   4.814
  651EOH      O 2606   4.880   1.089   2.428
  651EOH      C 2607   4.918   1.227   2.433
  651EOH      C 2608   5.031   1.229   2.538
  651EOH      H 2609   4.819   1.082   2.499
  652EOH      O 2610   6.238   3.678   4.913
  652EOH      C 2611   6.119   3.657   4.989
  652EOH      C 2612   6.147   3.683   5.139
  652EOH      H 2613   6.295   3.604   4.930
  653EOH      O 2614   4.344   1.469   5.417
  653EOH      C 2615   4.334   1.511   5.553
  653EOH      C 2616   4.223   1.412   5.595
  653EOH      H 2617   4.355   1.545   5.361
  654EOH      O 2618   1.896   0.354   1.338
  654EOH      C 2619   1.932   0.222   1.380
  654EOH      C 2620   2.046   0.163   1.295
  654EOH      H 2621   1.804   0.359   1.360
  655EOH      O 2622   2.055   6.126   4.608
  655EOH      C 2623   2.085   6.083   4.475
  655EOH      C 2624   2.112   6.205   4.386
  655EOH      H 2625   2.026   6.049   4.653
  656EOH      O 2626   2.933   5.653   4.873
  656EOH      C 2627   2.914   5.735   4.989
  656EOH      C 2628   2.883   5.879   4.945
  656EOH      H 2629   2.976   5.573   4.898
  657EOH      O 2630   5.507   4.466   0.412
  657EOH      C 2631   5.531   4.342   0.481
  657EOH      C 2632   5.484   4.357   0.627
  657EOH      H 2633   5.515   4.454   0.319
  658EOH      O 2634   1.020   4.547   5.532
  658EOH      C 2635   0.971   4.556   5.398
  658EOH      C 2636   0.893   4.424   5.393
  658EOH      H 2637   1.081   4.618   5.541
  659EOH      O 2638   2.586   4.067   3.629
  659EOH      C 2639   2.466   4.123   3.576
  659EOH      C 2640   2.483   4.145   3.425
  659EOH      H 2641   2.612   4.115   3.706
  660EOH      O 2642   0.645   2.101   2.274
  660EOH      C 2643   0.574   2.010   2.191
  660EOH      C 2644   0.423   2.039   2.183
  660EOH      H 2645   0.735   2.071   2.275
  661EOH      O 2646   0.949   3.316   0.033
  661EOH      C 2647   0.876   3.338  -0.088
  661EOH      C 2648   0.769   3.232  -0.121
  661EOH      H 2649   1.015   3.383   0.028
  662EOH      O 2650   2.244   0.806   4.185
  662EOH      C 2651   2.349   0.765   4.097
  662EOH      C 2652   2.297   0.774   3.952
  662EOH      H 2653   2.233   0.733   4.244
  663EOH      O 2654   3.653   4.243   4.676
  663EOH      C 2655   3.588   4.369   4.654
  663EOH      C 2656   3.687   4.443   4.562
  663EOH      H 2657   3.744   4.262   4.696
  664EOH      O 2658   1.618   5.012   0.247
  664EOH      C 2659   1.533   5.103   0.176
  664EOH      C 2660   1.586   5.135   0.035
  664EOH      H 2661   1.683   5.065   0.289
  665EOH      O 2662   2.524   3.559   4.780
  665EOH      C 2663   2.388   3.538   4.740
  665EOH      C 2664   2.315   3.672   4.761
  665EOH      H 2665   2.565   3.639   4.751
  666EOH      O 2666   3.571   2.023   4.314
  666EOH      C 2667   3.636   1.969   4.429
  666EOH      C 2668   3.737   1.866   4.376
  666EOH      H 2669   3.617   2.103   4.293
  667EOH      O 2670   4.158   2.779   1.775
  667EOH      C 2671   4.158   2.637   1.760
  667EOH      C 2672   4.212   2.592   1.623
  667EOH      H 2673   4.103   2.780   1.851
  668EOH      O 2674   1.263   1.843   5.449
  668EOH      C 2675   1.275   1.811   5.588
  668EOH      C 2676   1.366   1.916   5.656
  668EOH      H 2677   1.323   1.788   5.400
  669EOH      O 2678   4.026   3.814   3.649
  669EOH      C 2679   4.161   3.767   3.656
  669EOH      C 2680   4.244   3.888   3.703
  669EOH      H 2681   4.026   3.905   3.622
  670EOH      O 2682   1.696   5.581   1.925
  670EOH      C 2683   1.770   5.460   1.946
  670EOH      C 2684   1.720   5.400   2.078
  670EOH      H 2685   1.671   5.590   1.834
  671EOH      O 2686   5.559   6.241   5.615
  671EOH      C 2687   5.586   6.211   5.477
  671EOH      C 2688   5.702   6.297   5.425
  671EOH      H 2689   5.500   6.314   5.618
  672EOH      O 2690   4.433   3.831   0.454
  672EOH      C 2691   4.359   3.852   0.574
  672EOH      C 2692   4.454   3.883   0.691
  672EOH      H 2693   4.408   3.894   0.388
  673EOH      O 2694   6.059   2.683   5.435
  673EOH      C 2695   6.099   2.796   5.512
  673EOH      C 2696   6.058   2.758   5.656
  673EOH      H 2697   6.058   2.712   5.345
  674EOH      O 2698   3.578   3.570   1.720
  674EOH      C 2699   3.630   3.520   1.843
  674EOH      C 2700   3.511   3.486   1.935
  674EOH      H 2701   3.647   3.623   1.682
  675EOH      O 2702   5.214   5.330   0.369
  675EOH      C 2703   5.100   5.264   0.425
  675EOH      C 2704   5.070   5.322   0.564
  675EOH      H 2705   5.233   5.399   0.431
  676EOH      O 2706   2.614   2.935   0.320
  676EOH      C 2707   2.644   2.796   0.309
  676EOH      C 2708   2.770   2.750   0.383
  676EOH      H 2709   2.560   2.952   0.245
  677EOH      O 2710   3.619   2.450   4.180
  677EOH      C 2711   3.489   2.495   4.140
  677EOH      C 2712   3.467   2.440   3.998
  677EOH      H 2713   3.669   2.530   4.179
  678EOH      O 2714   3.915   1.793   5.796
  678EOH      C 2715   3.784   1.850   5.798
  678EOH      C 2716   3.785   1.958   5.908
  678EOH      H 2717   3.973   1.857   5.758
  679EOH      O 2718   3.274   2.611   5.482
  679EOH      C 2719   3.328   2.535   5.373
  679EOH      C 2720   3.323   2.630   5.252
  679EOH      H 2721   3.281   2.564   5.563
  680EOH      O 2722   3.930   2.907   0.052
  680EOH      C 2723   3.943   3.025  -0.028
  680EOH      C 2724   4.054   3.117   0.026
  680EOH      H 2725   3.840   2.882   0.064
  681EOH      O 2726   4.980   5.983   6.029
  681EOH      C 2727   5.050   5.919   6.136
  681EOH      C 2728   5.097   5.782   6.083
  681EOH      H 2729   4.889   5.958   6.025
  682EOH      O 2730   5.882   2.640   1.551
  682EOH      C 2731   5.822   2.606   1.676
  682EOH      C 2732   5.678   2.657   1.695
  682EOH      H 2733   5.973   2.614   1.544
  683EOH      O 2734   4.618   5.589   3.863
  683EOH      C 2735   4.751   5.639   3.879
  683EOH      C 2736   4.779   5.631   4.030
  683EOH      H 2737   4.614   5.515   3.804
  684EOH      O 2738   5.777   3.806   0.443
  684EOH      C 2739   5.775   3.938   0.498
  684EOH      C 2740   5.798   3.930   0.650
  684EOH      H 2741   5.725   3.813   0.365
  685EOH      O 2742   3.146   0.561   2.352
  685EOH      C 2743   3.127   0.524   2.216
  685EOH      C 2744   3.183   0.380   2.208
  685EOH      H 2745   3.116   0.651   2.352
  686EOH      O 2746   6.084   2.785   3.864
  686EOH      C 2747   5.945   2.819   3.869
  686EOH      C 2748   5.892   2.834   3.725
  686EOH      H 2749   6.136   2.859   3.893
  687EOH      O 2750   3.852   2.101   5.237
  687EOH      C 2751   3.936   2.211   5.201
  687EOH      C 2752   4.081   2.162   5.218
  687EOH      H 2753   3.770   2.135   5.270
  688EOH      O 2754   0.890   4.651   1.297
  688EOH      C 2755   0.931   4.571   1.186
  688EOH      C 2756   0.996   4.655   1.075
  688EOH      H 2757   0.860   4.594   1.365
  689EOH      O 2758   1.983   1.333   0.845
  689EOH      C 2759   1.862   1.314   0.919
  689EOH      C 2760   1.875   1.186   1.004
  689EOH      H 2761   1.978   1.410   0.789
  690EOH      O 2762   0.873   5.452   0.827
  690EOH      C 2763   0.868   5.465   0.969
  690EOH      C 2764   0.824   5.607   1.008
  690EOH      H 2765   0.872   5.360   0.804
  691EOH      O 2766   3.961   4.452   5.502
  691EOH      C 2767   3.976   4.580   5.565
  691EOH      C 2768   4.121   4.630   5.562
  691EOH      H 2769   3.885   4.464   5.447
  692EOH      O 2770   1.572   2.609   4.212
  692EOH      C 2771   1.655   2.642   4.100
  692EOH      C 2772   1.754   2.749   4.150
  692EOH      H 2773   1.484   2.595   4.182
  693EOH      O 2774   1.467   3.610   6.074
  693EOH      C 2775   1.551   3.524   5.997
  693EOH      C 2776   1.617   3.417   6.085
  693EOH      H 2777   1.396   3.646   6.024
  694EOH      O 2778   3.401   5.340   0.648
  694EOH      C 2779   3.524   5.302   0.709
  694EOH      C 2780   3.504   5.194   0.818
  694EOH      H 2781   3.424   5.378   0.565
  695EOH      O 2782   2.185   2.114   2.211
  695EOH      C 2783   2.282   2.038   2.137
  695EOH      C 2784   2.247   1.890   2.163
  695EOH      H 2785   2.195   2.090   2.302
  696EOH      O 2786   3.644   5.520   4.105
  696EOH      C 2787   3.688   5.656   4.094
  696EOH      C 2788   3.824   5.676   4.164
  696EOH      H 2789   3.595   5.503   4.184
  697EOH      O 2790   0.256   5.062   0.663
  697EOH      C 2791   0.188   5.181   0.623
  697EOH      C 2792   0.178   5.283   0.737
  697EOH      H 2793   0.198   5.005   0.712
  698EOH      O 2794   3.712   5.382   3.881
  698EOH      C 2795   3.722   5.254   3.945
  698EOH      C 2796   3.825   5.157   3.884
  698EOH      H 2797   3.679   5.443   3.946
  699EOH      O 2798   3.214   2.901   3.084
  699EOH      C 2799   3.302   2.912   3.195
  699EOH      C 2800   3.223   2.961   3.318
  699EOH      H 2801   3.249   2.948   3.010
  700EOH      O 2802   1.029   4.364   5.911
  700EOH      C 2803   1.074   4.424   6.033
  700EOH      C 2804   1.213   4.376   6.078
  700EOH      H 2805   0.988   4.436   5.864
  701EOH      O 2806   0.821   4.316   1.607
  701EOH      C 2807   0.881   4.195   1.559
  701EOH      C 2808   0.905   4.209   1.408
  701EOH      H 2809   0.863   4.329   1.691
  702EOH      O 2810   2.351   4.680   5.918
  702EOH      C 2811   2.383   4.819   5.932
  702EOH      C 2812   2.464   4.869   5.812
  702EOH      H 2813   2.340   4.646   6.005
  703EOH      O 2814   3.229   3.093   2.394
  703EOH      C 2815   3.332   3.026   2.467
  703EOH      C 2816   3.285   2.898   2.540
  703EOH      H 2817   3.267   3.167   2.350
  704EOH      O 2818   2.031   1.714   4.778
  704EOH      C 2819   1.986   1.595   4.844
  704EOH      C 2820   2.050   1.627   4.980
  704EOH      H 2821   2.009   1.711   4.685
  705EOH      O 2822   2.662   0.339   2.581
  705EOH      C 2823   2.641   0.425   2.469
  705EOH      C 2824   2.772   0.473   2.404
  705EOH      H 2825   2.590   0.278   2.585
  706EOH      O 2826   0.252   2.887   5.442
  706EOH      C 2827   0.162   2.779   5.414
  706EOH      C 2828   0.228   2.641   5.431
  706EOH      H 2829   0.206   2.967   5.465
  707EOH      O 2830   3.759   6.300   1.448
  707EOH      C 2831   3.720   6.297   1.311
  707EOH      C 2832   3.641   6.426   1.279
  707EOH      H 2833   3.785   6.212   1.471
  708EOH      O 2834   3.394   6.017   1.892
  708EOH      C 2835   3.331   6.029   2.020
  708EOH      C 2836   3.261   6.166   2.025
  708EOH      H 2837   3.452   6.091   1.883
  709EOH      O 2838   3.023   0.065   5.827
  709EOH      C 2839   3.049   0.185   5.901
  709EOH      C 2840   2.995   0.179   6.045
  709EOH      H 2841   3.068   0.079   5.745
  710EOH      O 2842   2.716   3.801   0.712
  710EOH      C 2843   2.647   3.803   0.587
  710EOH      C 2844   2.519   3.716   0.589
  710EOH      H 2845   2.654   3.822   0.780
  711EOH      O 2846   1.723   6.006   2.516
  711EOH      C 2847   1.706   6.030   2.376
  711EOH      C 2848   1.845   6.017   2.311
  711EOH      H 2849   1.709   5.914   2.527
  712EOH      O 2850   3.142   5.085   2.757
  712EOH      C 2851   3.094   5.044   2.885
  712EOH      C 2852   2.947   5.088   2.893
  712EOH      H 2853   3.234   5.097   2.777
  713EOH      O 2854   0.381   1.299   2.554
  713EOH      C 2855   0.351   1.204   2.452
  713EOH      C 2856   0.473   1.122   2.404
  713EOH      H 2857   0.390   1.270   2.644
  714EOH      O 2858   1.194   2.429   4.433
  714EOH      C 2859   1.058   2.387   4.423
  714EOH      C 2860   1.020   2.265   4.508
  714EOH      H 2861   1.239   2.375   4.369
  715EOH      O 2862   6.092   5.462   4.773
  715EOH      C 2863   6.106   5.424   4.910
  715EOH      C 2864   5.979   5.374   4.981
  715EOH      H 2865   6.059   5.388   4.724
  716EOH      O 2866   4.271   5.961   5.616
  716EOH      C 2867   4.245   5.970   5.757
  716EOH      C 2868   4.313   5.861   5.842
  716EOH      H 2869   4.347   6.015   5.601
  717EOH      O 2870   5.263   5.971   4.909
  717EOH      C 2871   5.279   5.855   4.827
  717EOH      C 2872   5.239   5.731   4.909
  717EOH      H 2873   5.265   6.044   4.849
  718EOH      O 2874   6.101   0.008   1.103
  718EOH      C 2875   6.022  -0.098   1.051
  718EOH      C 2876   5.875  -0.056   1.071
  718EOH      H 2877   6.184   0.012   1.058
  719EOH      O 2878   1.717   1.442   1.706
  719EOH      C 2879   1.727   1.303   1.737
  719EOH      C 2880   1.727   1.199   1.624
  719EOH      H 2881   1.769   1.486   1.772
  720EOH      O 2882   4.054   2.909   3.638
  720EOH      C 2883   4.034   3.012   3.736
  720EOH      C 2884   4.055   3.156   3.687
  720EOH      H 2885   4.046   2.828   3.686
  721EOH      O 2886   6.217   3.056   4.546
  721EOH      C 2887   6.113   2.970   4.499
  721EOH      C 2888   6.080   2.884   4.622
  721EOH      H 2889   6.173   3.140   4.546
  722EOH      O 2890   0.022   0.298   5.917
  722EOH      C 2891  -0.019   0.190   5.833
  722EOH      C 2892  -0.151   0.149   5.901
  722EOH      H 2893  -0.030   0.374   5.897
  723EOH      O 2894   0.902   3.246   0.279
  723EOH      C 2895   1.031   3.269   0.335
  723EOH      C 2896   1.022   3.266   0.489
  723EOH      H 2897   0.911   3.255   0.186
  724EOH      O 2898   3.824   3.132   5.528
  724EOH      C 2899   3.943   3.056   5.552
  724EOH      C 2900   3.926   2.950   5.662
  724EOH      H 2901   3.848   3.197   5.464
  725EOH      O 2902   6.069   0.231   5.239
  725EOH      C 2903   6.019   0.235   5.373
  725EOH      C 2904   6.137   0.250   5.470
  725EOH      H 2905   6.075   0.142   5.210
  726EOH      O 2906   0.411   0.806   0.369
  726EOH      C 2907   0.301   0.803   0.461
  726EOH      C 2908   0.263   0.950   0.484
  726EOH      H 2909   0.377   0.816   0.281
  727EOH      O 2910   5.338   3.840   1.357
  727EOH      C 2911   5.367   3.725   1.437
  727EOH      C 2912   5.228   3.664   1.461
  727EOH      H 2913   5.383   3.905   1.409
  728EOH      O 2914   4.528   5.429   1.629
  728EOH      C 2915   4.505   5.352   1.748
  728EOH      C 2916   4.361   5.341   1.801
  728EOH      H 2917   4.466   5.397   1.565
  729EOH      O 2918   2.115   3.695   0.326
  729EOH      C 2919   2.149   3.558   0.346
  729EOH      C 2920   2.028   3.464   0.326
  729EOH      H 2921   2.186   3.749   0.355
  730EOH      O 2922   0.437   5.841   2.632
  730EOH      C 2923   0.340   5.738   2.655
  730EOH      C 2924   0.330   5.714   2.806
  730EOH      H 2925   0.411   5.869   2.546
  731EOH      O 2926   3.292   2.225   1.747
  731EOH      C 2927   3.327   2.215   1.609
  731EOH      C 2928   3.443   2.117   1.587
  731EOH      H 2929   3.219   2.285   1.750
  732EOH      O 2930   3.491   0.253   3.163
  732EOH      C 2931   3.610   0.321   3.205
  732EOH      C 2932   3.720   0.214   3.207
  732EOH      H 2933   3.423   0.317   3.178
  733EOH      O 2934   0.524   5.391   4.038
  733EOH      C 2935   0.411   5.306   4.015
  733EOH      C 2936   0.278   5.345   4.081
  733EOH      H 2937   0.495   5.470   4.081
  734EOH      O 2938   3.358   2.922   6.098
  734EOH      C 2939   3.488   2.869   6.076
  734EOH      C 2940   3.599   2.971   6.108
  734EOH      H 2941   3.317   2.941   6.015
  735EOH      O 2942   6.201   1.500   0.352
  735EOH      C 2943   6.187   1.496   0.210
  735EOH      C 2944   6.328   1.466   0.158
  735EOH      H 2945   6.115   1.504   0.390
  736EOH      O 2946   3.118   4.001   1.583
  736EOH      C 2947   3.126   4.053   1.450
  736EOH      C 2948   2.986   4.099   1.403
  736EOH      H 2949   3.076   3.917   1.575
  737EOH      O 2950   5.056   4.896   0.550
  737EOH      C 2951   5.177   4.901   0.475
  737EOH      C 2952   5.186   4.764   0.404
  737EOH      H 2953   5.076   4.871   0.639
  738EOH      O 2954   0.489   5.062   4.303
  738EOH      C 2955   0.405   4.964   4.239
  738EOH      C 2956   0.435   4.940   4.090
  738EOH      H 2957   0.510   5.033   4.390
  739EOH      O 2958   4.589   3.272   3.668
  739EOH      C 2959   4.707   3.258   3.588
  739EOH      C 2960   4.796   3.378   3.627
  739EOH      H 2961   4.547   3.187   3.667
  740EOH      O 2962   5.285   2.582   1.561
  740EOH      C 2963   5.342   2.704   1.512
  740EOH      C 2964   5.332   2.801   1.631
  740EOH      H 2965   5.192   2.599   1.565
  741EOH      O 2966   3.329   1.742   6.170
  741EOH      C 2967   3.376   1.625   6.103
  741EOH      C 2968   3.377   1.637   5.949
  741EOH      H 2969   3.235   1.749   6.176
  742EOH      O 2970   2.877   0.018   2.715
  742EOH      C 2971   2.864   0.130   2.803
  742EOH      C 2972   2.914   0.092   2.944
  742EOH      H 2973   2.867   0.049   2.626
  743EOH      O 2974   2.522   2.428   0.260
  743EOH      C 2975   2.487   2.342   0.370
  743EOH      C 2976   2.603   2.346   0.470
  743EOH      H 2977   2.448   2.465   0.215
  744EOH      O 2978   1.884   3.189   4.897
  744EOH      C 2979   1.971   3.296   4.859
  744EOH      C 2980   2.099   3.312   4.944
  744EOH      H 2981   1.880   3.125   4.828
  745EOH      O 2982   2.821   4.433   1.179
  745EOH      C 2983   2.927   4.440   1.083
  745EOH      C 2984   2.892   4.372   0.949
  745EOH      H 2985   2.861   4.461   1.260
  746EOH      O 2986   1.245   5.453   5.460
  746EOH      C 2987   1.144   5.462   5.359
  746EOH      C 2988   1.151   5.344   5.261
  746EOH      H 2989   1.259   5.538   5.498
  747EOH      O 2990   3.713   2.807   0.126
  747EOH      C 2991   3.647   2.830   0.251
  747EOH      C 2992   3.647   2.982   0.269
  747EOH      H 2993   3.689   2.720   0.099
  748EOH      O 2994   5.994   4.460   5.574
  748EOH      C 2995   5.869   4.391   5.561
  748EOH      C 2996   5.895   4.242   5.591
  748EOH      H 2997   6.053   4.423   5.511
  749EOH      O 2998   4.956   6.296   1.382
  749EOH      C 2999   4.961   6.279   1.240
  749EOH      C 3000   4.837   6.208   1.182
  749EOH      H 3001   5.003   6.370   1.415
  750EOH      O 3002   1.942   5.988   4.802
  750EOH      C 3003   1.800   5.974   4.814
  750EOH      C 3004   1.721   6.007   4.687
  750EOH      H 3005   1.976   5.997   4.890
  751EOH      O 3006   3.717   3.862   1.369
  751EOH      C 3007   3.751   3.983   1.437
  751EOH      C 3008   3.859   4.058   1.357
  751EOH      H 3009   3.689   3.884   1.281
  752EOH      O 3010   3.003   2.666   3.276
  752EOH      C 3011   3.105   2.571   3.245
  752EOH      C 3012   3.108   2.476   3.366
  752EOH      H 3013   2.987   2.727   3.206
  753EOH      O 3014   6.243   0.405   5.133
  753EOH      C 3015   6.304   0.495   5.226
  753EOH      C 3016   6.359   0.614   5.146
  753EOH      H 3017   6.187   0.347   5.183
  754EOH      O 3018   3.926   3.693   3.295
  754EOH      C 3019   3.942   3.809   3.213
  754EOH      C 3020   4.073   3.806   3.133
  754EOH      H 3021   3.864   3.705   3.365
  755EOH      O 3022   5.695   6.073   5.743
  755EOH      C 3023   5.610   5.990   5.823
  755EOH      C 3024   5.698   5.880   5.886
  755EOH      H 3025   5.635   6.132   5.700
  756EOH      O 3026   1.042   2.499   1.163
  756EOH      C 3027   1.171   2.463   1.213
  756EOH      C 3028   1.148   2.388   1.346
  756EOH      H 3029   1.044   2.593   1.168
  757EOH      O 3030   0.610   4.068   6.289
  757EOH      C 3031   0.625   4.177   6.198
  757EOH      C 3032   0.771   4.204   6.158
  757EOH      H 3033   0.528   4.091   6.329
  758EOH      O 3034   1.065   5.460   2.213
  758EOH      C 3035   1.060   5.341   2.292
  758EOH      C 3036   0.929   5.324   2.371
  758EOH      H 3037   1.147   5.460   2.167
  759EOH      O 3038   4.638   6.236   1.910
  759EOH      C 3039   4.647   6.292   2.041
  759EOH      C 3040   4.579   6.429   2.043
  759EOH      H 3041   4.700   6.281   1.854
  760EOH      O 3042   4.770   4.631   0.120
  760EOH      C 3043   4.889   4.614   0.198
  760EOH      C 3044   4.920   4.476   0.258
  760EOH      H 3045   4.749   4.721   0.100
  761EOH      O 3046   0.953   5.327   0.209
  761EOH      C 3047   1.093   5.349   0.223
  761EOH      C 3048   1.141   5.424   0.097
  761EOH      H 3049   0.939   5.240   0.177
  762EOH      O 3050   4.827   4.101   4.757
  762EOH      C 3051   4.905   4.139   4.644
  762EOH      C 3052   4.984   4.015   4.599
  762EOH      H 3053   4.864   4.019   4.787
  763EOH      O 3054   4.698   0.405   2.308
  763EOH      C 3055   4.807   0.347   2.381
  763EOH      C 3056   4.905   0.454   2.433
  763EOH      H 3057   4.730   0.454   2.234
  764EOH      O 3058   2.837   1.165   5.701
  764EOH      C 3059   2.894   1.279   5.636
  764EOH      C 3060   2.864   1.258   5.486
  764EOH      H 3061   2.878   1.156   5.786
  765EOH      O 3062   2.801   2.408   2.215
  765EOH      C 3063   2.880   2.341   2.314
  765EOH      C 3064   2.924   2.198   2.276
  765EOH      H 3065   2.809   2.501   2.231
  766EOH      O 3066   2.794   4.353   0.184
  766EOH      C 3067   2.794   4.412   0.314
  766EOH      C 3068   2.790   4.563   0.282
  766EOH      H 3069   2.866   4.393   0.138
  767EOH      O 3070   4.736   5.890   0.218
  767EOH      C 3071   4.790   5.778   0.148
  767EOH      C 3072   4.808   5.677   0.262
  767EOH      H 3073   4.654   5.904   0.173
  768EOH      O 3074   5.714   3.383   1.968
  768EOH      C 3075   5.720   3.388   2.110
  768EOH      C 3076   5.665   3.529   2.139
  768EOH      H 3077   5.757   3.302   1.944
  769EOH      O 3078   3.754   0.114   4.243
  769EOH      C 3079   3.853   0.076   4.339
  769EOH      C 3080   3.994   0.064   4.279
  769EOH      H 3081   3.678   0.149   4.287
  770EOH      O 3082   3.071   3.506   0.007
  770EOH      C 3083   3.000   3.421  -0.084
  770EOH      C 3084   2.873   3.405   0.001
  770EOH      H 3085   3.060   3.471   0.093
  771EOH      O 3086   1.909   6.100   2.682
  771EOH      C 3087   1.948   5.981   2.751
  771EOH      C 3088   2.099   5.969   2.722
  771EOH      H 3089   1.845   6.071   2.618
  772EOH      O 3090   3.273   4.190   2.342
  772EOH      C 3091   3.413   4.214   2.359
  772EOH      C 3092   3.457   4.359   2.334
  772EOH      H 3093   3.258   4.099   2.361
  773EOH      O 3094   4.543   1.993   5.380
  773EOH      C 3095   4.541   2.133   5.351
  773EOH      C 3096   4.683   2.166   5.300
  773EOH      H 3097   4.516   1.983   5.470
  774EOH      O 3098   2.895   5.122   4.604
  774EOH      C 3099   2.878   5.262   4.631
  774EOH      C 3100   3.004   5.318   4.699
  774EOH      H 3101   2.925   5.085   4.686
  775EOH      O 3102   1.439   5.268   4.608
  775EOH      C 3103   1.441   5.220   4.743
  775EOH      C 3104   1.391   5.336   4.832
  775EOH      H 3105   1.518   5.239   4.567
  776EOH      O 3106   1.610   3.803   6.206
  776EOH      C 3107   1.698   3.754   6.307
  776EOH      C 3108   1.803   3.862   6.339
  776EOH      H 3109   1.590   3.723   6.159
  777EOH      O 3110   1.480   0.803   0.658
  777EOH      C 3111   1.484   0.891   0.546
  777EOH      C 3112   1.337   0.897   0.499
  777EOH      H 3113   1.493   0.860   0.732
  778EOH      O 3114   4.769   6.267   2.499
  778EOH      C 3115   4.795   6.205   2.373
  778EOH      C 3116   4.927   6.128   2.395
  778EOH      H 3117   4.688   6.314   2.495
  779EOH      O 3118   0.159   4.717   2.022
  779EOH      C 3119   0.065   4.801   1.955
  779EOH      C 3120   0.148   4.876   1.849
  779EOH      H 3121   0.122   4.694   2.106
  780EOH      O 3122   2.108   2.901   2.228
  780EOH      C 3123   2.130   2.827   2.348
  780EOH      C 3124   2.223   2.897   2.448
  780EOH      H 3125   2.020   2.890   2.195
  781EOH      O 3126   4.637   0.644   5.964
  781EOH      C 3127   4.572   0.517   5.955
  781EOH      C 3128   4.432   0.540   5.896
  781EOH      H 3129   4.654   0.670   5.875
  782EOH      O 3130   0.633   1.439   5.872
  782EOH      C 3131   0.721   1.551   5.856
  782EOH      C 3132   0.702   1.621   5.720
  782EOH      H 3133   0.639   1.416   5.963
  783EOH      O 3134   6.311   2.556   4.390
  783EOH      C 3135   6.264   2.523   4.259
  783EOH      C 3136   6.115   2.484   4.261
  783EOH      H 3137   6.358   2.637   4.384
  784EOH      O 3138   5.595   2.446   5.781
  784EOH      C 3139   5.642   2.311   5.776
  784EOH      C 3140   5.527   2.238   5.848
  784EOH      H 3141   5.654   2.495   5.726
  785EOH      O 3142   3.975   4.062   3.583
  785EOH      C 3143   3.942   4.160   3.682
  785EOH      C 3144   4.068   4.244   3.712
  785EOH      H 3145   3.903   4.062   3.522
  786EOH      O 3146   4.916   3.499   4.579
  786EOH      C 3147   4.852   3.625   4.604
  786EOH      C 3148   4.783   3.663   4.472
  786EOH      H 3149   4.993   3.509   4.525
  787EOH      O 3150   4.631   0.269   4.176
  787EOH      C 3151   4.614   0.127   4.175
  787EOH      C 3152   4.476   0.090   4.231
  787EOH      H 3153   4.560   0.311   4.130
  788EOH      O 3154   1.172   4.678   3.753
  788EOH      C 3155   1.312   4.683   3.784
  788EOH      C 3156   1.370   4.815   3.728
  788EOH      H 3157   1.128   4.686   3.837
  789EOH      O 3158   1.277   0.734   5.450
  789EOH      C 3159   1.162   0.679   5.384
  789EOH      C 3160   1.216   0.565   5.296
  789EOH      H 3161   1.249   0.771   5.532
  790EOH      O 3162   3.899   4.777   1.115
  790EOH      C 3163   3.795   4.847   1.047
  790EOH      C 3164   3.857   4.923   0.928
  790EOH      H 3165   3.937   4.729   1.042
  791EOH      O 3166   3.704   2.786   3.373
  791EOH      C 3167   3.691   2.645   3.354
  791EOH      C 3168   3.556   2.604   3.416
  791EOH      H 3169   3.795   2.810   3.369
  792EOH      O 3170   4.702   1.479   4.368
  792EOH      C 3171   4.665   1.362   4.296
  792EOH      C 3172   4.516   1.333   4.325
  792EOH      H 3173   4.780   1.456   4.418
  793EOH      O 3174   1.627   0.099   2.640
  793EOH      C 3175   1.569  -0.018   2.583
  793EOH      C 3176   1.416  -0.014   2.566
  793EOH      H 3177   1.709   0.066   2.675
  794EOH      O 3178   4.932   5.145   5.522
  794EOH      C 3179   4.932   5.284   5.487
  794EOH      C 3180   4.810   5.366   5.531
  794EOH      H 3181   5.012   5.108   5.489
  795EOH      O 3182   0.049   2.660   3.041
  795EOH      C 3183   0.043   2.575   3.156
  795EOH      C 3184   0.148   2.464   3.138
  795EOH      H 3185   0.131   2.707   3.033
  796EOH      O 3186   5.030   4.333   5.817
  796EOH      C 3187   5.151   4.408   5.811
  796EOH      C 3188   5.166   4.479   5.946
  796EOH      H 3189   4.977   4.389   5.762
  797EOH      O 3190   0.750   4.555   5.007
  797EOH      C 3191   0.760   4.670   5.091
  797EOH      C 3192   0.774   4.791   4.997
  797EOH      H 3193   0.837   4.521   4.999
  798EOH      O 3194   1.469   3.655   2.561
  798EOH      C 3195   1.552   3.634   2.447
  798EOH      C 3196   1.596   3.486   2.452
  798EOH      H 3197   1.497   3.726   2.617
  799EOH      O 3198   1.342   1.331   0.945
  799EOH      C 3199   1.283   1.435   1.023
  799EOH      C 3200   1.173   1.499   0.937
  799EOH      H 3201   1.374   1.367   0.864
  800EOH      O 3202   5.795   3.120   1.876
  800EOH      C 3203   5.742   3.034   1.775
  800EOH      C 3204   5.788   3.091   1.640
  800EOH      H 3205   5.880   3.085   1.901
  801EOH      O 3206   1.972   4.644   5.354
  801EOH      C 3207   1.974   4.516   5.291
  801EOH      C 3208   1.890   4.525   5.161
  801EOH      H 3209   2.039   4.649   5.420
  802EOH      O 3210   5.664   1.414   4.247
  802EOH      C 3211   5.633   1.301   4.328
  802EOH      C 3212   5.760   1.290   4.415
  802EOH      H 3213   5.718   1.379   4.177
  803EOH      O 3214   4.394   1.664   2.579
  803EOH      C 3215   4.340   1.796   2.583
  803EOH      C 3216   4.415   1.901   2.499
  803EOH      H 3217   4.459   1.657   2.648
  804EOH      O 3218   3.906   1.540   5.946
  804EOH      C 3219   3.904   1.614   6.068
  804EOH      C 3220   3.959   1.516   6.173
  804EOH      H 3221   3.913   1.601   5.875
  805EOH      O 3222   0.346   4.583   2.895
  805EOH      C 3223   0.269   4.464   2.914
  805EOH      C 3224   0.354   4.343   2.873
  805EOH      H 3225   0.434   4.559   2.920
  806EOH      O 3226   5.656   5.071   4.942
  806EOH      C 3227   5.583   4.965   4.881
  806EOH      C 3228   5.484   5.005   4.770
  806EOH      H 3229   5.633   5.153   4.901
  807EOH      O 3230   6.078   4.275   3.768
  807EOH      C 3231   6.019   4.330   3.886
  807EOH      C 3232   5.958   4.469   3.858
  807EOH      H 3233   6.029   4.199   3.740
  808EOH      O 3234   6.228   3.505   3.199
  808EOH      C 3235   6.233   3.612   3.104
  808EOH      C 3236   6.087   3.614   3.056
  808EOH      H 3237   6.172   3.433   3.175
  809EOH      O 3238   3.085   0.814   2.347
  809EOH      C 3239   3.161   0.849   2.462
  809EOH      C 3240   3.077   0.830   2.590
  809EOH      H 3241   3.054   0.895   2.308
  810EOH      O 3242   3.643   4.697   2.801
  810EOH      C 3243   3.774   4.685   2.745
  810EOH      C 3244   3.780   4.787   2.629
  810EOH      H 3245   3.591   4.629   2.761
  811EOH      O 3246   6.071   1.646   3.370
  811EOH      C 3247   5.981   1.538   3.342
  811EOH      C 3248   5.937   1.478   3.477
  811EOH      H 3249   6.016   1.710   3.412
  812EOH      O 3250   2.973   2.833   3.107
  812EOH      C 3251   2.895   2.944   3.062
  812EOH      C 3252   2.745   2.908   3.075
  812EOH      H 3253   3.065   2.853   3.094
  813EOH      O 3254   2.923   1.608   6.272
  813EOH      C 3255   2.928   1.470   6.233
  813EOH      C 3256   2.907   1.441   6.083
  813EOH      H 3257   2.911   1.603   6.365
  814EOH      O 3258   0.885   2.812   1.907
  814EOH      C 3259   0.822   2.854   1.785
  814EOH      C 3260   0.788   3.004   1.792
  814EOH      H 3261   0.881   2.717   1.903
  815EOH      O 3262   0.493   1.526   0.568
  815EOH      C 3263   0.534   1.438   0.673
  815EOH      C 3264   0.534   1.512   0.807
  815EOH      H 3265   0.439   1.481   0.505
  816EOH      O 3266   5.020   3.930   2.000
  816EOH      C 3267   5.027   3.987   2.131
  816EOH      C 3268   4.904   4.069   2.173
  816EOH      H 3269   5.105   3.889   1.992
  817EOH      O 3270   4.588   4.159   1.216
  817EOH      C 3271   4.717   4.167   1.154
  817EOH      C 3272   4.689   4.136   1.006
  817EOH      H 3273   4.543   4.089   1.172
  818EOH      O 3274   0.191   1.805   3.606
  818EOH      C 3275   0.096   1.882   3.682
  818EOH      C 3276  -0.034   1.909   3.604
  818EOH      H 3277   0.218   1.856   3.531
  819EOH      O 3278   5.420   1.734   0.420
  819EOH      C 3279   5.390   1.866   0.464
  819EOH      C 3280   5.501   1.909   0.562
  819EOH      H 3281   5.368   1.685   0.482
  820EOH      O 3282   0.852   5.733   3.486
  820EOH      C 3283   0.787   5.610   3.451
  820EOH      C 3284   0.822   5.568   3.307
  820EOH      H 3285   0.926   5.706   3.538
  821EOH      O 3286   2.142   1.977   4.779
  821EOH      C 3287   2.157   2.030   4.647
  821EOH      C 3288   2.067   2.154   4.636
  821EOH      H 3289   2.090   1.897   4.781
  822EOH      O 3290   5.340   2.376   1.701
  822EOH      C 3291   5.443   2.279   1.678
  822EOH      C 3292   5.429   2.229   1.532
  822EOH      H 3293   5.350   2.453   1.647
  823EOH      O 3294   2.902   3.164   4.330
  823EOH      C 3295   2.904   3.294   4.270
  823EOH      C 3296   2.988   3.394   4.350
  823EOH      H 3297   2.916   3.099   4.263
  824EOH      O 3298   0.908   0.670   0.299
  824EOH      C 3299   0.924   0.650   0.440
  824EOH      C 3300   0.964   0.506   0.475
  824EOH      H 3301   0.867   0.752   0.277
  825EOH      O 3302   3.588   3.037   5.608
  825EOH      C 3303   3.513   2.935   5.542
  825EOH      C 3304   3.466   2.848   5.661
  825EOH      H 3305   3.662   3.066   5.556
  826EOH      O 3306   4.641   0.624   4.570
  826EOH      C 3307   4.706   0.529   4.484
  826EOH      C 3308   4.590   0.454   4.417
  826EOH      H 3309   4.604   0.582   4.646
  827EOH      O 3310   1.810   0.984   6.158
  827EOH      C 3311   1.871   1.033   6.278
  827EOH      C 3312   2.024   1.042   6.266
  827EOH      H 3313   1.747   1.042   6.120
  828EOH      O 3314   4.788   6.133   2.710
  828EOH      C 3315   4.802   6.238   2.806
  828EOH      C 3316   4.699   6.226   2.920
  828EOH      H 3317   4.780   6.170   2.624
  829EOH      O 3318   3.740   0.963   5.153
  829EOH      C 3319   3.762   0.949   5.013
  829EOH      C 3320   3.765   1.088   4.948
  829EOH      H 3321   3.816   1.010   5.183
  830EOH      O 3322   2.201   4.343   3.109
  830EOH      C 3323   2.102   4.254   3.162
  830EOH      C 3324   1.958   4.309   3.153
  830EOH      H 3325   2.199   4.346   3.015
  831EOH      O 3326   4.071   2.763   1.035
  831EOH      C 3327   4.081   2.823   0.905
  831EOH      C 3328   4.071   2.708   0.803
  831EOH      H 3329   4.056   2.825   1.105
  832EOH      O 3330   4.591   0.883   2.520
  832EOH      C 3331   4.616   0.871   2.379
  832EOH      C 3332   4.570   1.004   2.319
  832EOH      H 3333   4.522   0.822   2.540
  833EOH      O 3334   0.956   0.430   2.677
  833EOH      C 3335   0.985   0.422   2.537
  833EOH      C 3336   0.983   0.562   2.472
  833EOH      H 3337   0.957   0.346   2.721
  834EOH      O 3338   2.317   0.235   1.073
  834EOH      C 3339   2.295   0.310   0.953
  834EOH      C 3340   2.322   0.219   0.832
  834EOH      H 3341   2.318   0.302   1.139
  835EOH      O 3342   0.928   4.934   0.433
  835EOH      C 3343   1.039   5.017   0.468
  835EOH      C 3344   1.171   4.977   0.399
  835EOH      H 3345   0.846   4.973   0.458
  836EOH      O 3346   3.209   2.431   5.913
  836EOH      C 3347   3.234   2.460   6.051
  836EOH      C 3348   3.377   2.510   6.079
  836EOH      H 3349   3.115   2.425   5.902
  837EOH      O 3350   1.792   0.854   3.931
  837EOH      C 3351   1.878   0.858   4.045
  837EOH      C 3352   1.943   0.719   4.056
  837EOH      H 3353   1.705   0.839   3.965
  838EOH      O 3354   3.484   4.006   4.745
  838EOH      C 3355   3.415   4.018   4.621
  838EOH      C 3356   3.502   3.965   4.505
  838EOH      H 3357   3.557   4.066   4.737
  839EOH      O 3358   5.959   0.242   1.185
  839EOH      C 3359   5.962   0.228   1.327
  839EOH      C 3360   5.887   0.354   1.376
  839EOH      H 3361   6.027   0.185   1.152
  840EOH      O 3362   4.855   3.168   0.494
  840EOH      C 3363   4.807   3.074   0.397
  840EOH      C 3364   4.880   2.939   0.412
  840EOH      H 3365   4.783   3.198   0.548
  841EOH      O 3366   5.585   2.670   3.518
  841EOH      C 3367   5.574   2.812   3.504
  841EOH      C 3368   5.614   2.861   3.364
  841EOH      H 3369   5.525   2.643   3.586
  842EOH      O 3370   0.541   0.359   2.345
  842EOH      C 3371   0.559   0.340   2.486
  842EOH      C 3372   0.637   0.211   2.515
  842EOH      H 3373   0.624   0.377   2.306
  843EOH      O 3374   5.590   3.434   6.055
  843EOH      C 3375   5.624   3.566   6.100
  843EOH      C 3376   5.764   3.578   6.163
  843EOH      H 3377   5.538   3.441   5.977
  844EOH      O 3378   1.909   2.983   4.720
  844EOH      C 3379   1.857   2.851   4.741
  844EOH      C 3380   1.715   2.848   4.799
  844EOH      H 3381   1.998   2.972   4.689
  845EOH      O 3382   4.102   0.033   5.064
  845EOH      C 3383   3.979  -0.001   5.129
  845EOH      C 3384   3.981  -0.146   5.180
  845EOH      H 3385   4.112  -0.006   4.979
  846EOH      O 3386   0.097   4.608   2.247
  846EOH      C 3387   0.167   4.510   2.324
  846EOH      C 3388   0.284   4.457   2.239
  846EOH      H 3389   0.030   4.646   2.303
  847EOH      O 3390   1.910   5.477   3.324
  847EOH      C 3391   1.959   5.347   3.290
  847EOH      C 3392   1.870   5.314   3.169
  847EOH      H 3393   1.984   5.514   3.371
  848EOH      O 3394   0.606   4.743   0.647
  848EOH      C 3395   0.684   4.628   0.682
  848EOH      C 3396   0.835   4.649   0.666
  848EOH      H 3397   0.579   4.729   0.557
  849EOH      O 3398   5.421   4.657   6.249
  849EOH      C 3399   5.324   4.568   6.304
  849EOH      C 3400   5.201   4.646   6.354
  849EOH      H 3401   5.479   4.704   6.307
  850EOH      O 3402   0.627   4.408   4.323
  850EOH      C 3403   0.530   4.511   4.347
  850EOH      C 3404   0.431   4.496   4.231
  850EOH      H 3405   0.696   4.410   4.387
  851EOH      O 3406   3.259   5.728   1.557
  851EOH      C 3407   3.250   5.618   1.648
  851EOH      C 3408   3.276   5.649   1.796
  851EOH      H 3409   3.330   5.787   1.581
  852EOH      O 3410   5.457   0.231   6.275
  852EOH      C 3411   5.491   0.361   6.227
  852EOH      C 3412   5.438   0.395   6.087
  852EOH      H 3413   5.539   0.201   6.311
  853EOH      O 3414   1.968   4.646   4.073
  853EOH      C 3415   2.051   4.533   4.102
  853EOH      C 3416   1.976   4.399   4.115
  853EOH      H 3417   2.023   4.715   4.042
  854EOH      O 3418   0.323   1.045   4.532
  854EOH      C 3419   0.319   1.171   4.600
  854EOH      C 3420   0.456   1.207   4.661
  854EOH      H 3421   0.373   1.056   4.453
  855EOH      O 3422   4.767   1.874   2.872
  855EOH      C 3423   4.767   2.015   2.896
  855EOH      C 3424   4.632   2.066   2.948
  855EOH      H 3425   4.854   1.842   2.859
  856EOH      O 3426   0.033   2.103   5.296
  856EOH      C 3427   0.146   2.090   5.383
  856EOH      C 3428   0.261   2.031   5.300
  856EOH      H 3429  -0.036   2.049   5.330
  857EOH      O 3430   3.224   3.044   1.107
  857EOH      C 3431   3.310   3.044   1.221
  857EOH      C 3432   3.423   3.146   1.197
  857EOH      H 3433   3.267   2.995   1.038
  858EOH      O 3434   2.621   1.367   4.496
  858EOH      C 3435   2.676   1.444   4.603
  858EOH      C 3436   2.792   1.366   4.666
  858EOH      H 3437   2.527   1.378   4.485
  859EOH      O 3438   3.979   5.038   5.302
  859EOH      C 3439   3.960   4.898   5.283
  859EOH      C 3440   3.835   4.853   5.206
  859EOH      H 3441   4.024   5.048   5.385
  860EOH      O 3442   1.461   5.256   2.881
  860EOH      C 3443   1.568   5.235   2.789
  860EOH      C 3444   1.697   5.274   2.864
  860EOH      H 3445   1.386   5.246   2.825
  861EOH      O 3446   0.908   1.663   0.403
  861EOH      C 3447   0.826   1.595   0.308
  861EOH      C 3448   0.920   1.520   0.211
  861EOH      H 3449   0.857   1.730   0.447
  862EOH      O 3450   6.131   1.590   4.654
  862EOH      C 3451   6.267   1.586   4.698
  862EOH      C 3452   6.360   1.531   4.588
  862EOH      H 3453   6.083   1.516   4.687
  863EOH      O 3454   1.790   4.481   0.896
  863EOH      C 3455   1.828   4.375   0.808
  863EOH      C 3456   1.950   4.295   0.859
  863EOH      H 3457   1.696   4.481   0.898
  864EOH      O 3458   5.324   5.456   5.885
  864EOH      C 3459   5.289   5.551   5.784
  864EOH      C 3460   5.413   5.588   5.700
  864EOH      H 3461   5.249   5.443   5.940
  865EOH      O 3462   0.536   4.194   5.376
  865EOH      C 3463   0.467   4.295   5.302
  865EOH      C 3464   0.575   4.379   5.230
  865EOH      H 3465   0.542   4.210   5.469
  866EOH      O 3466   1.011   6.032   2.607
  866EOH      C 3467   1.152   6.040   2.623
  866EOH      C 3468   1.202   5.940   2.729
  866EOH      H 3469   0.985   5.949   2.571
  867EOH      O 3470   2.947   1.097   5.914
  867EOH      C 3471   3.087   1.075   5.898
  867EOH      C 3472   3.164   1.204   5.865
  867EOH      H 3473   2.929   1.046   5.991
  868EOH      O 3474   0.144   4.814   4.992
  868EOH      C 3475   0.219   4.769   5.104
  868EOH      C 3476   0.313   4.880   5.155
  868EOH      H 3477   0.200   4.809   4.916
  869EOH      O 3478   6.283   3.011   6.222
  869EOH      C 3479   6.310   3.050   6.086
  869EOH      C 3480   6.398   3.175   6.095
  869EOH      H 3481   6.192   2.987   6.222
  870EOH      O 3482   5.547   4.228   5.383
  870EOH      C 3483   5.580   4.151   5.267
  870EOH      C 3484   5.620   4.007   5.306
  870EOH      H 3485   5.551   4.316   5.350
  871EOH      O 3486   4.768   0.680   0.136
  871EOH      C 3487   4.657   0.591   0.149
  871EOH      C 3488   4.713   0.448   0.167
  871EOH      H 3489   4.829   0.642   0.074
  872EOH      O 3490   1.166   3.028   4.291
  872EOH      C 3491   1.064   2.957   4.220
  872EOH      C 3492   0.947   3.054   4.199
  872EOH      H 3493   1.246   2.984   4.266
  873EOH      O 3494   2.907   5.050   0.299
  873EOH      C 3495   2.933   4.928   0.368
  873EOH      C 3496   2.843   4.916   0.492
  873EOH      H 3497   2.956   5.053   0.218
  874EOH      O 3498   3.361   6.223   4.494
  874EOH      C 3499   3.402   6.122   4.402
  874EOH      C 3500   3.501   6.158   4.289
  874EOH      H 3501   3.315   6.180   4.564
  875EOH      O 3502   6.298   1.046   2.165
  875EOH      C 3503   6.367   1.168   2.190
  875EOH      C 3504   6.371   1.233   2.051
  875EOH      H 3505   6.298   1.003   2.249
  876EOH      O 3506   0.772   6.267   3.428
  876EOH      C 3507   0.738   6.342   3.311
  876EOH      C 3508   0.759   6.492   3.342
  876EOH      H 3509   0.741   6.321   3.499
  877EOH      O 3510   2.558   5.228   3.933
  877EOH      C 3511   2.537   5.325   3.830
  877EOH      C 3512   2.654   5.320   3.730
  877EOH      H 3513   2.558   5.139   3.903
  878EOH      O 3514   1.245   3.855   3.773
  878EOH      C 3515   1.324   3.916   3.876
  878EOH      C 3516   1.290   4.065   3.895
  878EOH      H 3517   1.262   3.896   3.690
  879EOH      O 3518   1.806   5.105   3.496
  879EOH      C 3519   1.672   5.132   3.540
  879EOH      C 3520   1.656   5.279   3.583
  879EOH      H 3521   1.864   5.099   3.570
  880EOH      O 3522   6.033   1.399   1.532
  880EOH      C 3523   6.010   1.278   1.459
  880EOH      C 3524   5.860   1.254   1.435
  880EOH      H 3525   6.125   1.406   1.554
  881EOH      O 3526   4.497   2.480   1.040
  881EOH      C 3527   4.497   2.594   1.126
  881EOH      C 3528   4.443   2.571   1.268
  881EOH      H 3529   4.417   2.478   0.990
  882EOH      O 3530   6.078   2.282   4.664
  882EOH      C 3531   6.063   2.194   4.552
  882EOH      C 3532   6.187   2.104   4.540
  882EOH      H 3533   6.154   2.336   4.647
  883EOH      O 3534   5.389   3.988   3.626
  883EOH      C 3535   5.365   4.090   3.529
  883EOH      C 3536   5.219   4.090   3.479
  883EOH      H 3537   5.405   3.904   3.585
  884EOH      O 3538   1.140   2.682   5.430
  884EOH      C 3539   1.215   2.561   5.419
  884EOH      C 3540   1.262   2.566   5.273
  884EOH      H 3541   1.200   2.745   5.465
  885EOH      O 3542   4.884   0.337   5.084
  885EOH      C 3543   4.871   0.346   5.226
  885EOH      C 3544   4.943   0.473   5.276
  885EOH      H 3545   4.838   0.256   5.066
  886EOH      O 3546   4.245   3.400   3.276
  886EOH      C 3547   4.263   3.324   3.396
  886EOH      C 3548   4.269   3.421   3.516
  886EOH      H 3549   4.155   3.412   3.249
  887EOH      O 3550   5.851   4.908   2.622
  887EOH      C 3551   5.824   4.778   2.567
  887EOH      C 3552   5.717   4.707   2.652
  887EOH      H 3553   5.785   4.965   2.586
  888EOH      O 3554   4.832   1.010   5.018
  888EOH      C 3555   4.787   0.950   4.896
  888EOH      C 3556   4.634   0.936   4.900
  888EOH      H 3557   4.915   0.973   5.043
  889EOH      O 3558   5.637   5.056   2.316
  889EOH      C 3559   5.745   5.103   2.235
  889EOH      C 3560   5.751   5.256   2.247
  889EOH      H 3561   5.555   5.064   2.271
  890EOH      O 3562   3.152   3.660   4.037
  890EOH      C 3563   3.216   3.532   4.025
  890EOH      C 3564   3.198   3.473   3.884
  890EOH      H 3565   3.178   3.690   4.123
  891EOH      O 3566   1.432   1.300   5.516
  891EOH      C 3567   1.564   1.353   5.509
  891EOH      C 3568   1.616   1.344   5.654
  891EOH      H 3569   1.405   1.268   5.431
  892EOH      O 3570   0.532   1.744   0.473
  892EOH      C 3571   0.443   1.766   0.363
  892EOH      C 3572   0.468   1.908   0.309
  892EOH      H 3573   0.514   1.660   0.511
  893EOH      O 3574   5.075   4.633   3.039
  893EOH      C 3575   5.113   4.770   3.023
  893EOH      C 3576   5.040   4.838   2.905
  893EOH      H 3577   5.098   4.610   3.128
  894EOH      O 3578   5.205   1.452   3.543
  894EOH      C 3579   5.259   1.369   3.440
  894EOH      C 3580   5.294   1.446   3.311
  894EOH      H 3581   5.114   1.457   3.519
  895EOH      O 3582   4.641   4.995   0.314
  895EOH      C 3583   4.563   5.114   0.332
  895EOH      C 3584   4.621   5.244   0.272
  895EOH      H 3585   4.685   4.983   0.396
  896EOH      O 3586   2.076   3.833   4.423
  896EOH      C 3587   2.169   3.902   4.508
  896EOH      C 3588   2.314   3.897   4.458
  896EOH      H 3589   2.054   3.893   4.353
  897EOH      O 3590   1.561   3.668   3.412
  897EOH      C 3591   1.688   3.733   3.420
  897EOH      C 3592   1.762   3.723   3.285
  897EOH      H 3593   1.551   3.609   3.485
  898EOH      O 3594   0.334   3.987   5.256
  898EOH      C 3595   0.393   3.871   5.197
  898EOH      C 3596   0.431   3.894   5.050
  898EOH      H 3597   0.408   4.042   5.279
  899EOH      O 3598   4.164   3.550   4.801
  899EOH      C 3599   4.060   3.462   4.842
  899EOH      C 3600   4.031   3.482   4.992
  899EOH      H 3601   4.144   3.641   4.817
  900EOH      O 3602   1.553   1.865   0.110
  900EOH      C 3603   1.652   1.885   0.009
  900EOH      C 3604   1.785   1.824   0.058
  900EOH      H 3605   1.486   1.805   0.080
  901EOH      O 3606   4.821   2.472   3.215
  901EOH      C 3607   4.735   2.425   3.320
  901EOH      C 3608   4.817   2.377   3.441
  901EOH      H 3609   4.771   2.523   3.153
  902EOH      O 3610   0.742   3.819   0.039
  902EOH      C 3611   0.632   3.729   0.019
  902EOH      C 3612   0.648   3.608   0.112
  902EOH      H 3613   0.690   3.897   0.054
  903EOH      O 3614   3.627   0.587   2.314
  903EOH      C 3615   3.507   0.661   2.338
  903EOH      C 3616   3.534   0.799   2.402
  903EOH      H 3617   3.611   0.497   2.338
  904EOH      O 3618   0.918   1.295   1.607
  904EOH      C 3619   0.999   1.408   1.643
  904EOH      C 3620   1.111   1.350   1.731
  904EOH      H 3621   0.873   1.321   1.529
  905EOH      O 3622   1.026   4.039   0.660
  905EOH      C 3623   0.959   4.117   0.560
  905EOH      C 3624   0.917   4.260   0.602
  905EOH      H 3625   1.085   3.981   0.616
  906EOH      O 3626   6.259   0.026   4.029
  906EOH      C 3627   6.200   0.138   3.962
  906EOH      C 3628   6.275   0.270   3.983
  906EOH      H 3629   6.261   0.049   4.121
  907EOH      O 3630   3.570   1.656   2.687
  907EOH      C 3631   3.435   1.649   2.734
  907EOH      C 3632   3.392   1.770   2.819
  907EOH      H 3633   3.571   1.632   2.596
  908EOH      O 3634   0.243   4.602   0.376
  908EOH      C 3635   0.155   4.635   0.268
  908EOH      C 3636   0.051   4.743   0.305
  908EOH      H 3637   0.206   4.521   0.407
  909EOH      O 3638   5.121   3.491   4.434
  909EOH      C 3639   5.210   3.603   4.436
  909EOH      C 3640   5.198   3.685   4.306
  909EOH      H 3641   5.170   3.415   4.404
  910EOH      O 3642   5.583   2.421   3.287
  910EOH      C 3643   5.625   2.311   3.206
  910EOH      C 3644   5.676   2.374   3.075
  910EOH      H 3645   5.659   2.456   3.330
  911EOH      O 3646   0.527   0.055   5.414
  911EOH      C 3647   0.633   0.048   5.510
  911EOH      C 3648   0.703  -0.088   5.490
  911EOH      H 3649   0.539   0.134   5.363
  912EOH      O 3650   5.757   1.251   2.274
  912EOH      C 3651   5.859   1.153   2.253
  912EOH      C 3652   5.978   1.231   2.194
  912EOH      H 3653   5.687   1.212   2.325
  913EOH      O 3654   0.191   3.230   1.240
  913EOH      C 3655   0.066   3.289   1.278
  913EOH      C 3656  -0.040   3.219   1.192
  913EOH      H 3657   0.240   3.299   1.199
  914EOH      O 3658   5.093   2.008   3.071
  914EOH      C 3659   5.149   1.962   3.195
  914EOH      C 3660   5.086   2.048   3.306
  914EOH      H 3661   5.048   2.088   3.093
  915EOH      O 3662   4.774   3.002   2.267
  915EOH      C 3663   4.731   2.876   2.320
  915EOH      C 3664   4.665   2.887   2.459
  915EOH      H 3665   4.867   3.017   2.274
  916EOH      O 3666   2.711   3.529   4.952
  916EOH      C 3667   2.669   3.453   5.065
  916EOH      C 3668   2.596   3.551   5.159
  916EOH      H 3669   2.643   3.520   4.887
  917EOH      O 3670   3.653   2.085   3.619
  917EOH      C 3671   3.559   2.171   3.684
  917EOH      C 3672   3.411   2.154   3.643
  917EOH      H 3673   3.610   2.006   3.589
  918EOH      O 3674   1.351   1.665   5.290
  918EOH      C 3675   1.246   1.602   5.216
  918EOH      C 3676   1.303   1.497   5.119
  918EOH      H 3677   1.424   1.692   5.237
  919EOH      O 3678   5.667   5.054   4.214
  919EOH      C 3679   5.562   5.101   4.299
  919EOH      C 3680   5.424   5.065   4.243
  919EOH      H 3681   5.674   4.960   4.220
  920EOH      O 3682   5.505   5.408   2.926
  920EOH      C 3683   5.364   5.383   2.923
  920EOH      C 3684   5.321   5.281   3.030
  920EOH      H 3685   5.540   5.322   2.940
  921EOH      O 3686   1.974   0.042   4.670
  921EOH      C 3687   1.993   0.058   4.811
  921EOH      C 3688   1.852   0.072   4.871
  921EOH      H 3689   1.995  -0.046   4.644
  922EOH      O 3690   1.401   3.296   3.457
  922EOH      C 3691   1.283   3.263   3.530
  922EOH      C 3692   1.276   3.111   3.552
  922EOH      H 3693   1.379   3.303   3.365
  923EOH      O 3694   2.262   2.019   4.993
  923EOH      C 3695   2.379   2.088   4.949
  923EOH      C 3696   2.428   2.182   5.061
  923EOH      H 3697   2.207   2.004   4.918
  924EOH      O 3698   1.208   3.907   0.507
  924EOH      C 3699   1.310   3.907   0.407
  924EOH      C 3700   1.433   3.824   0.446
  924EOH      H 3701   1.213   3.830   0.562
  925EOH      O 3702   1.456   4.213   5.749
  925EOH      C 3703   1.465   4.093   5.826
  925EOH      C 3704   1.600   4.087   5.900
  925EOH      H 3705   1.364   4.234   5.746
  926EOH      O 3706   5.495   4.833   3.667
  926EOH      C 3707   5.469   4.971   3.697
  926EOH      C 3708   5.319   5.001   3.675
  926EOH      H 3709   5.458   4.777   3.733
  927EOH      O 3710   5.634   3.246   3.640
  927EOH      C 3711   5.719   3.296   3.537
  927EOH      C 3712   5.678   3.239   3.400
  927EOH      H 3713   5.689   3.254   3.717
  928EOH      O 3714   2.853   0.966   6.292
  928EOH      C 3715   2.875   0.827   6.316
  928EOH      C 3716   2.962   0.762   6.207
  928EOH      H 3717   2.815   0.995   6.374
  929EOH      O 3718   0.760   2.562   4.451
  929EOH      C 3719   0.746   2.663   4.350
  929EOH      C 3720   0.709   2.601   4.214
  929EOH      H 3721   0.779   2.606   4.532
  930EOH      O 3722   6.301   4.125   6.006
  930EOH      C 3723   6.225   4.202   5.913
  930EOH      C 3724   6.090   4.221   5.984
  930EOH      H 3725   6.250   4.046   6.016
  931EOH      O 3726   2.067   3.989   2.077
  931EOH      C 3727   2.117   3.970   1.945
  931EOH      C 3728   2.201   3.842   1.955
  931EOH      H 3729   2.024   4.072   2.088
  932EOH      O 3730   5.198   2.095   0.997
  932EOH      C 3731   5.339   2.069   0.996
  932EOH      C 3732   5.371   1.951   0.903
  932EOH      H 3733   5.179   2.170   1.050
  933EOH      O 3734   2.490   5.073   2.616
  933EOH      C 3735   2.603   5.056   2.702
  933EOH      C 3736   2.576   5.006   2.845
  933EOH      H 3737   2.488   5.006   2.550
  934EOH      O 3738   1.991   4.131   4.747
  934EOH      C 3739   1.894   4.236   4.735
  934EOH      C 3740   1.823   4.229   4.598
  934EOH      H 3741   2.077   4.164   4.770
  935EOH      O 3742   0.811   6.109   1.492
  935EOH      C 3743   0.739   6.190   1.585
  935EOH      C 3744   0.691   6.104   1.703
  935EOH      H 3745   0.816   6.169   1.419
  936EOH      O 3746   5.096   6.029   4.546
  936EOH      C 3747   5.114   6.030   4.404
  936EOH      C 3748   4.988   6.087   4.336
  936EOH      H 3749   5.056   5.945   4.560
  937EOH      O 3750   1.968   2.886   3.426
  937EOH      C 3751   2.096   2.824   3.440
  937EOH      C 3752   2.218   2.909   3.399
  937EOH      H 3753   1.915   2.849   3.495
  938EOH      O 3754   0.304   6.203   1.228
  938EOH      C 3755   0.328   6.118   1.341
  938EOH      C 3756   0.342   6.190   1.476
  938EOH      H 3757   0.295   6.156   1.146
  939EOH      O 3758   2.331   4.382   2.073
  939EOH      C 3759   2.416   4.495   2.057
  939EOH      C 3760   2.354   4.615   1.981
  939EOH      H 3761   2.387   4.306   2.086
  940EOH      O 3762   2.799   1.968   3.952
  940EOH      C 3763   2.873   2.019   3.841
  940EOH      C 3764   2.812   2.158   3.813
  940EOH      H 3765   2.806   1.874   3.954
  941EOH      O 3766   1.538   4.517   6.111
  941EOH      C 3767   1.588   4.520   5.977
  941EOH      C 3768   1.742   4.526   5.984
  941EOH      H 3769   1.569   4.437   6.152
  942EOH      O 3770   5.550   5.962   6.247
  942EOH      C 3771   5.497   5.844   6.186
  942EOH      C 3772   5.498   5.732   6.292
  942EOH      H 3773   5.468   6.008   6.245
  943EOH      O 3774   0.108   3.976   5.349
  943EOH      C 3775   0.124   4.020   5.484
  943EOH      C 3776  -0.000   3.964   5.555
  943EOH      H 3777   0.196   3.976   5.315
  944EOH      O 3778   5.621   5.081   2.571
  944EOH      C 3779   5.495   5.125   2.622
  944EOH      C 3780   5.414   4.999   2.658
  944EOH      H 3781   5.611   5.053   2.481
  945EOH      O 3782   4.596   3.394   0.024
  945EOH      C 3783   4.587   3.269   0.094
  945EOH      C 3784   4.519   3.312   0.225
  945EOH      H 3785   4.687   3.415   0.009
  946EOH      O 3786   5.498   2.489   0.678
  946EOH      C 3787   5.433   2.416   0.783
  946EOH      C 3788   5.493   2.462   0.917
  946EOH      H 3789   5.464   2.457   0.596
  947EOH      O 3790   0.440   0.192   1.956
  947EOH      C 3791   0.531   0.292   1.912
  947EOH      C 3792   0.565   0.258   1.766
  947EOH      H 3793   0.412   0.215   2.043
  948EOH      O 3794   3.263   6.096   4.683
  948EOH      C 3795   3.151   6.159   4.747
  948EOH      C 3796   3.174   6.311   4.753
  948EOH      H 3797   3.242   6.004   4.687
  949EOH      O 3798   3.862   1.532   2.933
  949EOH      C 3799   3.836   1.582   3.065
  949EOH      C 3800   3.899   1.720   3.088
  949EOH      H 3801   3.830   1.591   2.866
  950EOH      O 3802   0.285   5.052   4.704
  950EOH      C 3803   0.151   5.003   4.690
  950EOH      C 3804   0.148   4.923   4.558
  950EOH      H 3805   0.292   5.132   4.755
  951EOH      O 3806   5.125   2.106   5.006
  951EOH      C 3807   5.056   2.131   5.129
  951EOH      C 3808   5.013   2.279   5.131
  951EOH      H 3809   5.148   2.015   4.997
  952EOH      O 3810   3.931   2.477   0.071
  952EOH      C 3811   4.027   2.373   0.092
  952EOH      C 3812   3.970   2.234   0.128
  952EOH      H 3813   3.976   2.553   0.105
  953EOH      O 3814   1.638   5.671   1.681
  953EOH      C 3815   1.622   5.584   1.569
  953EOH      C 3816   1.666   5.665   1.446
  953EOH      H 3817   1.615   5.759   1.657
  954EOH      O 3818   1.893   5.683   3.179
  954EOH      C 3819   1.810   5.795   3.209
  954EOH      C 3820   1.763   5.855   3.075
  954EOH      H 3821   1.893   5.627   3.256
  955EOH      O 3822   0.722   3.623   2.693
  955EOH      C 3823   0.794   3.734   2.749
  955EOH      C 3824   0.837   3.704   2.893
  955EOH      H 3825   0.646   3.604   2.746
  956EOH      O 3826   4.332   5.567   3.624
  956EOH      C 3827   4.340   5.683   3.540
  956EOH      C 3828   4.253   5.800   3.588
  956EOH      H 3829   4.329   5.600   3.712
  957EOH      O 3830   2.008   3.995   4.258
  957EOH      C 3831   1.869   4.009   4.227
  957EOH      C 3832   1.856   3.987   4.075
  957EOH      H 3833   2.059   4.034   4.188
  958EOH      O 3834   2.684   3.742   4.727
  958EOH      C 3835   2.768   3.796   4.624
  958EOH      C 3836   2.728   3.940   4.589
  958EOH      H 3837   2.735   3.759   4.804
  959EOH      O 3838   1.803   4.941   4.056
  959EOH      C 3839   1.680   5.006   4.023
  959EOH      C 3840   1.576   4.986   4.136
  959EOH      H 3841   1.779   4.849   4.049
  960EOH      O 3842   2.463   1.107   0.895
  960EOH      C 3843   2.540   1.102   0.774
  960EOH      C 3844   2.685   1.054   0.793
  960EOH      H 3845   2.448   1.019   0.925
  961EOH      O 3846   2.732   4.780   0.776
  961EOH      C 3847   2.710   4.640   0.761
  961EOH      C 3848   2.775   4.587   0.632
  961EOH      H 3849   2.805   4.796   0.833
  962EOH      O 3850   6.251   5.511   1.614
  962EOH      C 3851   6.359   5.469   1.697
  962EOH      C 3852   6.428   5.337   1.658
  962EOH      H 3853   6.279   5.584   1.560
  963EOH      O 3854   0.451   0.113   0.494
  963EOH      C 3855   0.329   0.114   0.568
  963EOH      C 3856   0.214   0.155   0.474
  963EOH      H 3857   0.463   0.036   0.440
  964EOH      O 3858   2.869   3.742   4.917
  964EOH      C 3859   2.980   3.757   5.006
  964EOH      C 3860   2.958   3.773   5.158
  964EOH      H 3861   2.831   3.658   4.936
  965EOH      O 3862   1.381   5.672   4.411
  965EOH      C 3863   1.357   5.679   4.552
  965EOH      C 3864   1.414   5.812   4.605
  965EOH      H 3865   1.371   5.583   4.380
  966EOH      O 3866   4.204   0.835   2.763
  966EOH      C 3867   4.125   0.951   2.739
  966EOH      C 3868   4.206   1.072   2.790
  966EOH      H 3869   4.196   0.814   2.854
  967EOH      O 3870   0.085   2.224   2.527
  967EOH      C 3871   0.066   2.247   2.387
  967EOH      C 3872  -0.077   2.282   2.342
  967EOH      H 3873   0.178   2.224   2.540
  968EOH      O 3874   4.334   5.212   6.229
  968EOH      C 3875   4.341   5.227   6.087
  968EOH      C 3876   4.249   5.127   6.016
  968EOH      H 3877   4.309   5.297   6.259
  969EOH      O 3878   3.501   2.191   1.943
  969EOH      C 3879   3.551   2.057   1.950
  969EOH      C 3880   3.427   1.967   1.961
  969EOH      H 3881   3.429   2.181   1.883
  970EOH      O 3882   5.366   2.557   5.876
  970EOH      C 3883   5.235   2.537   5.823
  970EOH      C 3884   5.223   2.645   5.713
  970EOH      H 3885   5.424   2.496   5.832
  971EOH      O 3886   2.776   2.565   2.792
  971EOH      C 3887   2.762   2.530   2.930
  971EOH      C 3888   2.701   2.391   2.957
  971EOH      H 3889   2.867   2.573   2.768
  972EOH      O 3890   5.772   4.566   5.135
  972EOH      C 3891   5.769   4.628   5.006
  972EOH      C 3892   5.638   4.581   4.941
  972EOH      H 3893   5.863   4.566   5.161
  973EOH      O 3894   0.316   3.406   0.496
  973EOH      C 3895   0.230   3.464   0.398
  973EOH      C 3896   0.280   3.585   0.317
  973EOH      H 3897   0.338   3.315   0.483
  974EOH      O 3898   2.187   2.408   2.999
  974EOH      C 3899   2.223   2.318   3.104
  974EOH      C 3900   2.113   2.210   3.113
  974EOH      H 3901   2.259   2.452   2.957
  975EOH      O 3902   4.496   4.875   4.479
  975EOH      C 3903   4.520   4.861   4.619
  975EOH      C 3904   4.413   4.930   4.706
  975EOH      H 3905   4.566   4.848   4.421
  976EOH      O 3906   2.746   2.505   0.147
  976EOH      C 3907   2.827   2.389   0.122
  976EOH      C 3908   2.968   2.421   0.070
  976EOH      H 3909   2.665   2.476   0.185
  977EOH      O 3910   5.532   4.648   3.517
  977EOH      C 3911   5.506   4.693   3.384
  977EOH      C 3912   5.606   4.809   3.364
  977EOH      H 3913   5.547   4.730   3.561
  978EOH      O 3914   0.418   5.766   2.260
  978EOH      C 3915   0.559   5.790   2.266
  978EOH      C 3916   0.620   5.797   2.125
  978EOH      H 3917   0.397   5.681   2.225
  979EOH      O 3918   3.178   0.632   3.129
  979EOH      C 3919   3.258   0.743   3.171
  979EOH      C 3920   3.225   0.760   3.320
  979EOH      H 3921   3.146   0.656   3.044
  980EOH      O 3922   2.987   5.905   1.626
  980EOH      C 3923   3.043   6.034   1.598
  980EOH      C 3924   2.998   6.135   1.705
  980EOH      H 3925   3.021   5.851   1.556
  981EOH      O 3926   0.946   4.005   5.191
  981EOH      C 3927   0.892   4.056   5.314
  981EOH      C 3928   0.821   3.958   5.409
  981EOH      H 3929   1.039   3.993   5.188
  982EOH      O 3930   4.195   3.730   0.001
  982EOH      C 3931   4.135   3.716   0.130
  982EOH      C 3932   4.242   3.646   0.216
  982EOH      H 3933   4.256   3.660  -0.015
  983EOH      O 3934   1.422   2.394   3.169
  983EOH      C 3935   1.561   2.428   3.157
  983EOH      C 3936   1.600   2.355   3.028
  983EOH      H 3937   1.416   2.300   3.179
  984EOH      O 3938   6.013   3.941   0.969
  984EOH      C 3939   6.140   3.901   0.917
  984EOH      C 3940   6.239   4.019   0.922
  984EOH      H 3941   5.952   3.868   0.972
  985EOH      O 3942   1.490   0.891   0.904
  985EOH      C 3943   1.607   0.851   0.975
  985EOH      C 3944   1.679   0.752   0.882
  985EOH      H 3945   1.455   0.967   0.949
  986EOH      O 3946   2.605   4.287   0.033
  986EOH      C 3947   2.574   4.153  -0.005
  986EOH      C 3948   2.430   4.142  -0.060
  986EOH      H 3949   2.686   4.291   0.083
  987EOH      O 3950   0.984   4.739   3.920
  987EOH      C 3951   0.848   4.698   3.904
  987EOH      C 3952   0.762   4.826   3.916
  987EOH      H 3953   0.993   4.748   4.014
  988EOH      O 3954   2.282   0.254   0.399
  988EOH      C 3955   2.259   0.228   0.260
  988EOH      C 3956   2.109   0.203   0.232
  988EOH      H 3957   2.374   0.249   0.419
  989EOH      O 3958   5.657   0.647   2.749
  989EOH      C 3959   5.609   0.747   2.838
  989EOH      C 3960   5.702   0.752   2.961
  989EOH      H 3961   5.662   0.558   2.782
  990EOH      O 3962   4.885   0.299   4.207
  990EOH      C 3963   4.938   0.301   4.074
  990EOH      C 3964   5.021   0.428   4.048
  990EOH      H 3965   4.792   0.286   4.201
  991EOH      O 3966   6.288   2.421   4.595
  991EOH      C 3967   6.368   2.498   4.685
  991EOH      C 3968   6.504   2.427   4.687
  991EOH      H 3969   6.302   2.464   4.513
  992EOH      O 3970   1.639   4.723   0.626
  992EOH      C 3971   1.778   4.756   0.633
  992EOH      C 3972   1.838   4.694   0.506
  992EOH      H 3973   1.602   4.773   0.554
  993EOH      O 3974   4.119   2.496   5.696
  993EOH      C 3975   4.038   2.551   5.591
  993EOH      C 3976   3.899   2.494   5.627
  993EOH      H 3977   4.209   2.522   5.683
  994EOH      O 3978   4.676   1.595   1.155
  994EOH      C 3979   4.717   1.545   1.282
  994EOH      C 3980   4.674   1.651   1.385
  994EOH      H 3981   4.720   1.678   1.145
  995EOH      O 3982   6.112   0.284   4.892
  995EOH      C 3983   6.201   0.331   4.789
  995EOH      C 3984   6.201   0.484   4.805
  995EOH      H 3985   6.150   0.322   4.970
  996EOH      O 3986   3.077   5.869   2.313
  996EOH      C 3987   3.030   5.851   2.179
  996EOH      C 3988   2.925   5.961   2.155
  996EOH      H 3989   3.014   5.822   2.365
  997EOH      O 3990   4.939   1.336   0.888
  997EOH      C 3991   5.046   1.410   0.946
  997EOH      C 3992   5.053   1.549   0.879
  997EOH      H 3993   4.858   1.385   0.885
  998EOH      O 3994   3.172   3.862   0.121
  998EOH      C 3995   3.283   3.838   0.207
  998EOH      C 3996   3.317   3.974   0.272
  998EOH      H 3997   3.178   3.811   0.042
  999EOH      O 3998   5.311   5.880   1.098
  999EOH      C 3999   5.231   5.896   1.215
  999EOH      C 4000   5.184   5.764   1.279
  999EOH      H 4001   5.256   5.898   1.023
 1000EOH      O 4002   1.810   6.054   0.978
 1000EOH      C 4003   1.731   5.983   0.882
 1000EOH      C 4004   1.598   5.951   0.953
 1000EOH      H 4005   1.895   6.075   0.941
 1001EOH      O 4006   0.344   0.047   2.867
 1001EOH      C 4007   0.291  -0.017   2.751
 1001EOH      C 4008   0.226   0.099   2.673
 1001EOH      H 4009   0.347  -0.015   2.937
 1002EOH      O 4010   4.313   2.211   3.433
 1002EOH      C 4011   4.393   2.314   3.493
 1002EOH      C 4012   4.320   2.448   3.514
 1002EOH      H 4013   4.244   2.188   3.493
 1003EOH      O 4014   0.727   2.238   5.960
 1003EOH      C 4015   0.779   2.114   5.911
 1003EOH      C 4016   0.697   2.002   5.976
 1003EOH      H 4017   0.652   2.256   5.904
 1004EOH      O 4018   3.690   2.811   3.629
 1004EOH      C 4019   3.638   2.943   3.642
 1004EOH      C 4020   3.484   2.947   3.649
 1004EOH      H 4021   3.679   2.779   3.540
 1005EOH      O 4022   1.745   4.895   3.330
 1005EOH      C 4023   1.761   4.932   3.193
 1005EOH      C 4024   1.770   4.806   3.104
 1005EOH      H 4025   1.754   4.972   3.384
 1006EOH      O 4026   6.200   0.311   2.737
 1006EOH      C 4027   6.114   0.316   2.623
 1006EOH      C 4028   6.136   0.430   2.523
 1006EOH      H 4029   6.197   0.230   2.786
 1007EOH      O 4030   5.209   2.514   0.311
 1007EOH      C 4031   5.075   2.548   0.346
 1007EOH      C 4032   5.077   2.520   0.498
 1007EOH      H 4033   5.253   2.595   0.288
 1008EOH      O 4034   5.372   1.780   1.859
 1008EOH      C 4035   5.337   1.863   1.748
 1008EOH      C 4036   5.387   1.799   1.618
 1008EOH      H 4037   5.464   1.786   1.876
 1009EOH      O 4038   1.290   3.876   1.571
 1009EOH      C 4039   1.228   3.921   1.450
 1009EOH      C 4040   1.331   3.973   1.348
 1009EOH      H 4041   1.296   3.782   1.569
 1010EOH      O 4042   0.823   5.194   2.990
 1010EOH      C 4043   0.857   5.077   3.066
 1010EOH      C 4044   0.960   4.977   3.010
 1010EOH      H 4045   0.754   5.232   3.041
 1011EOH      O 4046   4.189   1.141   4.786
 1011EOH      C 4047   4.295   1.227   4.831
 1011EOH      C 4048   4.398   1.238   4.717
 1011EOH      H 4049   4.135   1.197   4.732
 1012EOH      O 4050   0.386   1.347   5.792
 1012EOH      C 4051   0.385   1.218   5.729
 1012EOH      C 4052   0.252   1.147   5.761
 1012EOH      H 4053   0.479   1.365   5.790
 1013EOH      O 4054   3.381   4.341   1.812
 1013EOH      C 4055   3.328   4.468   1.851
 1013EOH      C 4056   3.271   4.455   1.993
 1013EOH      H 4057   3.308   4.281   1.815
 1014EOH      O 4058   0.994   2.763   1.179
 1014EOH      C 4059   0.940   2.820   1.299
 1014EOH      C 4060   1.049   2.844   1.405
 1014EOH      H 4061   0.947   2.788   1.101
 1015EOH      O 4062   4.347   3.863   5.673
 1015EOH      C 4063   4.314   3.886   5.810
 1015EOH      C 4064   4.441   3.851   5.889
 1015EOH      H 4065   4.398   3.942   5.663
 1016EOH      O 4066   2.155   1.733   1.230
 1016EOH      C 4067   2.170   1.869   1.272
 1016EOH      C 4068   2.124   1.862   1.419
 1016EOH      H 4069   2.187   1.673   1.296
 1017EOH      O 4070   1.762   2.781   6.098
 1017EOH      C 4071   1.895   2.764   6.046
 1017EOH      C 4072   1.875   2.736   5.896
 1017EOH      H 4073   1.762   2.829   6.180
 1018EOH      O 4074   1.609   0.323   6.022
 1018EOH      C 4075   1.692   0.220   5.967
 1018EOH      C 4076   1.839   0.257   5.995
 1018EOH      H 4077   1.621   0.328   6.116
 1019EOH      O 4078   4.539   4.276   1.426
 1019EOH      C 4079   4.659   4.343   1.467
 1019EOH      C 4080   4.637   4.493   1.438
 1019EOH      H 4081   4.557   4.225   1.349
 1020EOH      O 4082   5.954   3.278   2.895
 1020EOH      C 4083   6.000   3.359   2.786
 1020EOH      C 4084   6.078   3.283   2.677
 1020EOH      H 4085   5.861   3.276   2.881
 1021EOH      O 4086   2.310   5.189   0.154
 1021EOH      C 4087   2.345   5.050   0.164
 1021EOH      C 4088   2.276   4.989   0.287
 1021EOH      H 4089   2.361   5.223   0.226
 1022EOH      O 4090   5.444   3.857   4.561
 1022EOH      C 4091   5.399   3.929   4.676
 1022EOH      C 4092   5.527   3.957   4.757
 1022EOH      H 4093   5.458   3.913   4.487
 1023EOH      O 4094   4.452   1.966   5.610
 1023EOH      C 4095   4.445   2.055   5.722
 1023EOH      C 4096   4.518   1.977   5.833
 1023EOH      H 4097   4.405   1.893   5.648
 1024EOH      O 4098   2.712   3.438   2.631
 1024EOH      C 4099   2.701   3.451   2.773
 1024EOH      C 4100   2.829   3.402   2.843
 1024EOH      H 4101   2.696   3.346   2.617
 1025EOH      O 4102   1.190   3.967   5.183
 1025EOH      C 4103   1.263   4.077   5.128
 1025EOH      C 4104   1.325   4.038   4.992
 1025EOH      H 4105   1.261   3.912   5.212
 1026EOH      O 4106   1.557   1.368   6.099
 1026EOH      C 4107   1.656   1.471   6.099
 1026EOH      C 4108   1.581   1.605   6.086
 1026EOH      H 4109   1.523   1.360   6.187
 1027EOH      O 4110   5.822   5.235   4.069
 1027EOH      C 4111   5.818   5.145   3.957
 1027EOH      C 4112   5.801   5.214   3.820
 1027EOH      H 4113   5.771   5.196   4.138
 1028EOH      O 4114   3.065   0.633   2.898
 1028EOH      C 4115   2.944   0.581   2.843
 1028EOH      C 4116   2.836   0.612   2.948
 1028EOH      H 4117   3.142   0.605   2.850
 1029EOH      O 4118   5.698   0.760   5.382
 1029EOH      C 4119   5.771   0.668   5.463
 1029EOH      C 4120   5.842   0.550   5.394
 1029EOH      H 4121   5.673   0.708   5.307
 1030EOH      O 4122   3.711   4.753   0.256
 1030EOH      C 4123   3.628   4.775   0.371
 1030EOH      C 4124   3.683   4.899   0.443
 1030EOH      H 4125   3.759   4.832   0.237
 1031EOH      O 4126   3.789   4.834   5.913
 1031EOH      C 4127   3.892   4.735   5.905
 1031EOH      C 4128   4.026   4.809   5.882
 1031EOH      H 4129   3.709   4.783   5.910
 1032EOH      O 4130   5.751   4.396   2.203
 1032EOH      C 4131   5.874   4.454   2.156
 1032EOH      C 4132   5.858   4.591   2.088
 1032EOH      H 4133   5.764   4.327   2.266
 1033EOH      O 4134   0.281   3.462   0.855
 1033EOH      C 4135   0.157   3.479   0.786
 1033EOH      C 4136   0.044   3.449   0.887
 1033EOH      H 4137   0.344   3.444   0.788
 1034EOH      O 4138   1.899   1.714   4.538
 1034EOH      C 4139   1.822   1.612   4.475
 1034EOH      C 4140   1.913   1.508   4.406
 1034EOH      H 4141   1.914   1.778   4.470
 1035EOH      O 4142   4.707   3.273   2.303
 1035EOH      C 4143   4.651   3.335   2.187
 1035EOH      C 4144   4.730   3.311   2.057
 1035EOH      H 4145   4.695   3.181   2.286
 1036EOH      O 4146   1.031   1.981   1.855
 1036EOH      C 4147   0.949   2.056   1.765
 1036EOH      C 4148   1.015   2.113   1.638
 1036EOH      H 4149   1.066   2.042   1.918
 1037EOH      O 4150   3.477   0.842   4.024
 1037EOH      C 4151   3.473   0.784   3.893
 1037EOH      C 4152   3.421   0.895   3.799
 1037EOH      H 4153   3.457   0.934   4.018
 1038EOH      O 4154   2.555   3.568   3.940
 1038EOH      C 4155   2.485   3.693   3.937
 1038EOH      C 4156   2.587   3.799   3.982
 1038EOH      H 4157   2.494   3.502   3.970
 1039EOH      O 4158   4.742   5.847   6.003
 1039EOH      C 4159   4.703   5.711   5.982
 1039EOH      C 4160   4.713   5.621   6.107
 1039EOH      H 4161   4.715   5.892   5.924
 1040EOH      O 4162   2.403   1.749   2.451
 1040EOH      C 4163   2.420   1.628   2.378
 1040EOH      C 4164   2.414   1.511   2.479
 1040EOH      H 4165   2.462   1.813   2.415
 1041EOH      O 4166   3.228   5.672   3.257
 1041EOH      C 4167   3.369   5.689   3.274
 1041EOH      C 4168   3.433   5.762   3.154
 1041EOH      H 4169   3.223   5.621   3.178
 1042EOH      O 4170   2.957   2.478   3.641
 1042EOH      C 4171   3.069   2.427   3.713
 1042EOH      C 4172   3.148   2.536   3.788
 1042EOH      H 4173   2.967   2.565   3.606
 1043EOH      O 4174   5.410   2.620   4.341
 1043EOH      C 4175   5.285   2.640   4.407
 1043EOH      C 4176   5.175   2.556   4.340
 1043EOH      H 4177   5.425   2.702   4.296
 1044EOH      O 4178   6.046   4.681   2.955
 1044EOH      C 4179   5.938   4.727   3.036
 1044EOH      C 4180   5.878   4.610   3.115
 1044EOH      H 4181   6.063   4.751   2.893
 1045EOH      O 4182   3.269   5.457   0.825
 1045EOH      C 4183   3.195   5.557   0.756
 1045EOH      C 4184   3.120   5.661   0.841
 1045EOH      H 4185   3.306   5.403   0.757
 1046EOH      O 4186   5.053   5.770   0.717
 1046EOH      C 4187   5.002   5.638   0.697
 1046EOH      C 4188   4.873   5.641   0.614
 1046EOH      H 4189   5.059   5.812   0.633
 1047EOH      O 4190   2.129   0.271   3.682
 1047EOH      C 4191   2.138   0.318   3.817
 1047EOH      C 4192   2.275   0.297   3.883
 1047EOH      H 4193   2.057   0.311   3.637
 1048EOH      O 4194   4.969   5.082   1.858
 1048EOH      C 4195   4.924   4.965   1.927
 1048EOH      C 4196   5.039   4.866   1.954
 1048EOH      H 4197   4.915   5.094   1.782
 1049EOH      O 4198   5.633   0.670   0.469
 1049EOH      C 4199   5.566   0.556   0.523
 1049EOH      C 4200   5.459   0.601   0.624
 1049EOH      H 4201   5.572   0.741   0.464
 1050EOH      O 4202   0.544   1.677   2.672
 1050EOH      C 4203   0.416   1.738   2.656
 1050EOH      C 4204   0.398   1.813   2.522
 1050EOH      H 4205   0.551   1.604   2.612
 1051EOH      O 4206   2.558   3.018   0.755
 1051EOH      C 4207   2.487   3.128   0.813
 1051EOH      C 4208   2.563   3.191   0.931
 1051EOH      H 4209   2.573   3.039   0.664
 1052EOH      O 4210   0.258   4.687   2.691
 1052EOH      C 4211   0.335   4.803   2.658
 1052EOH      C 4212   0.244   4.879   2.560
 1052EOH      H 4213   0.290   4.649   2.771
 1053EOH      O 4214   0.461   6.045   2.823
 1053EOH      C 4215   0.604   6.040   2.820
 1053EOH      C 4216   0.656   6.170   2.756
 1053EOH      H 4217   0.427   5.978   2.765
 1054EOH      O 4218   4.925   0.634   6.246
 1054EOH      C 4219   5.036   0.594   6.165
 1054EOH      C 4220   5.023   0.550   6.018
 1054EOH      H 4221   4.879   0.704   6.201
 1055EOH      O 4222   6.252   3.116   5.351
 1055EOH      C 4223   6.157   3.218   5.318
 1055EOH      C 4224   6.027   3.162   5.257
 1055EOH      H 4225   6.235   3.041   5.297
 1056EOH      O 4226   0.365   4.303   5.760
 1056EOH      C 4227   0.264   4.374   5.688
 1056EOH      C 4228   0.328   4.479   5.595
 1056EOH      H 4229   0.314   4.248   5.817
 1057EOH      O 4230   5.056   1.868   1.111
 1057EOH      C 4231   5.138   1.770   1.176
 1057EOH      C 4232   5.169   1.837   1.311
 1057EOH      H 4233   5.105   1.939   1.072
 1058EOH      O 4234   4.171   3.725   1.767
 1058EOH      C 4235   4.058   3.812   1.764
 1058EOH      C 4236   3.972   3.814   1.892
 1058EOH      H 4237   4.242   3.755   1.713
 1059EOH      O 4238   5.149   5.402   6.063
 1059EOH      C 4239   5.010   5.371   6.051
 1059EOH      C 4240   4.992   5.245   6.137
 1059EOH      H 4241   5.167   5.435   6.149
 1060EOH      O 4242   1.346   0.989   2.460
 1060EOH      C 4243   1.450   1.021   2.552
 1060EOH      C 4244   1.443   0.943   2.685
 1060EOH      H 4245   1.261   1.022   2.486
 1061EOH      O 4246   2.693   3.337   3.567
 1061EOH      C 4247   2.713   3.207   3.510
 1061EOH      C 4248   2.574   3.142   3.497
 1061EOH      H 4249   2.721   3.333   3.657
 1062EOH      O 4250   6.265   2.424   1.131
 1062EOH      C 4251   6.229   2.413   1.269
 1062EOH      C 4252   6.358   2.406   1.353
 1062EOH      H 4253   6.249   2.512   1.100
 1063EOH      O 4254   1.962   1.823   5.779
 1063EOH      C 4255   1.837   1.763   5.814
 1063EOH      C 4256   1.757   1.741   5.684
 1063EOH      H 4257   1.952   1.914   5.802
 1064EOH      O 4258   2.735   5.241   0.365
 1064EOH      C 4259   2.803   5.355   0.310
 1064EOH      C 4260   2.745   5.407   0.177
 1064EOH      H 4261   2.807   5.183   0.385
 1065EOH      O 4262   3.820   2.466   2.336
 1065EOH      C 4263   3.947   2.446   2.398
 1065EOH      C 4264   3.943   2.472   2.550
 1065EOH      H 4265   3.834   2.442   2.245
 1066EOH      O 4266   2.058   0.876   5.538
 1066EOH      C 4267   2.096   0.938   5.415
 1066EOH      C 4268   2.040   0.851   5.300
 1066EOH      H 4269   2.101   0.930   5.602
 1067EOH      O 4270   4.270   6.217   3.875
 1067EOH      C 4271   4.281   6.359   3.861
 1067EOH      C 4272   4.199   6.414   3.742
 1067EOH      H 4273   4.185   6.208   3.915
 1068EOH      O 4274   0.867   1.273   3.159
 1068EOH      C 4275   0.786   1.171   3.099
 1068EOH      C 4276   0.876   1.050   3.070
 1068EOH      H 4277   0.813   1.351   3.164
 1069EOH      O 4278   2.777   4.203   5.432
 1069EOH      C 4279   2.805   4.064   5.414
 1069EOH      C 4280   2.867   4.013   5.545
 1069EOH      H 4281   2.696   4.220   5.386
 1070EOH      O 4282   2.858   2.539   5.344
 1070EOH      C 4283   2.857   2.397   5.361
 1070EOH      C 4284   2.725   2.358   5.291
 1070EOH      H 4285   2.938   2.570   5.384
 1071EOH      O 4286   5.361   3.442   2.567
 1071EOH      C 4287   5.378   3.308   2.519
 1071EOH      C 4288   5.527   3.284   2.486
 1071EOH      H 4289   5.399   3.507   2.510
 1072EOH      O 4290   1.946   4.359   3.720
 1072EOH      C 4291   2.086   4.383   3.697
 1072EOH      C 4292   2.115   4.438   3.556
 1072EOH      H 4293   1.894   4.437   3.714
 1073EOH      O 4294   1.489   0.909   6.281
 1073EOH      C 4295   1.406   0.793   6.266
 1073EOH      C 4296   1.256   0.827   6.263
 1073EOH      H 4297   1.577   0.891   6.252
 1074EOH      O 4298   0.344   5.512   4.745
 1074EOH      C 4299   0.474   5.568   4.723
 1074EOH      C 4300   0.578   5.460   4.689
 1074EOH      H 4301   0.281   5.580   4.727
 1075EOH      O 4302   4.979   3.983   5.157
 1075EOH      C 4303   4.963   4.125   5.160
 1075EOH      C 4304   4.811   4.152   5.162
 1075EOH      H 4305   5.059   3.966   5.204
 1076EOH      O 4306   3.657   0.405   1.554
 1076EOH      C 4307   3.650   0.468   1.426
 1076EOH      C 4308   3.533   0.568   1.413
 1076EOH      H 4309   3.725   0.340   1.562
 1077EOH      O 4310   6.215   3.660   3.792
 1077EOH      C 4311   6.187   3.602   3.920
 1077EOH      C 4312   6.088   3.706   3.976
 1077EOH      H 4313   6.251   3.745   3.813
 1078EOH      O 4314   3.818   6.306   4.010
 1078EOH      C 4315   3.743   6.365   3.904
 1078EOH      C 4316   3.708   6.246   3.812
 1078EOH      H 4317   3.800   6.355   4.089
 1079EOH      O 4318   2.358   0.437   4.928
 1079EOH      C 4319   2.238   0.444   4.851
 1079EOH      C 4320   2.117   0.497   4.929
 1079EOH      H 4321   2.341   0.406   5.016
 1080EOH      O 4322   2.867   2.642   2.265
 1080EOH      C 4323   2.941   2.726   2.354
 1080EOH      C 4324   3.093   2.700   2.346
 1080EOH      H 4325   2.824   2.688   2.195
 1081EOH      O 4326   1.699   5.549   4.427
 1081EOH      C 4327   1.774   5.648   4.498
 1081EOH      C 4328   1.763   5.613   4.648
 1081EOH      H 4329   1.709   5.570   4.336
 1082EOH      O 4330   4.068   6.157   3.424
 1082EOH      C 4331   4.027   6.290   3.457
 1082EOH      C 4332   4.039   6.377   3.331
 1082EOH      H 4333   3.990   6.114   3.392
 1083EOH      O 4334   2.735   2.361   3.572
 1083EOH      C 4335   2.743   2.270   3.462
 1083EOH      C 4336   2.761   2.355   3.335
 1083EOH      H 4337   2.819   2.394   3.599
 1084EOH      O 4338   4.129   0.899   4.827
 1084EOH      C 4339   4.153   0.872   4.966
 1084EOH      C 4340   4.304   0.853   4.991
 1084EOH      H 4341   4.147   0.991   4.818
 1085EOH      O 4342   1.847   0.366   0.644
 1085EOH      C 4343   1.780   0.468   0.569
 1085EOH      C 4344   1.636   0.444   0.620
 1085EOH      H 4345   1.940   0.375   0.631
 1086EOH      O 4346   0.616   1.574   6.192
 1086EOH      C 4347   0.671   1.695   6.246
 1086EOH      C 4348   0.823   1.707   6.222
 1086EOH      H 4349   0.523   1.576   6.207
 1087EOH      O 4350   2.526   0.478   0.272
 1087EOH      C 4351   2.553   0.602   0.339
 1087EOH      C 4352   2.684   0.659   0.281
 1087EOH      H 4353   2.522   0.487   0.178
 1088EOH      O 4354   0.020   0.009   1.035
 1088EOH      C 4355   0.114  -0.013   0.930
 1088EOH      C 4356   0.044   0.032   0.800
 1088EOH      H 4357   0.066   0.042   1.110
 1089EOH      O 4358   1.402   1.844   1.218
 1089EOH      C 4359   1.390   1.938   1.326
 1089EOH      C 4360   1.247   1.995   1.320
 1089EOH      H 4361   1.405   1.757   1.254
 1090EOH      O 4362   4.945   1.166   1.799
 1090EOH      C 4363   4.816   1.173   1.860
 1090EOH      C 4364   4.797   1.306   1.937
 1090EOH      H 4365   4.935   1.095   1.737
 1091EOH      O 4366   1.103   4.589   3.541
 1091EOH      C 4367   1.150   4.671   3.433
 1091EOH      C 4368   1.071   4.623   3.310
 1091EOH      H 4369   1.137   4.630   3.619
 1092EOH      O 4370   5.875   3.574   5.437
 1092EOH      C 4371   5.971   3.676   5.466
 1092EOH      C 4372   5.904   3.812   5.436
 1092EOH      H 4373   5.806   3.565   5.501
 1093EOH      O 4374   4.280   2.901   5.167
 1093EOH      C 4375   4.161   2.877   5.243
 1093EOH      C 4376   4.134   2.726   5.252
 1093EOH      H 4377   4.253   2.910   5.077
 1094EOH      O 4378   3.028   3.108   2.264
 1094EOH      C 4379   2.919   3.131   2.354
 1094EOH      C 4380   2.918   3.285   2.369
 1094EOH      H 4381   3.107   3.104   2.316
 1095EOH      O 4382   1.953   1.572   0.726
 1095EOH      C 4383   1.880   1.552   0.605
 1095EOH      C 4384   1.952   1.647   0.507
 1095EOH      H 4385   1.955   1.663   0.753
 1096EOH      O 4386   3.789   3.757   3.501
 1096EOH      C 4387   3.699   3.694   3.593
 1096EOH      C 4388   3.739   3.545   3.591
 1096EOH      H 4389   3.863   3.789   3.551
 1097EOH      O 4390   2.095   0.394   0.560
 1097EOH      C 4391   2.184   0.504   0.586
 1097EOH      C 4392   2.171   0.601   0.467
 1097EOH      H 4393   2.123   0.344   0.485
 1098EOH      O 4394   0.980   0.372   5.707
 1098EOH      C 4395   0.859   0.297   5.716
 1098EOH      C 4396   0.766   0.358   5.822
 1098EOH      H 4397   1.040   0.345   5.775
 1099EOH      O 4398   5.526   3.258   5.228
 1099EOH      C 4399   5.614   3.186   5.141
 1099EOH      C 4400   5.732   3.281   5.114
 1099EOH      H 4401   5.456   3.197   5.245
 1100EOH      O 4402   3.143   5.153   5.928
 1100EOH      C 4403   3.273   5.160   5.868
 1100EOH      C 4404   3.268   5.150   5.714
 1100EOH      H 4405   3.114   5.064   5.931
 1101EOH      O 4406   6.231   2.913   5.160
 1101EOH      C 4407   6.277   2.907   5.025
 1101EOH      C 4408   6.399   2.815   5.010
 1101EOH      H 4409   6.154   2.860   5.165
 1102EOH      O 4410   3.982   0.721   1.944
 1102EOH      C 4411   4.008   0.613   1.854
 1102EOH      C 4412   4.070   0.492   1.925
 1102EOH      H 4413   4.034   0.717   2.023
 1103EOH      O 4414   0.934   2.720   5.272
 1103EOH      C 4415   0.971   2.841   5.207
 1103EOH      C 4416   0.862   2.868   5.101
 1103EOH      H 4417   0.997   2.704   5.341
 1104EOH      O 4418   0.098   0.467   3.574
 1104EOH      C 4419   0.108   0.333   3.525
 1104EOH      C 4420   0.025   0.244   3.619
 1104EOH      H 4421   0.041   0.510   3.512
 1105EOH      O 4422   0.669   4.210   4.157
 1105EOH      C 4423   0.650   4.072   4.192
 1105EOH      C 4424   0.531   4.007   4.118
 1105EOH      H 4425   0.619   4.268   4.212
 1106EOH      O 4426   3.959   2.872   3.399
 1106EOH      C 4427   4.040   2.808   3.301
 1106EOH      C 4428   3.984   2.828   3.159
 1106EOH      H 4429   4.001   2.884   3.483
 1107EOH      O 4430   4.435   0.303   2.316
 1107EOH      C 4431   4.329   0.389   2.271
 1107EOH      C 4432   4.194   0.316   2.256
 1107EOH      H 4433   4.511   0.358   2.324
 1108EOH      O 4434   0.412   3.577   5.928
 1108EOH      C 4435   0.319   3.516   6.019
 1108EOH      C 4436   0.389   3.489   6.154
 1108EOH      H 4437   0.366   3.585   5.846
 1109EOH      O 4438   4.712   2.207   0.367
 1109EOH      C 4439   4.708   2.161   0.502
 1109EOH      C 4440   4.778   2.024   0.513
 1109EOH      H 4441   4.649   2.278   0.361
 1110EOH      O 4442   2.928   3.858   3.179
 1110EOH      C 4443   2.838   3.856   3.290
 1110EOH      C 4444   2.735   3.748   3.251
 1110EOH      H 4445   3.013   3.874   3.216
 1111EOH      O 4446   0.138   5.329   0.051
 1111EOH      C 4447   0.260   5.344   0.125
 1111EOH      C 4448   0.234   5.283   0.264
 1111EOH      H 4449   0.142   5.401  -0.008
 1112EOH      O 4450   3.452   3.735   0.933
 1112EOH      C 4451   3.340   3.648   0.948
 1112EOH      C 4452   3.307   3.627   1.097
 1112EOH      H 4453   3.493   3.737   0.847
 1113EOH      O 4454   3.075   1.436   2.626
 1113EOH      C 4455   3.151   1.429   2.505
 1113EOH      C 4456   3.260   1.322   2.526
 1113EOH      H 4457   3.056   1.527   2.644
 1114EOH      O 4458   5.515   2.647   6.052
 1114EOH      C 4459   5.638   2.694   5.996
 1114EOH      C 4460   5.685   2.819   6.072
 1114EOH      H 4461   5.461   2.610   5.985
 1115EOH      O 4462   4.966   0.078   3.851
 1115EOH      C 4463   5.012   0.118   3.721
 1115EOH      C 4464   5.156   0.066   3.702
 1115EOH      H 4465   4.871   0.074   3.846
 1116EOH      O 4466   4.264   0.990   3.170
 1116EOH      C 4467   4.392   1.054   3.175
 1116EOH      C 4468   4.408   1.179   3.086
 1116EOH      H 4469   4.205   1.064   3.172
 1117EOH      O 4470   0.384   4.228   0.399
 1117EOH      C 4471   0.480   4.331   0.419
 1117EOH      C 4472   0.572   4.337   0.295
 1117EOH      H 4473   0.435   4.150   0.410
 1118EOH      O 4474   6.066   2.936   0.756
 1118EOH      C 4475   6.115   3.070   0.754
 1118EOH      C 4476   6.008   3.169   0.804
 1118EOH      H 4477   6.086   2.892   0.675
 1119EOH      O 4478   5.852   0.024   6.179
 1119EOH      C 4479   5.762  -0.034   6.084
 1119EOH      C 4480   5.752   0.058   5.961
 1119EOH      H 4481   5.898  -0.041   6.229
 1120EOH      O 4482   0.742   2.469   0.508
 1120EOH      C 4483   0.802   2.458   0.638
 1120EOH      C 4484   0.952   2.423   0.640
 1120EOH      H 4485   0.670   2.409   0.498
 1121EOH      O 4486   3.051   2.378   4.583
 1121EOH      C 4487   3.040   2.442   4.455
 1121EOH      C 4488   3.173   2.412   4.385
 1121EOH      H 4489   3.003   2.427   4.648
 1122EOH      O 4490   2.206   5.393   2.108
 1122EOH      C 4491   2.235   5.530   2.139
 1122EOH      C 4492   2.116   5.581   2.222
 1122EOH      H 4493   2.203   5.349   2.191
 1123EOH      O 4494   5.835   5.258   1.522
 1123EOH      C 4495   5.738   5.363   1.529
 1123EOH      C 4496   5.661   5.359   1.396
 1123EOH      H 4497   5.926   5.283   1.515
 1124EOH      O 4498   5.931   4.158   0.902
 1124EOH      C 4499   5.802   4.184   0.958
 1124EOH      C 4500   5.755   4.316   0.895
 1124EOH      H 4501   5.976   4.089   0.948
 1125EOH      O 4502   3.398   0.668   5.133
 1125EOH      C 4503   3.514   0.740   5.176
 1125EOH      C 4504   3.483   0.820   5.304
 1125EOH      H 4505   3.423   0.616   5.059
 1126EOH      O 4506   0.546   2.334   1.669
 1126EOH      C 4507   0.464   2.222   1.634
 1126EOH      C 4508   0.548   2.105   1.578
 1126EOH      H 4509   0.501   2.411   1.637
 1127EOH      O 4510   2.188   1.870   2.558
 1127EOH      C 4511   2.144   1.766   2.644
 1127EOH      C 4512   2.243   1.744   2.760
 1127EOH      H 4513   2.263   1.839   2.509
 1128EOH      O 4514   3.118   2.240   5.105
 1128EOH      C 4515   3.139   2.376   5.066
 1128EOH      C 4516   3.135   2.393   4.913
 1128EOH      H 4517   3.053   2.200   5.049
 1129EOH      O 4518   1.890   5.629   2.728
 1129EOH      C 4519   1.927   5.544   2.619
 1129EOH      C 4520   1.824   5.525   2.505
 1129EOH      H 4521   1.946   5.630   2.805
 1130EOH      O 4522   2.128   4.366   2.217
 1130EOH      C 4523   2.118   4.470   2.315
 1130EOH      C 4524   2.009   4.431   2.416
 1130EOH      H 4525   2.210   4.376   2.170
 1131EOH      O 4526   2.690   5.124   5.779
 1131EOH      C 4527   2.754   5.135   5.652
 1131EOH      C 4528   2.808   5.277   5.629
 1131EOH      H 4529   2.601   5.154   5.771
 1132EOH      O 4530   2.887   4.394   2.262
 1132EOH      C 4531   2.934   4.435   2.133
 1132EOH      C 4532   2.814   4.472   2.044
 1132EOH      H 4533   2.968   4.365   2.302
 1133EOH      O 4534   4.884   2.959   0.825
 1133EOH      C 4535   4.973   2.864   0.884
 1133EOH      C 4536   5.107   2.852   0.811
 1133EOH      H 4537   4.933   3.030   0.787
 1134EOH      O 4538   4.446   4.675   3.134
 1134EOH      C 4539   4.411   4.630   3.003
 1134EOH      C 4540   4.377   4.741   2.901
 1134EOH      H 4541   4.454   4.605   3.197
 1135EOH      O 4542   3.813   0.537   3.676
 1135EOH      C 4543   3.830   0.407   3.733
 1135EOH      C 4544   3.840   0.406   3.886
 1135EOH      H 4545   3.888   0.587   3.704
 1136EOH      O 4546   4.257   2.975   4.916
 1136EOH      C 4547   4.308   2.957   4.783
 1136EOH      C 4548   4.326   2.806   4.762
 1136EOH      H 4549   4.162   2.974   4.910
 1137EOH      O 4550   2.339   3.385   5.280
 1137EOH      C 4551   2.208   3.332   5.298
 1137EOH      C 4552   2.131   3.438   5.379
 1137EOH      H 4553   2.393   3.334   5.222
 1138EOH      O 4554   1.230   2.118   2.027
 1138EOH      C 4555   1.346   2.103   1.946
 1138EOH      C 4556   1.360   2.221   1.847
 1138EOH      H 4557   1.263   2.174   2.095
 1139EOH      O 4558   4.239   6.125   1.086
 1139EOH      C 4559   4.137   6.222   1.114
 1139EOH      C 4560   4.146   6.271   1.260
 1139EOH      H 4561   4.199   6.083   1.012
 1140EOH      O 4562   0.728   0.302   4.582
 1140EOH      C 4563   0.765   0.359   4.707
 1140EOH      C 4564   0.646   0.406   4.793
 1140EOH      H 4565   0.656   0.243   4.596
 1141EOH      O 4566   2.477   3.364   4.296
 1141EOH      C 4567   2.579   3.434   4.368
 1141EOH      C 4568   2.628   3.565   4.304
 1141EOH      H 4569   2.484   3.272   4.318
 1142EOH      O 4570   2.775   1.235   2.343
 1142EOH      C 4571   2.637   1.234   2.305
 1142EOH      C 4572   2.621   1.198   2.156
 1142EOH      H 4573   2.789   1.272   2.429
 1143EOH      O 4574   4.174   5.762   5.483
 1143EOH      C 4575   4.201   5.778   5.343
 1143EOH      C 4576   4.196   5.636   5.284
 1143EOH      H 4577   4.201   5.834   5.538
 1144EOH      O 4578   4.125   2.205   3.605
 1144EOH      C 4579   4.162   2.164   3.737
 1144EOH      C 4580   4.141   2.266   3.850
 1144EOH      H 4581   4.034   2.229   3.597
 1145EOH      O 4582   1.395   1.088   1.065
 1145EOH      C 4583   1.358   1.107   1.202
 1145EOH      C 4584   1.434   1.224   1.268
 1145EOH      H 4585   1.374   1.167   1.017
 1146EOH      O 4586   5.793   1.818   1.240
 1146EOH      C 4587   5.684   1.889   1.299
 1146EOH      C 4588   5.549   1.832   1.251
 1146EOH      H 4589   5.866   1.878   1.246
 1147EOH      O 4590   2.296   2.183   1.235
 1147EOH      C 4591   2.348   2.264   1.128
 1147EOH      C 4592   2.253   2.248   1.008
 1147EOH      H 4593   2.370   2.127   1.254
 1148EOH      O 4594   4.580   2.319   1.847
 1148EOH      C 4595   4.639   2.332   1.718
 1148EOH      C 4596   4.520   2.385   1.635
 1148EOH      H 4597   4.643   2.271   1.898
 1149EOH      O 4598   2.511   5.612   4.553
 1149EOH      C 4599   2.645   5.635   4.597
 1149EOH      C 4600   2.751   5.589   4.495
 1149EOH      H 4601   2.448   5.668   4.596
 1150EOH      O 4602   1.951   4.336   2.765
 1150EOH      C 4603   1.830   4.392   2.815
 1150EOH      C 4604   1.752   4.455   2.697
 1150EOH      H 4605   1.932   4.249   2.735
 1151EOH      O 4606   2.639   4.590   4.227
 1151EOH      C 4607   2.573   4.619   4.103
 1151EOH      C 4608   2.431   4.561   4.084
 1151EOH      H 4609   2.613   4.662   4.282
 1152EOH      O 4610   5.006   0.704   3.573
 1152EOH      C 4611   4.866   0.704   3.598
 1152EOH      C 4612   4.851   0.684   3.750
 1152EOH      H 4613   5.028   0.791   3.542
 1153EOH      O 4614   4.709   3.204   4.282
 1153EOH      C 4615   4.594   3.288   4.267
 1153EOH      C 4616   4.644   3.430   4.234
 1153EOH      H 4617   4.681   3.121   4.318
 1154EOH      O 4618   2.530   0.282   0.437
 1154EOH      C 4619   2.644   0.197   0.424
 1154EOH      C 4620   2.776   0.273   0.402
 1154EOH      H 4621   2.539   0.358   0.381
 1155EOH      O 4622   2.765   4.190   4.049
 1155EOH      C 4623   2.886   4.125   4.088
 1155EOH      C 4624   2.997   4.232   4.096
 1155EOH      H 4625   2.720   4.219   4.127
 1156EOH      O 4626   5.036   4.088   5.873
 1156EOH      C 4627   4.932   4.019   5.943
 1156EOH      C 4628   4.798   4.063   5.882
 1156EOH      H 4629   5.006   4.175   5.854
 1157EOH      O 4630   5.376   4.834   2.131
 1157EOH      C 4631   5.474   4.745   2.184
 1157EOH      C 4632   5.502   4.785   2.330
 1157EOH      H 4633   5.376   4.831   2.036
 1158EOH      O 4634   0.020   4.961   6.293
 1158EOH      C 4635   0.130   4.985   6.205
 1158EOH      C 4636   0.262   4.925   6.259
 1158EOH      H 4637   0.001   5.044   6.333
 1159EOH      O 4638   1.622   5.336   1.299
 1159EOH      C 4639   1.557   5.422   1.205
 1159EOH      C 4640   1.496   5.328   1.099
 1159EOH      H 4641   1.706   5.321   1.257
 1160EOH      O 4642   6.231   4.933   3.801
 1160EOH      C 4643   6.288   5.050   3.859
 1160EOH      C 4644   6.230   5.173   3.787
 1160EOH      H 4645   6.285   4.857   3.818
 1161EOH      O 4646   4.381   0.291   1.159
 1161EOH      C 4647   4.488   0.198   1.174
 1161EOH      C 4648   4.544   0.192   1.317
 1161EOH      H 4649   4.359   0.293   1.067
 1162EOH      O 4650   4.925   6.142   1.589
 1162EOH      C 4651   4.989   6.015   1.575
 1162EOH      C 4652   4.919   5.947   1.455
 1162EOH      H 4653   4.931   6.179   1.502
 1163EOH      O 4654   3.051   5.754   1.432
 1163EOH      C 4655   3.057   5.702   1.298
 1163EOH      C 4656   2.911   5.661   1.271
 1163EOH      H 4657   3.136   5.750   1.472
 1164EOH      O 4658   2.676   0.937   5.636
 1164EOH      C 4659   2.679   0.891   5.501
 1164EOH      C 4660   2.823   0.877   5.448
 1164EOH      H 4661   2.719   1.021   5.644
 1165EOH      O 4662   6.053   4.888   2.789
 1165EOH      C 4663   6.175   4.954   2.752
 1165EOH      C 4664   6.283   4.934   2.860
 1165EOH      H 4665   5.991   4.901   2.719
 1166EOH      O 4666   1.978   4.832   4.873
 1166EOH      C 4667   2.098   4.756   4.858
 1166EOH      C 4668   2.222   4.848   4.859
 1166EOH      H 4669   1.908   4.778   4.839
 1167EOH      O 4670   2.046   0.294   5.597
 1167EOH      C 4671   2.110   0.178   5.650
 1167EOH      C 4672   2.149   0.092   5.528
 1167EOH      H 4673   2.044   0.357   5.667
 1168EOH      O 4674   0.212   0.199   3.035
 1168EOH      C 4675   0.329   0.247   3.102
 1168EOH      C 4676   0.370   0.148   3.212
 1168EOH      H 4677   0.244   0.149   2.962
 1169EOH      O 4678   3.967   1.104   6.104
 1169EOH      C 4679   3.930   1.164   5.980
 1169EOH      C 4680   4.047   1.170   5.880
 1169EOH      H 4681   3.907   1.139   6.169
 1170EOH      O 4682   2.577   6.124   5.379
 1170EOH      C 4683   2.520   6.033   5.285
 1170EOH      C 4684   2.532   6.089   5.142
 1170EOH      H 4685   2.537   6.107   5.462
 1171EOH      O 4686   2.767   4.909   4.454
 1171EOH      C 4687   2.873   4.814   4.473
 1171EOH      C 4688   2.887   4.776   4.621
 1171EOH      H 4689   2.792   4.977   4.515
 1172EOH      O 4690   3.336   3.472   2.982
 1172EOH      C 4691   3.210   3.532   2.949
 1172EOH      C 4692   3.114   3.569   3.063
 1172EOH      H 4693   3.380   3.467   2.899
 1173EOH      O 4694   6.015   3.637   3.642
 1173EOH      C 4695   6.062   3.629   3.507
 1173EOH      C 4696   5.966   3.693   3.405
 1173EOH      H 4697   6.092   3.648   3.696
 1174EOH      O 4698   5.931   1.431   1.756
 1174EOH      C 4699   6.031   1.399   1.853
 1174EOH      C 4700   6.089   1.531   1.906
 1174EOH      H 4701   5.970   1.407   1.673
 1175EOH      O 4702   5.508   2.321   2.431
 1175EOH      C 4703   5.530   2.182   2.404
 1175EOH      C 4704   5.643   2.156   2.303
 1175EOH      H 4705   5.433   2.309   2.487
 1176EOH      O 4706   0.391   2.389   1.095
 1176EOH      C 4707   0.364   2.470   0.980
 1176EOH      C 4708   0.465   2.586   0.984
 1176EOH      H 4709   0.332   2.316   1.089
 1177EOH      O 4710   6.032   2.735   5.166
 1177EOH      C 4711   5.891   2.746   5.142
 1177EOH      C 4712   5.876   2.825   5.011
 1177EOH      H 4713   6.060   2.661   5.115
 1178EOH      O 4714   0.992   1.473   3.752
 1178EOH      C 4715   1.090   1.506   3.852
 1178EOH      C 4716   1.212   1.541   3.764
 1178EOH      H 4717   1.023   1.394   3.711
 1179EOH      O 4718   0.900   6.115   4.572
 1179EOH      C 4719   0.998   6.191   4.643
 1179EOH      C 4720   0.924   6.221   4.775
 1179EOH      H 4721   0.947   6.063   4.509
 1180EOH      O 4722   0.698   0.040   1.047
 1180EOH      C 4723   0.646   0.151   1.121
 1180EOH      C 4724   0.530   0.208   1.038
 1180EOH      H 4725   0.641   0.017   0.975
 1181EOH      O 4726   4.592   1.945   0.064
 1181EOH      C 4727   4.640   1.850  -0.031
 1181EOH      C 4728   4.788   1.819  -0.001
 1181EOH      H 4729   4.596   1.910   0.151
 1182EOH      O 4730   3.664   3.403   4.171
 1182EOH      C 4731   3.550   3.366   4.092
 1182EOH      C 4732   3.519   3.215   4.105
 1182EOH      H 4733   3.644   3.476   4.229
 1183EOH      O 4734   0.816   3.762   3.646
 1183EOH      C 4735   0.760   3.868   3.724
 1183EOH      C 4736   0.832   3.868   3.860
 1183EOH      H 4737   0.837   3.686   3.699
 1184EOH      O 4738   1.410   2.295   0.600
 1184EOH      C 4739   1.347   2.171   0.634
 1184EOH      C 4740   1.200   2.158   0.589
 1184EOH      H 4741   1.485   2.306   0.656
 1185EOH      O 4742   2.196   1.057   4.206
 1185EOH      C 4743   2.266   1.126   4.102
 1185EOH      C 4744   2.220   1.273   4.106
 1185EOH      H 4745   2.214   0.965   4.208
 1186EOH      O 4746   2.155   2.768   0.670
 1186EOH      C 4747   2.269   2.830   0.609
 1186EOH      C 4748   2.237   2.957   0.527
 1186EOH      H 4749   2.162   2.782   0.763
 1187EOH      O 4750   2.625   1.109   4.441
 1187EOH      C 4751   2.505   1.048   4.488
 1187EOH      C 4752   2.521   1.020   4.639
 1187EOH      H 4753   2.627   1.200   4.465
 1188EOH      O 4754   0.651   2.679   0.433
 1188EOH      C 4755   0.508   2.673   0.433
 1188EOH      C 4756   0.455   2.709   0.573
 1188EOH      H 4757   0.682   2.598   0.468
 1189EOH      O 4758   2.449   5.669   3.148
 1189EOH      C 4759   2.579   5.676   3.091
 1189EOH      C 4760   2.652   5.542   3.110
 1189EOH      H 4761   2.424   5.751   3.186
 1190EOH      O 4762   2.329   1.349   0.279
 1190EOH      C 4763   2.393   1.431   0.376
 1190EOH      C 4764   2.453   1.347   0.491
 1190EOH      H 4765   2.262   1.302   0.327
 1191EOH      O 4766   1.554   4.199   2.991
 1191EOH      C 4767   1.551   4.122   3.112
 1191EOH      C 4768   1.679   4.042   3.140
 1191EOH      H 4769   1.496   4.274   2.987
 1192EOH      O 4770   3.179   4.707   0.789
 1192EOH      C 4771   3.260   4.798   0.715
 1192EOH      C 4772   3.304   4.744   0.578
 1192EOH      H 4773   3.237   4.646   0.831
 1193EOH      O 4774   0.832   3.473   4.009
 1193EOH      C 4775   0.942   3.454   4.098
 1193EOH      C 4776   1.087   3.455   4.045
 1193EOH      H 4777   0.759   3.509   4.058
 1194EOH      O 4778   6.117   5.476   2.395
 1194EOH      C 4779   6.097   5.466   2.536
 1194EOH      C 4780   6.044   5.325   2.567
 1194EOH      H 4781   6.145   5.564   2.376
 1195EOH      O 4782   0.952   5.080   0.076
 1195EOH      C 4783   0.939   5.108  -0.063
 1195EOH      C 4784   1.065   5.165  -0.129
 1195EOH      H 4785   0.909   4.997   0.090
 1196EOH      O 4786   4.174   5.094   3.551
 1196EOH      C 4787   4.203   5.114   3.689
 1196EOH      C 4788   4.224   5.261   3.729
 1196EOH      H 4789   4.164   5.002   3.531
 1197EOH      O 4790   4.919   1.240   5.106
 1197EOH      C 4791   5.061   1.254   5.112
 1197EOH      C 4792   5.088   1.384   5.190
 1197EOH      H 4793   4.889   1.157   5.071
 1198EOH      O 4794   1.635   3.596   1.368
 1198EOH      C 4795   1.763   3.579   1.308
 1198EOH      C 4796   1.804   3.432   1.326
 1198EOH      H 4797   1.627   3.547   1.448
 1199EOH      O 4798   2.598   2.721   1.840
 1199EOH      C 4799   2.659   2.828   1.767
 1199EOH      C 4800   2.795   2.781   1.712
 1199EOH      H 4801   2.506   2.739   1.852
 1200EOH      O 4802   2.251   1.555   1.389
 1200EOH      C 4803   2.211   1.417   1.381
 1200EOH      C 4804   2.061   1.413   1.350
 1200EOH      H 4805   2.326   1.565   1.445
 1201EOH      O 4806   5.450   5.522   3.873
 1201EOH      C 4807   5.447   5.463   3.743
 1201EOH      C 4808   5.574   5.519   3.675
 1201EOH      H 4809   5.407   5.460   3.930
 1202EOH      O 4810   5.371   6.136   6.181
 1202EOH      C 4811   5.347   6.230   6.286
 1202EOH      C 4812   5.215   6.183   6.350
 1202EOH      H 4813   5.339   6.161   6.096
 1203EOH      O 4814   4.804   3.889   1.874
 1203EOH      C 4815   4.803   3.748   1.847
 1203EOH      C 4816   4.895   3.723   1.725
 1203EOH      H 4817   4.889   3.916   1.904
 1204EOH      O 4818   0.720   4.757   3.232
 1204EOH      C 4819   0.690   4.849   3.337
 1204EOH      C 4820   0.790   4.826   3.452
 1204EOH      H 4821   0.740   4.673   3.269
 1205EOH      O 4822   0.549   2.324   0.457
 1205EOH      C 4823   0.419   2.279   0.497
 1205EOH      C 4824   0.381   2.336   0.635
 1205EOH      H 4825   0.606   2.253   0.433
 1206EOH      O 4826   0.104   4.726   1.179
 1206EOH      C 4827   0.094   4.692   1.317
 1206EOH      C 4828   0.203   4.751   1.409
 1206EOH      H 4829   0.155   4.656   1.142
 1207EOH      O 4830   6.165   4.429   5.385
 1207EOH      C 4831   6.304   4.436   5.419
 1207EOH      C 4832   6.365   4.572   5.381
 1207EOH      H 4833   6.154   4.364   5.317
 1208EOH      O 4834   4.270   2.421   0.915
 1208EOH      C 4835   4.281   2.283   0.879
 1208EOH      C 4836   4.421   2.263   0.818
 1208EOH      H 4837   4.192   2.439   0.965
 1209EOH      O 4838   0.830   6.223   1.246
 1209EOH      C 4839   0.939   6.162   1.176
 1209EOH      C 4840   0.898   6.030   1.110
 1209EOH      H 4841   0.763   6.248   1.185
 1210EOH      O 4842   3.824   1.084   1.100
 1210EOH      C 4843   3.740   1.025   1.200
 1210EOH      C 4844   3.817   0.932   1.296
 1210EOH      H 4845   3.816   1.043   1.016
 1211EOH      O 4846   5.156   3.142   1.515
 1211EOH      C 4847   5.293   3.127   1.553
 1211EOH      C 4848   5.345   3.264   1.504
 1211EOH      H 4849   5.160   3.159   1.422
 1212EOH      O 4850   1.084   2.956   2.013
 1212EOH      C 4851   1.097   2.968   2.155
 1212EOH      C 4852   1.033   3.103   2.193
 1212EOH      H 4853   1.003   2.914   1.987
 1213EOH      O 4854   2.312   5.503   3.276
 1213EOH      C 4855   2.363   5.369   3.282
 1213EOH      C 4856   2.482   5.370   3.379
 1213EOH      H 4857   2.352   5.552   3.206
 1214EOH      O 4858   3.145   1.783   4.774
 1214EOH      C 4859   3.148   1.648   4.726
 1214EOH      C 4860   3.091   1.627   4.585
 1214EOH      H 4861   3.066   1.828   4.747
 1215EOH      O 4862   5.344   4.912   1.078
 1215EOH      C 4863   5.382   4.959   0.948
 1215EOH      C 4864   5.473   5.080   0.971
 1215EOH      H 4865   5.383   4.826   1.083
 1216EOH      O 4866   4.303   1.592   0.463
 1216EOH      C 4867   4.334   1.722   0.413
 1216EOH      C 4868   4.437   1.790   0.505
 1216EOH      H 4869   4.208   1.589   0.465
 1217EOH      O 4870   4.039   1.288   4.661
 1217EOH      C 4871   4.017   1.279   4.520
 1217EOH      C 4872   4.110   1.369   4.437
 1217EOH      H 4873   4.005   1.372   4.687
 1218EOH      O 4874   3.168   3.880   3.298
 1218EOH      C 4875   3.223   3.983   3.380
 1218EOH      C 4876   3.232   4.115   3.301
 1218EOH      H 4877   3.181   3.799   3.344
 1219EOH      O 4878   5.201   5.484   6.285
 1219EOH      C 4879   5.125   5.537   6.394
 1219EOH      C 4880   5.198   5.654   6.463
 1219EOH      H 4881   5.273   5.444   6.331
 1220EOH      O 4882   5.342   5.839   3.052
 1220EOH      C 4883   5.465   5.771   3.027
 1220EOH      C 4884   5.552   5.862   2.938
 1220EOH      H 4885   5.279   5.769   3.063
 1221EOH      O 4886   1.639   1.579   1.523
 1221EOH      C 4887   1.747   1.588   1.428
 1221EOH      C 4888   1.708   1.481   1.325
 1221EOH      H 4889   1.666   1.527   1.597
 1222EOH      O 4890   2.368   5.293   2.495
 1222EOH      C 4891   2.430   5.421   2.514
 1222EOH      C 4892   2.568   5.397   2.449
 1222EOH      H 4893   2.431   5.227   2.520
 1223EOH      O 4894   2.727   0.564   1.553
 1223EOH      C 4895   2.637   0.632   1.641
 1223EOH      C 4896   2.668   0.782   1.630
 1223EOH      H 4897   2.719   0.472   1.573
 1224EOH      O 4898   4.704   3.718   2.797
 1224EOH      C 4899   4.824   3.683   2.867
 1224EOH      C 4900   4.830   3.756   3.002
 1224EOH      H 4901   4.687   3.656   2.727
 1225EOH      O 4902   5.992   5.713   2.212
 1225EOH      C 4903   5.927   5.829   2.160
 1225EOH      C 4904   5.934   5.946   2.261
 1225EOH      H 4905   6.015   5.655   2.141
 1226EOH      O 4906   4.069   4.194   2.282
 1226EOH      C 4907   3.939   4.225   2.229
 1226EOH      C 4908   3.861   4.288   2.346
 1226EOH      H 4909   4.121   4.272   2.269
 1227EOH      O 4910   5.643   3.339   5.467
 1227EOH      C 4911   5.745   3.287   5.553
 1227EOH      C 4912   5.740   3.344   5.696
 1227EOH      H 4913   5.655   3.301   5.382
 1228EOH      O 4914   3.865   3.798   6.056
 1228EOH      C 4915   3.837   3.884   5.944
 1228EOH      C 4916   3.917   3.834   5.823
 1228EOH      H 4917   3.947   3.828   6.091
 1229EOH      O 4918   3.421   5.909   1.658
 1229EOH      C 4919   3.518   5.974   1.575
 1229EOH      C 4920   3.439   6.082   1.499
 1229EOH      H 4921   3.423   5.950   1.743
 1230EOH      O 4922   2.705   4.888   4.965
 1230EOH      C 4923   2.689   4.754   5.012
 1230EOH      C 4924   2.637   4.668   4.895
 1230EOH      H 4925   2.626   4.941   4.965
 1231EOH      O 4926   1.428   4.296   0.787
 1231EOH      C 4927   1.290   4.310   0.755
 1231EOH      C 4928   1.280   4.438   0.670
 1231EOH      H 4929   1.455   4.359   0.852
 1232EOH      O 4930   4.527   0.106   2.477
 1232EOH      C 4931   4.414   0.024   2.508
 1232EOH      C 4932   4.362  -0.062   2.391
 1232EOH      H 4933   4.507   0.176   2.417
 1233EOH      O 4934   4.791   5.436   1.604
 1233EOH      C 4935   4.860   5.555   1.644
 1233EOH      C 4936   5.011   5.531   1.621
 1233EOH      H 4937   4.698   5.452   1.612
 1234EOH      O 4938   5.628   0.966   1.940
 1234EOH      C 4939   5.537   0.945   1.832
 1234EOH      C 4940   5.551   1.047   1.718
 1234EOH      H 4941   5.643   1.057   1.962
 1235EOH      O 4942   0.663   2.436   1.873
 1235EOH      C 4943   0.581   2.462   1.986
 1235EOH      C 4944   0.462   2.554   1.953
 1235EOH      H 4945   0.616   2.377   1.817
 1236EOH      O 4946   0.991   6.297   2.583
 1236EOH      C 4947   0.928   6.311   2.455
 1236EOH      C 4948   1.029   6.281   2.342
 1236EOH      H 4949   1.008   6.204   2.583
 1237EOH      O 4950   1.585   2.395   1.384
 1237EOH      C 4951   1.554   2.273   1.315
 1237EOH      C 4952   1.681   2.230   1.238
 1237EOH      H 4953   1.627   2.373   1.465
 1238EOH      O 4954   5.410   3.472   5.212
 1238EOH      C 4955   5.473   3.580   5.282
 1238EOH      C 4956   5.611   3.615   5.225
 1238EOH      H 4957   5.472   3.401   5.222
 1239EOH      O 4958   5.130   0.203   1.442
 1239EOH      C 4959   5.268   0.182   1.473
 1239EOH      C 4960   5.269   0.047   1.548
 1239EOH      H 4961   5.112   0.293   1.420
 1240EOH      O 4962   2.331   3.056   1.910
 1240EOH      C 4963   2.447   3.133   1.879
 1240EOH      C 4964   2.460   3.128   1.725
 1240EOH      H 4965   2.319   3.063   2.004
 1241EOH      O 4966   1.490   5.205   5.974
 1241EOH      C 4967   1.356   5.179   5.932
 1241EOH      C 4968   1.311   5.296   5.843
 1241EOH      H 4969   1.539   5.126   5.994
 1242EOH      O 4970   3.778   0.386   4.928
 1242EOH      C 4971   3.895   0.460   4.892
 1242EOH      C 4972   4.021   0.439   4.978
 1242EOH      H 4973   3.704   0.442   4.912
 1243EOH      O 4974   0.449   5.620   4.142
 1243EOH      C 4975   0.503   5.667   4.266
 1243EOH      C 4976   0.638   5.594   4.283
 1243EOH      H 4977   0.418   5.697   4.097
 1244EOH      O 4978   2.827   6.082   4.072
 1244EOH      C 4979   2.951   6.152   4.085
 1244EOH      C 4980   2.919   6.290   4.024
 1244EOH      H 4981   2.763   6.133   4.119
 1245EOH      O 4982   4.761   2.096   4.674
 1245EOH      C 4983   4.795   2.103   4.812
 1245EOH      C 4984   4.779   1.959   4.867
 1245EOH      H 4985   4.845   2.085   4.632
 1246EOH      O 4986   0.248   0.608   3.764
 1246EOH      C 4987   0.286   0.549   3.888
 1246EOH      C 4988   0.247   0.636   4.009
 1246EOH      H 4989   0.192   0.545   3.722
 1247EOH      O 4990   2.261   0.627   4.354
 1247EOH      C 4991   2.239   0.629   4.495
 1247EOH      C 4992   2.132   0.734   4.533
 1247EOH      H 4993   2.337   0.579   4.324
 1248EOH      O 4994   0.850   4.132   2.118
 1248EOH      C 4995   0.951   4.108   2.216
 1248EOH      C 4996   0.946   4.218   2.323
 1248EOH      H 4997   0.893   4.111   2.037
 1249EOH      O 4998   5.497   5.997   3.597
 1249EOH      C 4999   5.571   6.117   3.624
 1249EOH      C 5000   5.515   6.215   3.728
 1249EOH      H 5001   5.535   5.949   3.525
 1250EOH      O 5002   5.232   1.491   3.830
 1250EOH      C 5003   5.338   1.401   3.863
 1250EOH      C 5004   5.360   1.414   4.014
 1250EOH      H 5005   5.229   1.485   3.735
 1251EOH      O 5006   3.968   2.359   2.873
 1251EOH      C 5007   4.009   2.489   2.918
 1251EOH      C 5008   4.097   2.472   3.043
 1251EOH      H 5009   4.047   2.337   2.828
 1252EOH      O 5010   5.265   3.277   4.329
 1252EOH      C 5011   5.403   3.275   4.294
 1252EOH      C 5012   5.495   3.205   4.395
 1252EOH      H 5013   5.221   3.264   4.246
 1253EOH      O 5014   2.876   0.239   3.729
 1253EOH      C 5015   3.009   0.191   3.704
 1253EOH      C 5016   3.116   0.277   3.773
 1253EOH      H 5017   2.828   0.241   3.647
 1254EOH      O 5018   0.558   2.431   4.990
 1254EOH      C 5019   0.457   2.468   5.084
 1254EOH      C 5020   0.336   2.377   5.056
 1254EOH      H 5021   0.645   2.452   5.020
 1255EOH      O 5022   5.966   0.680   1.728
 1255EOH      C 5023   5.828   0.681   1.765
 1255EOH      C 5024   5.751   0.611   1.651
 1255EOH      H 5025   6.018   0.743   1.775
 1256EOH      O 5026   2.505   0.786   2.275
 1256EOH      C 5027   2.364   0.764   2.265
 1256EOH      C 5028   2.308   0.716   2.400
 1256EOH      H 5029   2.537   0.710   2.229
 1257EOH      O 5030   5.369   1.090   3.204
 1257EOH      C 5031   5.361   0.981   3.297
 1257EOH      C 5032   5.390   0.850   3.222
 1257EOH      H 5033   5.455   1.130   3.205
 1258EOH      O 5034   3.638   2.436   1.015
 1258EOH      C 5035   3.743   2.514   0.956
 1258EOH      C 5036   3.834   2.413   0.883
 1258EOH      H 5037   3.609   2.376   0.948
 1259EOH      O 5038   5.638   4.501   3.702
 1259EOH      C 5039   5.597   4.364   3.704
 1259EOH      C 5040   5.558   4.340   3.851
 1259EOH      H 5041   5.608   4.538   3.621
 1260EOH      O 5042   3.166   0.188   0.406
 1260EOH      C 5043   3.257   0.128   0.313
 1260EOH      C 5044   3.400   0.182   0.330
 1260EOH      H 5045   3.199   0.153   0.488
 1261EOH      O 5046   0.891   0.906   4.971
 1261EOH      C 5047   0.957   0.790   5.025
 1261EOH      C 5048   0.848   0.708   5.096
 1261EOH      H 5049   0.851   0.891   4.887
 1262EOH      O 5050   0.455   2.371   4.244
 1262EOH      C 5051   0.399   2.242   4.217
 1262EOH      C 5052   0.278   2.225   4.310
 1262EOH      H 5053   0.485   2.360   4.333
 1263EOH      O 5054   5.721   5.886   4.082
 1263EOH      C 5055   5.749   5.875   3.942
 1263EOH      C 5056   5.756   5.724   3.915
 1263EOH      H 5057   5.631   5.869   4.106
 1264EOH      O 5058   1.377   4.413   5.132
 1264EOH      C 5059   1.408   4.529   5.209
 1264EOH      C 5060   1.307   4.643   5.190
 1264EOH      H 5061   1.455   4.359   5.129
 1265EOH      O 5062   5.067   5.444   2.697
 1265EOH      C 5063   4.982   5.330   2.718
 1265EOH      C 5064   5.072   5.208   2.694
 1265EOH      H 5065   5.112   5.428   2.616
 1266EOH      O 5066   2.642   0.836   5.151
 1266EOH      C 5067   2.535   0.750   5.111
 1266EOH      C 5068   2.407   0.834   5.107
 1266EOH      H 5069   2.720   0.806   5.107
 1267EOH      O 5070   2.541   0.790   6.259
 1267EOH      C 5071   2.402   0.825   6.259
 1267EOH      C 5072   2.319   0.775   6.377
 1267EOH      H 5073   2.589   0.867   6.231
 1268EOH      O 5074   2.273   1.864   3.111
 1268EOH      C 5075   2.234   1.726   3.112
 1268EOH      C 5076   2.337   1.629   3.173
 1268EOH      H 5077   2.254   1.887   3.200
 1269EOH      O 5078   0.493   0.907   0.052
 1269EOH      C 5079   0.537   0.944  -0.079
 1269EOH      C 5080   0.427   0.903  -0.177
 1269EOH      H 5081   0.534   0.826   0.077
 1270EOH      O 5082   3.918   1.073   5.293
 1270EOH      C 5083   3.946   1.091   5.432
 1270EOH      C 5084   3.853   1.004   5.517
 1270EOH      H 5085   3.959   1.144   5.246
 1271EOH      O 5086   1.347   4.716   2.633
 1271EOH      C 5087   1.433   4.818   2.683
 1271EOH      C 5088   1.383   4.850   2.826
 1271EOH      H 5089   1.353   4.723   2.539
 1272EOH      O 5090   0.698   0.739   5.530
 1272EOH      C 5091   0.812   0.804   5.587
 1272EOH      C 5092   0.873   0.723   5.703
 1272EOH      H 5093   0.678   0.797   5.459
 1273EOH      O 5094   5.039   1.762   2.809
 1273EOH      C 5095   5.064   1.621   2.800
 1273EOH      C 5096   5.023   1.593   2.654
 1273EOH      H 5097   5.118   1.811   2.829
 1274EOH      O 5098   2.298   2.783   4.684
 1274EOH      C 5099   2.382   2.761   4.797
 1274EOH      C 5100   2.522   2.774   4.732
 1274EOH      H 5101   2.255   2.699   4.671
 1275EOH      O 5102   2.274   1.929   3.345
 1275EOH      C 5103   2.326   2.011   3.450
 1275EOH      C 5104   2.442   2.074   3.371
 1275EOH      H 5105   2.323   1.849   3.357
 1276EOH      O 5106   2.391   3.169   5.915
 1276EOH      C 5107   2.325   3.042   5.924
 1276EOH      C 5108   2.437   2.948   5.973
 1276EOH      H 5109   2.325   3.227   5.881
 1277EOH      O 5110   2.029   2.295   2.071
 1277EOH      C 5111   2.012   2.420   2.138
 1277EOH      C 5112   1.883   2.416   2.222
 1277EOH      H 5113   2.100   2.250   2.114
 1278EOH      O 5114   1.320   5.418   3.291
 1278EOH      C 5115   1.412   5.520   3.331
 1278EOH      C 5116   1.409   5.639   3.234
 1278EOH      H 5117   1.373   5.360   3.238
 1279EOH      O 5118   1.204   5.308   3.499
 1279EOH      C 5119   1.065   5.275   3.490
 1279EOH      C 5120   1.028   5.134   3.538
 1279EOH      H 5121   1.226   5.354   3.419
 1280EOH      O 5122   0.322   3.416   1.110
 1280EOH      C 5123   0.445   3.472   1.157
 1280EOH      C 5124   0.470   3.425   1.301
 1280EOH      H 5125   0.316   3.428   1.017
 1281EOH      O 5126   1.483   0.917   1.826
 1281EOH      C 5127   1.354   0.940   1.768
 1281EOH      C 5128   1.387   1.033   1.649
 1281EOH      H 5129   1.490   0.972   1.902
 1282EOH      O 5130   5.224   3.800   1.903
 1282EOH      C 5131   5.286   3.878   1.801
 1282EOH      C 5132   5.439   3.868   1.810
 1282EOH      H 5133   5.254   3.711   1.898
 1283EOH      O 5134   0.572   0.674   0.104
 1283EOH      C 5135   0.503   0.559   0.155
 1283EOH      C 5136   0.570   0.493   0.277
 1283EOH      H 5137   0.651   0.634   0.070
 1284EOH      O 5138   3.352   3.120   2.088
 1284EOH      C 5139   3.468   3.037   2.075
 1284EOH      C 5140   3.585   3.108   2.145
 1284EOH      H 5141   3.271   3.089   2.050
 1285EOH      O 5142   5.543   5.797   1.191
 1285EOH      C 5143   5.581   5.868   1.309
 1285EOH      C 5144   5.653   5.765   1.398
 1285EOH      H 5145   5.459   5.831   1.166
 1286EOH      O 5146   0.656   6.133   4.545
 1286EOH      C 5147   0.594   6.006   4.566
 1286EOH      C 5148   0.482   5.997   4.461
 1286EOH      H 5149   0.749   6.118   4.558
 1287EOH      O 5150   4.997   1.502   6.045
 1287EOH      C 5151   4.925   1.405   6.121
 1287EOH      C 5152   4.867   1.478   6.243
 1287EOH      H 5153   5.086   1.472   6.037
 1288EOH      O 5154   2.995   2.782   4.884
 1288EOH      C 5155   3.131   2.824   4.901
 1288EOH      C 5156   3.125   2.977   4.911
 1288EOH      H 5157   2.958   2.778   4.971
 1289EOH      O 5158   4.393   1.785   4.286
 1289EOH      C 5159   4.289   1.703   4.339
 1289EOH      C 5160   4.163   1.728   4.254
 1289EOH      H 5161   4.480   1.759   4.311
 1290EOH      O 5162   2.053   5.106   3.641
 1290EOH      C 5163   2.100   5.167   3.762
 1290EOH      C 5164   1.987   5.200   3.861
 1290EOH      H 5165   2.127   5.064   3.599
 1291EOH      O 5166   3.619   4.358   1.890
 1291EOH      C 5167   3.625   4.237   1.967
 1291EOH      C 5168   3.624   4.110   1.881
 1291EOH      H 5169   3.533   4.346   1.853
 1292EOH      O 5170   2.324   3.627   1.036
 1292EOH      C 5171   2.457   3.672   1.012
 1292EOH      C 5172   2.565   3.603   1.098
 1292EOH      H 5173   2.288   3.679   1.106
 1293EOH      O 5174   2.817   4.671   5.394
 1293EOH      C 5175   2.683   4.716   5.418
 1293EOH      C 5176   2.700   4.858   5.360
 1293EOH      H 5177   2.817   4.582   5.426
 1294EOH      O 5178   4.673   1.136   5.759
 1294EOH      C 5179   4.647   1.223   5.869
 1294EOH      C 5180   4.523   1.300   5.821
 1294EOH      H 5181   4.716   1.191   5.696
 1295EOH      O 5182   3.081   2.126   4.631
 1295EOH      C 5183   3.219   2.090   4.634
 1295EOH      C 5184   3.241   1.985   4.524
 1295EOH      H 5185   3.079   2.214   4.599
 1296EOH      O 5186   1.684   6.211   1.148
 1296EOH      C 5187   1.698   6.178   1.286
 1296EOH      C 5188   1.688   6.026   1.307
 1296EOH      H 5189   1.730   6.146   1.097
 1297EOH      O 5190   3.279   3.960   4.970
 1297EOH      C 5191   3.207   4.071   5.023
 1297EOH      C 5192   3.284   4.115   5.149
 1297EOH      H 5193   3.355   3.990   4.924
 1298EOH      O 5194   4.341   1.468   2.093
 1298EOH      C 5195   4.388   1.592   2.040
 1298EOH      C 5196   4.456   1.565   1.904
 1298EOH      H 5197   4.356   1.465   2.186
 1299EOH      O 5198   0.004   3.914   3.933
 1299EOH      C 5199   0.022   4.047   3.883
 1299EOH      C 5200   0.094   4.140   3.982
 1299EOH      H 5201   0.081   3.890   3.983
 1300EOH      O 5202   4.040   1.230   5.168
 1300EOH      C 5203   3.996   1.345   5.095
 1300EOH      C 5204   3.973   1.463   5.190
 1300EOH      H 5205   4.134   1.224   5.168
 1301EOH      O 5206   0.504   0.840   4.731
 1301EOH      C 5207   0.436   0.816   4.854
 1301EOH      C 5208   0.335   0.926   4.892
 1301EOH      H 5209   0.442   0.826   4.662
 1302EOH      O 5210   3.892   0.563   5.784
 1302EOH      C 5211   3.933   0.699   5.773
 1302EOH      C 5212   4.085   0.707   5.750
 1302EOH      H 5213   3.877   0.527   5.697
 1303EOH      O 5214   3.577   5.882   0.138
 1303EOH      C 5215   3.566   6.011   0.198
 1303EOH      C 5216   3.480   6.101   0.107
 1303EOH      H 5217   3.633   5.828   0.191
 1304EOH      O 5218   1.217   0.878   0.898
 1304EOH      C 5219   1.125   0.974   0.845
 1304EOH      C 5220   1.008   1.015   0.936
 1304EOH      H 5221   1.293   0.934   0.907
 1305EOH      O 5222   1.813   4.088   0.436
 1305EOH      C 5223   1.731   4.189   0.495
 1305EOH      C 5224   1.598   4.204   0.417
 1305EOH      H 5225   1.780   4.000   0.447
 1306EOH      O 5226   4.392   5.380   4.254
 1306EOH      C 5227   4.428   5.258   4.188
 1306EOH      C 5228   4.552   5.270   4.098
 1306EOH      H 5229   4.320   5.358   4.311
 1307EOH      O 5230   1.391   2.295   4.319
 1307EOH      C 5231   1.441   2.197   4.228
 1307EOH      C 5232   1.441   2.227   4.077
 1307EOH      H 5233   1.461   2.353   4.346
 1308EOH      O 5234   5.885   1.375   2.671
 1308EOH      C 5235   6.026   1.355   2.686
 1308EOH      C 5236   6.043   1.232   2.779
 1308EOH      H 5237   5.881   1.426   2.592
 1309EOH      O 5238   2.773   2.015   5.721
 1309EOH      C 5239   2.636   2.054   5.716
 1309EOH      C 5240   2.627   2.208   5.706
 1309EOH      H 5241   2.774   1.924   5.697
 1310EOH      O 5242   5.138   1.220   1.951
 1310EOH      C 5243   5.120   1.205   2.092
 1310EOH      C 5244   5.231   1.106   2.132
 1310EOH      H 5245   5.058   1.205   1.903
 1311EOH      O 5246   6.293   0.139   3.080
 1311EOH      C 5247   6.215   0.232   3.155
 1311EOH      C 5248   6.085   0.164   3.203
 1311EOH      H 5249   6.381   0.173   3.077
 1312EOH      O 5250   1.416   4.693   2.389
 1312EOH      C 5251   1.511   4.621   2.310
 1312EOH      C 5252   1.549   4.489   2.379
 1312EOH      H 5253   1.405   4.778   2.350
 1313EOH      O 5254   5.334   1.291   1.572
 1313EOH      C 5255   5.198   1.264   1.606
 1313EOH      C 5256   5.119   1.389   1.649
 1313EOH      H 5257   5.373   1.312   1.656
 1314EOH      O 5258   5.319   5.757   3.963
 1314EOH      C 5259   5.191   5.703   3.996
 1314EOH      C 5260   5.124   5.778   4.113
 1314EOH      H 5261   5.375   5.684   3.941
 1315EOH      O 5262   1.649   5.308   4.459
 1315EOH      C 5263   1.768   5.241   4.416
 1315EOH      C 5264   1.738   5.092   4.442
 1315EOH      H 5265   1.665   5.400   4.447
 1316EOH      O 5266   2.520   2.049   1.583
 1316EOH      C 5267   2.541   2.049   1.725
 1316EOH      C 5268   2.397   2.069   1.776
 1316EOH      H 5269   2.574   2.123   1.559
 1317EOH      O 5270   3.170   4.029   3.845
 1317EOH      C 5271   3.128   4.135   3.759
 1317EOH      C 5272   3.243   4.229   3.716
 1317EOH      H 5273   3.127   3.946   3.834
 1318EOH      O 5274   2.331   2.816   1.902
 1318EOH      C 5275   2.208   2.747   1.923
 1318EOH      C 5276   2.231   2.598   1.893
 1318EOH      H 5277   2.331   2.910   1.890
 1319EOH      O 5278   0.347   2.203   2.568
 1319EOH      C 5279   0.405   2.189   2.698
 1319EOH      C 5280   0.294   2.147   2.796
 1319EOH      H 5281   0.422   2.216   2.513
 1320EOH      O 5282   2.626   1.011   6.136
 1320EOH      C 5283   2.565   1.139   6.123
 1320EOH      C 5284   2.518   1.190   6.260
 1320EOH      H 5285   2.706   1.020   6.186
 1321EOH      O 5286   6.006   1.722   4.296
 1321EOH      C 5287   5.958   1.593   4.258
 1321EOH      C 5288   6.052   1.478   4.297
 1321EOH      H 5289   5.995   1.738   4.388
 1322EOH      O 5290   4.186   3.186   1.760
 1322EOH      C 5291   4.053   3.138   1.776
 1322EOH      C 5292   3.957   3.257   1.754
 1322EOH      H 5293   4.245   3.121   1.795
 1323EOH      O 5294   6.262   5.600   5.660
 1323EOH      C 5295   6.207   5.708   5.735
 1323EOH      C 5296   6.054   5.695   5.741
 1323EOH      H 5297   6.233   5.597   5.570
 1324EOH      O 5298   1.929   2.631   3.783
 1324EOH      C 5299   1.982   2.644   3.915
 1324EOH      C 5300   2.013   2.521   4.003
 1324EOH      H 5301   1.988   2.571   3.739
 1325EOH      O 5302   3.338   4.356   0.777
 1325EOH      C 5303   3.442   4.309   0.691
 1325EOH      C 5304   3.440   4.156   0.707
 1325EOH      H 5305   3.261   4.319   0.737
 1326EOH      O 5306   0.518   5.353   3.381
 1326EOH      C 5307   0.549   5.303   3.511
 1326EOH      C 5308   0.584   5.153   3.519
 1326EOH      H 5309   0.475   5.437   3.388
 1327EOH      O 5310   0.500   5.026   4.553
 1327EOH      C 5311   0.585   4.934   4.621
 1327EOH      C 5312   0.554   4.794   4.567
 1327EOH      H 5313   0.416   5.026   4.597
 1328EOH      O 5314   3.234   0.458   2.553
 1328EOH      C 5315   3.171   0.330   2.563
 1328EOH      C 5316   3.271   0.245   2.643
 1328EOH      H 5317   3.197   0.494   2.474
 1329EOH      O 5318   6.195   2.247   0.165
 1329EOH      C 5319   6.334   2.266   0.138
 1329EOH      C 5320   6.403   2.239   0.272
 1329EOH      H 5321   6.151   2.219   0.086
 1330EOH      O 5322   4.757   0.896   0.316
 1330EOH      C 5323   4.898   0.921   0.320
 1330EOH      C 5324   4.929   1.046   0.236
 1330EOH      H 5325   4.749   0.823   0.256
 1331EOH      O 5326   5.801   5.401   3.123
 1331EOH      C 5327   5.735   5.391   3.249
 1331EOH      C 5328   5.781   5.256   3.306
 1331EOH      H 5329   5.796   5.491   3.093
 1332EOH      O 5330   5.463   5.771   0.897
 1332EOH      C 5331   5.560   5.873   0.871
 1332EOH      C 5332   5.496   5.972   0.772
 1332EOH      H 5333   5.417   5.790   0.977
 1333EOH      O 5334   3.521   3.205   2.931
 1333EOH      C 5335   3.624   3.173   3.025
 1333EOH      C 5336   3.580   3.187   3.172
 1333EOH      H 5337   3.522   3.296   2.905
 1334EOH      O 5338   5.915   1.844   3.416
 1334EOH      C 5339   5.950   1.979   3.451
 1334EOH      C 5340   5.899   2.011   3.593
 1334EOH      H 5341   5.836   1.843   3.364
 1335EOH      O 5342   1.164   0.002   5.477
 1335EOH      C 5343   1.047   0.063   5.421
 1335EOH      C 5344   1.015  -0.005   5.287
 1335EOH      H 5345   1.151   0.005   5.571
 1336EOH      O 5346   3.464   3.267   5.037
 1336EOH      C 5347   3.484   3.253   5.178
 1336EOH      C 5348   3.382   3.153   5.234
 1336EOH      H 5349   3.531   3.332   5.018
 1337EOH      O 5350   4.981   0.819   5.304
 1337EOH      C 5351   4.841   0.804   5.327
 1337EOH      C 5352   4.767   0.939   5.329
 1337EOH      H 5353   5.002   0.820   5.212
 1338EOH      O 5354   1.581   0.775   4.045
 1338EOH      C 5355   1.482   0.865   4.096
 1338EOH      C 5356   1.531   1.000   4.040
 1338EOH      H 5357   1.561   0.692   4.086
 1339EOH      O 5358   2.543   2.439   3.725
 1339EOH      C 5359   2.495   2.319   3.786
 1339EOH      C 5360   2.379   2.353   3.881
 1339EOH      H 5361   2.616   2.413   3.672
 1340EOH      O 5362   4.655   2.974   2.905
 1340EOH      C 5363   4.676   3.048   2.784
 1340EOH      C 5364   4.691   3.201   2.793
 1340EOH      H 5365   4.580   3.010   2.951
 1341EOH      O 5366   0.746   6.159   3.766
 1341EOH      C 5367   0.724   6.023   3.727
 1341EOH      C 5368   0.653   6.001   3.593
 1341EOH      H 5369   0.798   6.161   3.844
 1342EOH      O 5370   0.515   2.311   5.841
 1342EOH      C 5371   0.524   2.399   5.728
 1342EOH      C 5372   0.646   2.375   5.638
 1342EOH      H 5373   0.424   2.308   5.868
 1343EOH      O 5374   4.580   5.496   0.809
 1343EOH      C 5375   4.648   5.374   0.779
 1343EOH      C 5376   4.550   5.283   0.702
 1343EOH      H 5377   4.627   5.531   0.884
 1344EOH      O 5378   4.569   1.711   2.809
 1344EOH      C 5379   4.600   1.585   2.870
 1344EOH      C 5380   4.575   1.587   3.022
 1344EOH      H 5381   4.645   1.765   2.823
 1345EOH      O 5382   1.837   1.476   3.600
 1345EOH      C 5383   1.726   1.553   3.648
 1345EOH      C 5384   1.645   1.608   3.529
 1345EOH      H 5385   1.808   1.388   3.621
 1346EOH      O 5386   2.610   1.639   5.103
 1346EOH      C 5387   2.478   1.691   5.113
 1346EOH      C 5388   2.498   1.803   5.217
 1346EOH      H 5389   2.599   1.549   5.076
 1347EOH      O 5390   1.342   0.901   4.915
 1347EOH      C 5391   1.406   0.778   4.881
 1347EOH      C 5392   1.304   0.704   4.793
 1347EOH      H 5393   1.409   0.939   4.970
 1348EOH      O 5394   5.706   4.635   4.566
 1348EOH      C 5395   5.809   4.727   4.604
 1348EOH      C 5396   5.783   4.866   4.543
 1348EOH      H 5397   5.729   4.547   4.593
 1349EOH      O 5398   0.077   1.400   0.488
 1349EOH      C 5399   0.036   1.319   0.599
 1349EOH      C 5400   0.156   1.301   0.692
 1349EOH      H 5401   0.001   1.445   0.455
 1350EOH      O 5402   4.553   1.022   0.394
 1350EOH      C 5403   4.535   1.133   0.306
 1350EOH      C 5404   4.644   1.239   0.329
 1350EOH      H 5405   4.619   0.961   0.368
 1351EOH      O 5406   4.341   0.822   3.953
 1351EOH      C 5407   4.317   0.955   4.000
 1351EOH      C 5408   4.165   0.959   4.020
 1351EOH      H 5409   4.310   0.809   3.864
 1352EOH      O 5410   5.095   4.824   0.789
 1352EOH      C 5411   5.055   4.689   0.817
 1352EOH      C 5412   5.161   4.584   0.782
 1352EOH      H 5413   5.087   4.881   0.864
 1353EOH      O 5414   3.596   1.918   3.396
 1353EOH      C 5415   3.574   1.976   3.268
 1353EOH      C 5416   3.456   1.903   3.202
 1353EOH      H 5417   3.643   1.836   3.383
 1354EOH      O 5418   1.298   4.476   2.767
 1354EOH      C 5419   1.165   4.448   2.722
 1354EOH      C 5420   1.157   4.456   2.568
 1354EOH      H 5421   1.314   4.564   2.737
 1355EOH      O 5422   4.989   0.532   4.943
 1355EOH      C 5423   5.044   0.467   4.828
 1355EOH      C 5424   5.127   0.343   4.862
 1355EOH      H 5425   4.936   0.465   4.983
 1356EOH      O 5426   6.308   6.228   3.799
 1356EOH      C 5427   6.218   6.121   3.770
 1356EOH      C 5428   6.073   6.161   3.801
 1356EOH      H 5429   6.295   6.258   3.887
 1357EOH      O 5430   2.273   1.929   0.239
 1357EOH      C 5431   2.187   2.043   0.246
 1357EOH      C 5432   2.042   1.994   0.227
 1357EOH      H 5433   2.341   1.941   0.304
 1358EOH      O 5434   2.665   4.747   2.431
 1358EOH      C 5435   2.634   4.607   2.438
 1358EOH      C 5436   2.644   4.540   2.576
 1358EOH      H 5437   2.758   4.760   2.434
 1359EOH      O 5438   3.304   4.641   4.760
 1359EOH      C 5439   3.218   4.537   4.715
 1359EOH      C 5440   3.251   4.404   4.785
 1359EOH      H 5441   3.296   4.650   4.854
 1360EOH      O 5442   5.726   1.788   3.268
 1360EOH      C 5443   5.602   1.723   3.241
 1360EOH      C 5444   5.513   1.822   3.164
 1360EOH      H 5445   5.778   1.796   3.189
 1361EOH      O 5446   0.026   5.398   5.778
 1361EOH      C 5447   0.080   5.300   5.689
 1361EOH      C 5448   0.034   5.161   5.735
 1361EOH      H 5449   0.012   5.475   5.725
 1362EOH      O 5450   1.102   1.674   4.806
 1362EOH      C 5451   1.115   1.561   4.720
 1362EOH      C 5452   1.188   1.612   4.595
 1362EOH      H 5453   1.061   1.647   4.887
 1363EOH      O 5454   4.620   1.722   4.345
 1363EOH      C 5455   4.687   1.812   4.435
 1363EOH      C 5456   4.631   1.954   4.420
 1363EOH      H 5457   4.656   1.635   4.348
 1364EOH      O 5458   3.231   3.749   1.924
 1364EOH      C 5459   3.109   3.688   1.880
 1364EOH      C 5460   3.003   3.717   1.987
 1364EOH      H 5461   3.283   3.765   1.846
 1365EOH      O 5462   1.316   2.573   4.200
 1365EOH      C 5463   1.219   2.573   4.094
 1365EOH      C 5464   1.283   2.520   3.965
 1365EOH      H 5465   1.273   2.561   4.283
 1366EOH      O 5466   2.035   2.521   5.411
 1366EOH      C 5467   1.905   2.540   5.466
 1366EOH      C 5468   1.788   2.463   5.402
 1366EOH      H 5469   2.058   2.431   5.429
 1367EOH      O 5470   0.977   4.451   4.949
 1367EOH      C 5471   0.989   4.327   5.020
 1367EOH      C 5472   0.896   4.229   4.946
 1367EOH      H 5473   1.064   4.486   4.939
 1368EOH      O 5474   5.128   2.307   1.134
 1368EOH      C 5475   5.175   2.415   1.216
 1368EOH      C 5476   5.158   2.549   1.142
 1368EOH      H 5477   5.042   2.291   1.169
 1369EOH      O 5478   5.814   3.528   0.377
 1369EOH      C 5479   5.828   3.482   0.242
 1369EOH      C 5480   5.909   3.351   0.251
 1369EOH      H 5481   5.822   3.622   0.376
 1370EOH      O 5482   6.211   1.250   3.440
 1370EOH      C 5483   6.307   1.300   3.347
 1370EOH      C 5484   6.409   1.188   3.319
 1370EOH      H 5485   6.237   1.280   3.526
 1371EOH      O 5486   1.113   3.420   1.945
 1371EOH      C 5487   0.998   3.434   2.030
 1371EOH      C 5488   1.016   3.562   2.113
 1371EOH      H 5489   1.117   3.327   1.931
 1372EOH      O 5490   5.513   2.903   2.148
 1372EOH      C 5491   5.509   3.006   2.048
 1372EOH      C 5492   5.385   2.977   1.960
 1372EOH      H 5493   5.593   2.906   2.197
 1373EOH      O 5494   6.152   4.195   2.968
 1373EOH      C 5495   6.032   4.150   2.904
 1373EOH      C 5496   5.922   4.248   2.952
 1373EOH      H 5497   6.143   4.288   2.985
 1374EOH      O 5498   4.174   4.313   5.403
 1374EOH      C 5499   4.149   4.188   5.467
 1374EOH      C 5500   4.110   4.201   5.616
 1374EOH      H 5501   4.105   4.368   5.438
 1375EOH      O 5502   2.765   5.882   2.578
 1375EOH      C 5503   2.622   5.890   2.584
 1375EOH      C 5504   2.567   5.881   2.727
 1375EOH      H 5505   2.802   5.939   2.643
 1376EOH      O 5506   4.245   4.350   3.309
 1376EOH      C 5507   4.195   4.242   3.387
 1376EOH      C 5508   4.221   4.114   3.305
 1376EOH      H 5509   4.218   4.327   3.222
 1377EOH      O 5510   2.968   2.975   4.167
 1377EOH      C 5511   3.103   2.952   4.126
 1377EOH      C 5512   3.171   3.082   4.080
 1377EOH      H 5513   2.940   2.895   4.209
 1378EOH      O 5514   3.124   3.040   2.046
 1378EOH      C 5515   3.056   2.921   2.005
 1378EOH      C 5516   3.150   2.829   1.926
 1378EOH      H 5517   3.084   3.061   2.129
 1379EOH      O 5518   4.151   4.400   3.068
 1379EOH      C 5519   4.015   4.440   3.050
 1379EOH      C 5520   3.951   4.478   3.185
 1379EOH      H 5521   4.182   4.381   2.980
 1380EOH      O 5522   4.685   4.418   3.952
 1380EOH      C 5523   4.723   4.464   3.822
 1380EOH      C 5524   4.818   4.582   3.849
 1380EOH      H 5525   4.637   4.338   3.940
 1381EOH      O 5526   0.104   2.566   3.945
 1381EOH      C 5527   0.173   2.449   3.990
 1381EOH      C 5528   0.318   2.441   3.938
 1381EOH      H 5529   0.017   2.535   3.927
 1382EOH      O 5530   2.513   5.030   4.954
 1382EOH      C 5531   2.530   5.122   4.846
 1382EOH      C 5532   2.567   5.038   4.722
 1382EOH      H 5533   2.437   5.060   5.000
 1383EOH      O 5534   5.720   2.516   4.166
 1383EOH      C 5535   5.719   2.419   4.061
 1383EOH      C 5536   5.577   2.404   4.002
 1383EOH      H 5537   5.670   2.467   4.229
 1384EOH      O 5538   6.118   4.008   4.724
 1384EOH      C 5539   6.008   3.920   4.749
 1384EOH      C 5540   6.023   3.790   4.668
 1384EOH      H 5541   6.201   3.974   4.755
 1385EOH      O 5542   0.881   3.549   3.737
 1385EOH      C 5543   0.993   3.482   3.679
 1385EOH      C 5544   1.124   3.563   3.692
 1385EOH      H 5545   0.875   3.524   3.828
 1386EOH      O 5546   5.123   5.673   3.076
 1386EOH      C 5547   5.035   5.689   2.964
 1386EOH      C 5548   5.025   5.835   2.916
 1386EOH      H 5549   5.072   5.642   3.150
 1387EOH      O 5550   2.491   0.044   1.076
 1387EOH      C 5551   2.499  -0.029   1.198
 1387EOH      C 5552   2.447   0.055   1.317
 1387EOH      H 5553   2.420   0.106   1.084
 1388EOH      O 5554   5.483   1.920   3.906
 1388EOH      C 5555   5.470   1.834   3.793
 1388EOH      C 5556   5.570   1.847   3.677
 1388EOH      H 5557   5.535   1.882   3.975
 1389EOH      O 5558   3.548   5.775   0.691
 1389EOH      C 5559   3.477   5.677   0.615
 1389EOH      C 5560   3.418   5.741   0.488
 1389EOH      H 5561   3.500   5.802   0.768
 1390EOH      O 5562   3.640   0.680   3.525
 1390EOH      C 5563   3.542   0.597   3.461
 1390EOH      C 5564   3.445   0.536   3.565
 1390EOH      H 5565   3.700   0.633   3.581
 1391EOH      O 5566   5.719   5.189   5.770
 1391EOH      C 5567   5.809   5.271   5.695
 1391EOH      C 5568   5.920   5.181   5.637
 1391EOH      H 5569   5.663   5.251   5.813
 1392EOH      O 5570   0.985   0.205   1.870
 1392EOH      C 5571   0.979   0.294   1.759
 1392EOH      C 5572   0.981   0.196   1.640
 1392EOH      H 5573   1.075   0.177   1.876
 1393EOH      O 5574   2.696   0.079   0.931
 1393EOH      C 5575   2.680   0.103   0.790
 1393EOH      C 5576   2.709  -0.026   0.711
 1393EOH      H 5577   2.613   0.087   0.975
 1394EOH      O 5578   0.853   5.465   4.965
 1394EOH      C 5579   0.907   5.402   4.848
 1394EOH      C 5580   0.980   5.268   4.870
 1394EOH      H 5581   0.906   5.543   4.966
 1395EOH      O 5582   4.106   4.851   3.449
 1395EOH      C 5583   4.135   4.712   3.435
 1395EOH      C 5584   4.142   4.651   3.576
 1395EOH      H 5585   4.034   4.878   3.394
 1396EOH      O 5586   1.001   4.912   5.416
 1396EOH      C 5587   1.022   4.945   5.279
 1396EOH      C 5588   0.902   5.025   5.225
 1396EOH      H 5589   0.908   4.902   5.433
 1397EOH      O 5590   5.593   4.141   2.957
 1397EOH      C 5591   5.629   4.108   3.091
 1397EOH      C 5592   5.682   3.964   3.104
 1397EOH      H 5593   5.556   4.228   2.957
 1398EOH      O 5594   1.765   2.142   1.720
 1398EOH      C 5595   1.801   2.028   1.643
 1398EOH      C 5596   1.693   1.987   1.540
 1398EOH      H 5597   1.805   2.127   1.804
 1399EOH      O 5598   3.499   0.167   4.306
 1399EOH      C 5599   3.402   0.238   4.228
 1399EOH      C 5600   3.449   0.259   4.083
 1399EOH      H 5601   3.476   0.168   4.397
 1400EOH      O 5602   3.398   1.919   4.165
 1400EOH      C 5603   3.326   2.021   4.095
 1400EOH      C 5604   3.221   1.961   3.999
 1400EOH      H 5605   3.456   1.961   4.227
 1401EOH      O 5606   6.292   3.722   6.293
 1401EOH      C 5607   6.334   3.588   6.323
 1401EOH      C 5608   6.267   3.487   6.230
 1401EOH      H 5609   6.271   3.766   6.374
 1402EOH      O 5610   1.498   3.160   4.093
 1402EOH      C 5611   1.440   3.204   3.970
 1402EOH      C 5612   1.313   3.123   3.936
 1402EOH      H 5613   1.570   3.217   4.115
 1403EOH      O 5614   5.170   3.934   1.163
 1403EOH      C 5615   5.276   4.020   1.118
 1403EOH      C 5616   5.333   3.989   0.979
 1403EOH      H 5617   5.206   3.896   1.242
 1404EOH      O 5618   4.992   1.621   3.486
 1404EOH      C 5619   4.991   1.616   3.343
 1404EOH      C 5620   4.846   1.626   3.291
 1404EOH      H 5621   4.991   1.712   3.513
 1405EOH      O 5622   1.443   6.254   1.024
 1405EOH      C 5623   1.338   6.255   1.121
 1405EOH      C 5624   1.235   6.364   1.089
 1405EOH      H 5625   1.525   6.249   1.071
 1406EOH      O 5626   2.347   5.322   6.118
 1406EOH      C 5627   2.353   5.179   6.118
 1406EOH      C 5628   2.211   5.121   6.115
 1406EOH      H 5629   2.283   5.340   6.185
 1407EOH      O 5630   4.705   5.173   5.018
 1407EOH      C 5631   4.751   5.137   5.148
 1407EOH      C 5632   4.867   5.037   5.131
 1407EOH      H 5633   4.613   5.155   5.011
 1408EOH      O 5634   3.707   6.141   3.123
 1408EOH      C 5635   3.802   6.146   3.016
 1408EOH      C 5636   3.840   5.999   2.988
 1408EOH      H 5637   3.641   6.208   3.115
 1409EOH      O 5638   2.529   5.810   1.509
 1409EOH      C 5639   2.542   5.746   1.382
 1409EOH      C 5640   2.521   5.594   1.367
 1409EOH      H 5641   2.611   5.805   1.556
 1410EOH      O 5642   0.500   4.647   0.404
 1410EOH      C 5643   0.543   4.756   0.323
 1410EOH      C 5644   0.450   4.878   0.336
 1410EOH      H 5645   0.407   4.629   0.395
 1411EOH      O 5646   0.028   3.889   4.829
 1411EOH      C 5647   0.130   3.869   4.732
 1411EOH      C 5648   0.218   3.996   4.742
 1411EOH      H 5649  -0.009   3.806   4.857
 1412EOH      O 5650   5.607   4.996   5.629
 1412EOH      C 5651   5.699   4.892   5.595
 1412EOH      C 5652   5.699   4.890   5.441
 1412EOH      H 5653   5.654   5.070   5.664
 1413EOH      O 5654   4.396   0.509   0.737
 1413EOH      C 5655   4.263   0.547   0.772
 1413EOH      C 5656   4.263   0.590   0.920
 1413EOH      H 5657   4.436   0.583   0.693
 1414EOH      O 5658   0.459   5.270   5.055
 1414EOH      C 5659   0.595   5.247   5.015
 1414EOH      C 5660   0.576   5.115   4.937
 1414EOH      H 5661   0.414   5.298   4.978
 1415EOH      O 5662   3.052   3.805   3.856
 1415EOH      C 5663   2.914   3.790   3.821
 1415EOH      C 5664   2.895   3.806   3.669
 1415EOH      H 5665   3.071   3.728   3.906
 1416EOH      O 5666   0.065   0.009   1.923
 1416EOH      C 5667   0.044   0.143   1.878
 1416EOH      C 5668   0.130   0.166   1.752
 1416EOH      H 5669   0.158   0.005   1.940
 1417EOH      O 5670   3.784   4.569   4.243
 1417EOH      C 5671   3.777   4.706   4.282
 1417EOH      C 5672   3.794   4.727   4.434
 1417EOH      H 5673   3.698   4.530   4.246
 1418EOH      O 5674   6.070   4.260   5.230
 1418EOH      C 5675   5.946   4.190   5.219
 1418EOH      C 5676   5.936   4.128   5.078
 1418EOH      H 5677   6.138   4.196   5.212
 1419EOH      O 5678   5.476   4.419   1.832
 1419EOH      C 5679   5.597   4.454   1.765
 1419EOH      C 5680   5.577   4.570   1.665
 1419EOH      H 5681   5.485   4.390   1.921
 1420EOH      O 5682   5.444   4.685   3.869
 1420EOH      C 5683   5.409   4.632   3.997
 1420EOH      C 5684   5.304   4.729   4.053
 1420EOH      H 5685   5.508   4.630   3.827
 1421EOH      O 5686   4.131   3.368   5.315
 1421EOH      C 5687   4.233   3.293   5.250
 1421EOH      C 5688   4.307   3.204   5.352
 1421EOH      H 5689   4.153   3.442   5.369
 1422EOH      O 5690   5.261   1.469   6.006
 1422EOH      C 5691   5.314   1.601   5.990
 1422EOH      C 5692   5.454   1.603   5.926
 1422EOH      H 5693   5.330   1.413   6.040
 1423EOH      O 5694   3.113   1.732   1.718
 1423EOH      C 5695   2.995   1.802   1.759
 1423EOH      C 5696   3.021   1.954   1.752
 1423EOH      H 5697   3.099   1.644   1.750
 1424EOH      O 5698   5.673   2.687   0.657
 1424EOH      C 5699   5.802   2.626   0.645
 1424EOH      C 5700   5.835   2.546   0.773
 1424EOH      H 5701   5.616   2.611   0.661
 1425EOH      O 5702   5.622   3.586   5.557
 1425EOH      C 5703   5.508   3.638   5.625
 1425EOH      C 5704   5.563   3.740   5.727
 1425EOH      H 5705   5.602   3.494   5.557
 1426EOH      O 5706   2.280   5.693   4.622
 1426EOH      C 5707   2.212   5.789   4.703
 1426EOH      C 5708   2.296   5.917   4.703
 1426EOH      H 5709   2.219   5.661   4.558
 1427EOH      O 5710   2.147   2.261   5.384
 1427EOH      C 5711   2.281   2.263   5.433
 1427EOH      C 5712   2.298   2.343   5.564
 1427EOH      H 5713   2.144   2.222   5.298
 1428EOH      O 5714   2.898   4.990   4.842
 1428EOH      C 5715   3.006   5.002   4.936
 1428EOH      C 5716   3.138   4.957   4.871
 1428EOH      H 5717   2.834   4.929   4.875
 1429EOH      O 5718   0.696   0.993   5.133
 1429EOH      C 5719   0.734   1.130   5.138
 1429EOH      C 5720   0.735   1.199   5.001
 1429EOH      H 5721   0.758   0.951   5.074
 1430EOH      O 5722   2.966   2.169   5.770
 1430EOH      C 5723   3.075   2.102   5.708
 1430EOH      C 5724   3.105   2.183   5.580
 1430EOH      H 5725   2.897   2.105   5.764
 1431EOH      O 5726   0.930   1.637   5.026
 1431EOH      C 5727   0.896   1.525   5.109
 1431EOH      C 5728   0.894   1.590   5.248
 1431EOH      H 5729   0.850   1.686   5.020
 1432EOH      O 5730   4.784   2.161   1.946
 1432EOH      C 5731   4.798   2.106   2.077
 1432EOH      C 5732   4.702   1.989   2.102
 1432EOH      H 5733   4.859   2.142   1.891
 1433EOH      O 5734   5.058   1.926   5.554
 1433EOH      C 5735   5.015   1.841   5.447
 1433EOH      C 5736   5.130   1.775   5.368
 1433EOH      H 5737   5.031   1.896   5.639
 1434EOH      O 5738   3.121   1.443   2.863
 1434EOH      C 5739   3.232   1.383   2.930
 1434EOH      C 5740   3.230   1.233   2.897
 1434EOH      H 5741   3.119   1.410   2.775
 1435EOH      O 5742   4.683   3.943   0.392
 1435EOH      C 5743   4.642   4.057   0.316
 1435EOH      C 5744   4.767   4.132   0.268
 1435EOH      H 5745   4.610   3.897   0.430
 1436EOH      O 5746   4.219   1.829   5.863
 1436EOH      C 5747   4.217   1.731   5.968
 1436EOH      C 5748   4.356   1.674   6.006
 1436EOH      H 5749   4.133   1.850   5.831
 1437EOH      O 5750   3.778   1.570   4.810
 1437EOH      C 5751   3.641   1.529   4.805
 1437EOH      C 5752   3.606   1.478   4.664
 1437EOH      H 5753   3.783   1.632   4.881
 1438EOH      O 5754   3.976   4.282   4.947
 1438EOH      C 5755   4.081   4.364   5.001
 1438EOH      C 5756   4.035   4.438   5.127
 1438EOH      H 5757   3.973   4.268   4.853
 1439EOH      O 5758   3.554   4.743   3.807
 1439EOH      C 5759   3.604   4.772   3.937
 1439EOH      C 5760   3.757   4.758   3.924
 1439EOH      H 5761   3.483   4.800   3.780
 1440EOH      O 5762   3.282   0.098   0.617
 1440EOH      C 5763   3.226  -0.005   0.698
 1440EOH      C 5764   3.078  -0.032   0.668
 1440EOH      H 5765   3.316   0.160   0.680
 1441EOH      O 5766   1.793   1.827   2.517
 1441EOH      C 5767   1.862   1.952   2.506
 1441EOH      C 5768   1.766   2.068   2.539
 1441EOH      H 5769   1.765   1.821   2.607
 1442EOH      O 5770   4.594   3.741   3.660
 1442EOH      C 5771   4.647   3.715   3.530
 1442EOH      C 5772   4.527   3.731   3.436
 1442EOH      H 5773   4.571   3.656   3.694
 1443EOH      O 5774   6.067   3.311   3.134
 1443EOH      C 5775   6.088   3.196   3.216
 1443EOH      C 5776   6.082   3.245   3.362
 1443EOH      H 5777   6.032   3.278   3.053
 1444EOH      O 5778   0.199   3.298   3.018
 1444EOH      C 5779   0.126   3.180   2.983
 1444EOH      C 5780   0.179   3.117   2.853
 1444EOH      H 5781   0.165   3.325   3.102
 1445EOH      O 5782   2.598   2.675   3.577
 1445EOH      C 5783   2.572   2.624   3.446
 1445EOH      C 5784   2.605   2.728   3.337
 1445EOH      H 5785   2.596   2.602   3.636
 1446EOH      O 5786   2.671   3.616   2.455
 1446EOH      C 5787   2.654   3.577   2.319
 1446EOH      C 5788   2.566   3.694   2.272
 1446EOH      H 5789   2.663   3.542   2.513
 1447EOH      O 5790   1.277   5.516   2.093
 1447EOH      C 5791   1.270   5.622   1.997
 1447EOH      C 5792   1.353   5.578   1.875
 1447EOH      H 5793   1.360   5.525   2.136
 1448EOH      O 5794   3.494   2.194   2.634
 1448EOH      C 5795   3.585   2.303   2.648
 1448EOH      C 5796   3.485   2.420   2.663
 1448EOH      H 5797   3.495   2.173   2.542
 1449EOH      O 5798   5.852   3.954   2.365
 1449EOH      C 5799   5.883   3.866   2.256
 1449EOH      C 5800   5.794   3.902   2.135
 1449EOH      H 5801   5.925   3.943   2.424
 1450EOH      O 5802   2.022   5.480   1.683
 1450EOH      C 5803   2.027   5.415   1.556
 1450EOH      C 5804   2.008   5.517   1.442
 1450EOH      H 5805   2.064   5.429   1.750
 1451EOH      O 5806   3.291   5.473   6.161
 1451EOH      C 5807   3.351   5.374   6.244
 1451EOH      C 5808   3.498   5.416   6.266
 1451EOH      H 5809   3.209   5.437   6.132
 1452EOH      O 5810   4.154   3.108   1.118
 1452EOH      C 5811   4.119   3.207   1.021
 1452EOH      C 5812   4.206   3.199   0.894
 1452EOH      H 5813   4.225   3.125   1.178
 1453EOH      O 5814   0.168   1.546   5.364
 1453EOH      C 5815   0.144   1.556   5.504
 1453EOH      C 5816   0.149   1.707   5.537
 1453EOH      H 5817   0.124   1.466   5.339
 1454EOH      O 5818   4.431   4.298   5.665
 1454EOH      C 5819   4.460   4.382   5.777
 1454EOH      C 5820   4.355   4.374   5.889
 1454EOH      H 5821   4.435   4.352   5.588
 1455EOH      O 5822   4.496   3.025   3.666
 1455EOH      C 5823   4.498   2.912   3.578
 1455EOH      C 5824   4.438   2.959   3.444
 1455EOH      H 5825   4.505   2.988   3.753
 1456EOH      O 5826   5.971   2.064   2.733
 1456EOH      C 5827   5.885   2.139   2.646
 1456EOH      C 5828   5.751   2.154   2.720
 1456EOH      H 5829   6.053   2.050   2.688
 1457EOH      O 5830   4.646   4.803   5.849
 1457EOH      C 5831   4.559   4.743   5.945
 1457EOH      C 5832   4.417   4.779   5.900
 1457EOH      H 5833   4.604   4.875   5.804
 1458EOH      O 5834   4.585   0.261   2.965
 1458EOH      C 5835   4.531   0.253   2.833
 1458EOH      C 5836   4.642   0.275   2.728
 1458EOH      H 5837   4.678   0.275   2.968
 1459EOH      O 5838   3.181   4.050   2.942
 1459EOH      C 5839   3.295   4.025   2.860
 1459EOH      C 5840   3.296   4.116   2.735
 1459EOH      H 5841   3.117   3.980   2.948
 1460EOH      O 5842   0.743   0.389   2.212
 1460EOH      C 5843   0.777   0.504   2.135
 1460EOH      C 5844   0.754   0.636   2.212
 1460EOH      H 5845   0.770   0.310   2.166
 1461EOH      O 5846   3.790   2.929   2.510
 1461EOH      C 5847   3.707   2.928   2.627
 1461EOH      C 5848   3.782   2.848   2.735
 1461EOH      H 5849   3.773   2.852   2.458
 1462EOH      O 5850   5.464   0.105   1.833
 1462EOH      C 5851   5.505   0.213   1.917
 1462EOH      C 5852   5.525   0.350   1.848
 1462EOH      H 5853   5.533   0.093   1.770
 1463EOH      O 5854   6.104   1.180   4.587
 1463EOH      C 5855   6.240   1.154   4.624
 1463EOH      C 5856   6.263   1.001   4.624
 1463EOH      H 5857   6.071   1.100   4.549
 1464EOH      O 5858   2.087   3.485   2.840
 1464EOH      C 5859   2.016   3.438   2.955
 1464EOH      C 5860   1.869   3.484   2.957
 1464EOH      H 5861   2.173   3.512   2.870
 1465EOH      O 5862   2.306   0.382   1.288
 1465EOH      C 5863   2.396   0.491   1.310
 1465EOH      C 5864   2.320   0.612   1.368
 1465EOH      H 5865   2.226   0.413   1.328
 1466EOH      O 5866   2.159   2.998   4.641
 1466EOH      C 5867   2.181   3.052   4.510
 1466EOH      C 5868   2.073   3.002   4.412
 1466EOH      H 5869   2.218   2.923   4.644
 1467EOH      O 5870   5.033   3.258   0.003
 1467EOH      C 5871   5.082   3.126   0.027
 1467EOH      C 5872   5.124   3.128   0.175
 1467EOH      H 5873   4.961   3.252  -0.058
 1468EOH      O 5874   3.261   0.602   1.024
 1468EOH      C 5875   3.150   0.692   1.026
 1468EOH      C 5876   3.168   0.780   1.151
 1468EOH      H 5877   3.231   0.514   1.005
 1469EOH      O 5878   5.840   1.463   2.430
 1469EOH      C 5879   5.798   1.569   2.344
 1469EOH      C 5880   5.920   1.632   2.274
 1469EOH      H 5881   5.831   1.382   2.381
 1470EOH      O 5882   3.283   4.564   2.744
 1470EOH      C 5883   3.213   4.688   2.730
 1470EOH      C 5884   3.288   4.775   2.627
 1470EOH      H 5885   3.264   4.527   2.829
 1471EOH      O 5886   4.880   1.291   5.617
 1471EOH      C 5887   4.868   1.347   5.486
 1471EOH      C 5888   4.716   1.366   5.464
 1471EOH      H 5889   4.959   1.326   5.653
 1472EOH      O 5890   3.920   0.613   2.356
 1472EOH      C 5891   3.910   0.519   2.462
 1472EOH      C 5892   3.955   0.591   2.591
 1472EOH      H 5893   3.831   0.630   2.332
 1473EOH      O 5894   4.132   1.743   1.558
 1473EOH      C 5895   4.158   1.748   1.417
 1473EOH      C 5896   4.044   1.672   1.346
 1473EOH      H 5897   4.212   1.773   1.598
 1474EOH      O 5898   4.646   4.787   4.285
 1474EOH      C 5899   4.736   4.842   4.189
 1474EOH      C 5900   4.848   4.921   4.259
 1474EOH      H 5901   4.619   4.701   4.255
 1475EOH      O 5902   0.881   2.049   2.265
 1475EOH      C 5903   0.977   2.142   2.214
 1475EOH      C 5904   0.914   2.276   2.171
 1475EOH      H 5905   0.921   1.963   2.260
 1476EOH      O 5906   4.125   1.340   2.935
 1476EOH      C 5907   4.181   1.471   2.949
 1476EOH      C 5908   4.237   1.474   3.092
 1476EOH      H 5909   4.088   1.342   2.848
 1477EOH      O 5910   2.333   1.068   1.934
 1477EOH      C 5911   2.354   0.939   1.875
 1477EOH      C 5912   2.264   0.948   1.750
 1477EOH      H 5913   2.321   1.051   2.026
 1478EOH      O 5914   5.148   0.323   0.428
 1478EOH      C 5915   5.201   0.333   0.296
 1478EOH      C 5916   5.243   0.473   0.250
 1478EOH      H 5917   5.218   0.281   0.477
 1479EOH      O 5918   5.867   0.254   4.827
 1479EOH      C 5919   5.815   0.174   4.934
 1479EOH      C 5920   5.662   0.182   4.914
 1479EOH      H 5921   5.961   0.251   4.833
 1480EOH      O 5922   0.140   2.994   4.432
 1480EOH      C 5923   0.225   3.109   4.443
 1480EOH      C 5924   0.339   3.097   4.340
 1480EOH      H 5925   0.057   3.012   4.472
 1481EOH      O 5926   0.860   0.548   1.310
 1481EOH      C 5927   0.921   0.457   1.401
 1481EOH      C 5928   1.070   0.434   1.368
 1481EOH      H 5929   0.908   0.546   1.228
 1482EOH      O 5930   0.214   1.230   1.568
 1482EOH      C 5931   0.146   1.123   1.635
 1482EOH      C 5932   0.018   1.099   1.552
 1482EOH      H 5933   0.301   1.239   1.605
 1483EOH      O 5934   1.410   0.418   1.820
 1483EOH      C 5935   1.400   0.429   1.678
 1483EOH      C 5936   1.370   0.578   1.655
 1483EOH      H 5937   1.491   0.461   1.841
 1484EOH      O 5938   4.405   1.000   1.571
 1484EOH      C 5939   4.433   0.912   1.681
 1484EOH      C 5940   4.347   0.785   1.677
 1484EOH      H 5941   4.417   1.092   1.587
 1485EOH      O 5942   1.878   6.111   4.111
 1485EOH      C 5943   1.814   6.238   4.125
 1485EOH      C 5944   1.904   6.350   4.070
 1485EOH      H 5945   1.824   6.039   4.141
 1486EOH      O 5946   5.805   0.684   0.302
 1486EOH      C 5947   5.934   0.696   0.362
 1486EOH      C 5948   6.026   0.594   0.293
 1486EOH      H 5949   5.746   0.678   0.376
 1487EOH      O 5950   0.839   0.871   3.413
 1487EOH      C 5951   0.850   0.763   3.321
 1487EOH      C 5952   0.956   0.657   3.354
 1487EOH      H 5953   0.765   0.851   3.469
 1488EOH      O 5954   4.910   3.147   4.127
 1488EOH      C 5955   4.866   3.042   4.039
 1488EOH      C 5956   4.987   3.003   3.952
 1488EOH      H 5957   4.839   3.173   4.184
 1489EOH      O 5958   2.170   3.189   1.030
 1489EOH      C 5959   2.049   3.188   0.953
 1489EOH      C 5960   2.075   3.106   0.825
 1489EOH      H 5961   2.230   3.253   0.994
 1490EOH      O 5962   6.058   5.622   6.162
 1490EOH      C 5963   5.975   5.731   6.120
 1490EOH      C 5964   5.864   5.770   6.219
 1490EOH      H 5965   6.120   5.606   6.092
 1491EOH      O 5966   4.956   2.110   4.514
 1491EOH      C 5967   5.090   2.072   4.483
 1491EOH      C 5968   5.163   2.053   4.617
 1491EOH      H 5969   4.913   2.142   4.436
 1492EOH      O 5970   4.333   4.055   0.323
 1492EOH      C 5971   4.205   4.077   0.264
 1492EOH      C 5972   4.114   4.078   0.388
 1492EOH      H 5973   4.353   4.129   0.378
 1493EOH      O 5974   4.801   3.555   6.074
 1493EOH      C 5975   4.781   3.640   5.961
 1493EOH      C 5976   4.729   3.550   5.847
 1493EOH      H 5977   4.828   3.608   6.148
 1494EOH      O 5978   3.127   2.833   0.831
 1494EOH      C 5979   3.101   2.883   0.700
 1494EOH      C 5980   3.153   2.771   0.608
 1494EOH      H 5981   3.052   2.861   0.881
 1495EOH      O 5982   1.869   4.147   3.619
 1495EOH      C 5983   1.732   4.137   3.660
 1495EOH      C 5984   1.709   4.004   3.734
 1495EOH      H 5985   1.906   4.224   3.660
 1496EOH      O 5986   4.654   4.049   1.983
 1496EOH      C 5987   4.549   3.971   2.042
 1496EOH      C 5988   4.610   3.853   2.120
 1496EOH      H 5989   4.712   3.989   1.940
 1497EOH      O 5990   3.741   3.508   2.707
 1497EOH      C 5991   3.851   3.540   2.793
 1497EOH      C 5992   3.851   3.691   2.822
 1497EOH      H 5993   3.763   3.527   2.617
 1498EOH      O 5994   5.275   1.568   0.565
 1498EOH      C 5995   5.316   1.434   0.594
 1498EOH      C 5996   5.469   1.429   0.578
 1498EOH      H 5997   5.181   1.579   0.560
 1499EOH      O 5998   3.866   6.111   1.568
 1499EOH      C 5999   3.942   5.990   1.554
 1499EOH      C 6000   3.946   5.960   1.403
 1499EOH      H 6001   3.855   6.133   1.659
 1500EOH      O 6002   0.922   2.799   0.087
 1500EOH      C 6003   0.894   2.860  -0.039
 1500EOH      C 6004   1.011   2.848  -0.139
 1500EOH      H 6005   0.846   2.810   0.143
 1501EOH      O 6006   5.011   0.754   5.055
 1501EOH      C 6007   5.151   0.779   5.038
 1501EOH      C 6008   5.196   0.926   5.047
 1501EOH      H 6009   4.992   0.677   5.003
 1502EOH      O 6010   1.355   6.277   0.780
 1502EOH      C 6011   1.416   6.397   0.734
 1502EOH      C 6012   1.314   6.479   0.652
 1502EOH      H 6013   1.374   6.272   0.873
 1503EOH      O 6014   2.946   0.317   1.818
 1503EOH      C 6015   2.912   0.335   1.956
 1503EOH      C 6016   2.832   0.214   2.009
 1503EOH      H 6017   3.005   0.383   1.786
 1504EOH      O 6018   2.301   0.209   3.500
 1504EOH      C 6019   2.239   0.269   3.386
 1504EOH      C 6020   2.342   0.265   3.271
 1504EOH      H 6021   2.251   0.221   3.579
 1505EOH      O 6022   3.095   4.278   3.031
 1505EOH      C 6023   2.963   4.271   3.086
 1505EOH      C 6024   2.959   4.337   3.225
 1505EOH      H 6025   3.115   4.192   2.998
 1506EOH      O 6026   1.376   4.016   1.776
 1506EOH      C 6027   1.515   4.007   1.807
 1506EOH      C 6028   1.591   3.975   1.677
 1506EOH      H 6029   1.352   3.953   1.709
 1507EOH      O 6030   3.795   5.807   1.894
 1507EOH      C 6031   3.684   5.730   1.847
 1507EOH      C 6032   3.697   5.692   1.698
 1507EOH      H 6033   3.833   5.754   1.962
 1508EOH      O 6034   0.207   4.120   5.862
 1508EOH      C 6035   0.291   4.006   5.877
 1508EOH      C 6036   0.334   3.979   6.023
 1508EOH      H 6037   0.137   4.117   5.926
 1509EOH      O 6038   3.540   4.560   6.094
 1509EOH      C 6039   3.578   4.595   6.228
 1509EOH      C 6040   3.489   4.700   6.298
 1509EOH      H 6041   3.533   4.466   6.098
 1510EOH      O 6042   5.801   0.998   5.405
 1510EOH      C 6043   5.785   1.067   5.280
 1510EOH      C 6044   5.871   1.006   5.169
 1510EOH      H 6045   5.781   0.907   5.393
 1511EOH      O 6046   0.867   0.189   2.115
 1511EOH      C 6047   0.789   0.078   2.069
 1511EOH      C 6048   0.678   0.072   2.176
 1511EOH      H 6049   0.918   0.207   2.037
 1512EOH      O 6050   1.267   1.840   4.929
 1512EOH      C 6051   1.164   1.939   4.942
 1512EOH      C 6052   1.184   2.031   5.064
 1512EOH      H 6053   1.220   1.767   4.893
 1513EOH      O 6054   1.423   1.467   0.749
 1513EOH      C 6055   1.437   1.505   0.612
 1513EOH      C 6056   1.443   1.386   0.515
 1513EOH      H 6057   1.439   1.546   0.798
 1514EOH      O 6058   2.777   1.122   3.245
 1514EOH      C 6059   2.780   0.999   3.172
 1514EOH      C 6060   2.907   0.976   3.088
 1514EOH      H 6061   2.779   1.102   3.337
 1515EOH      O 6062   1.912   0.564   2.776
 1515EOH      C 6063   1.797   0.528   2.853
 1515EOH      C 6064   1.847   0.516   2.998
 1515EOH      H 6065   1.886   0.575   2.686
 1516EOH      O 6066   0.985   3.253   4.641
 1516EOH      C 6067   0.881   3.180   4.575
 1516EOH      C 6068   0.800   3.102   4.681
 1516EOH      H 6069   1.047   3.288   4.579
 1517EOH      O 6070   0.009   1.749   0.425
 1517EOH      C 6071  -0.099   1.843   0.424
 1517EOH      C 6072  -0.048   1.963   0.505
 1517EOH      H 6073  -0.022   1.675   0.375
 1518EOH      O 6074   2.581   3.756   6.106
 1518EOH      C 6075   2.690   3.725   6.193
 1518EOH      C 6076   2.798   3.834   6.181
 1518EOH      H 6077   2.500   3.714   6.132
 1519EOH      O 6078   4.255   1.265   3.595
 1519EOH      C 6079   4.251   1.344   3.475
 1519EOH      C 6080   4.137   1.446   3.489
 1519EOH      H 6081   4.283   1.314   3.671
 1520EOH      O 6082   1.134   4.985   4.123
 1520EOH      C 6083   1.110   5.073   4.012
 1520EOH      C 6084   1.216   5.042   3.906
 1520EOH      H 6085   1.058   4.980   4.178
 1521EOH      O 6086   5.424   5.850   1.898
 1521EOH      C 6087   5.443   5.794   1.767
 1521EOH      C 6088   5.415   5.902   1.661
 1521EOH      H 6089   5.423   5.776   1.956
 1522EOH      O 6090   6.220   4.718   2.393
 1522EOH      C 6091   6.157   4.845   2.407
 1522EOH      C 6092   6.065   4.885   2.290
 1522EOH      H 6093   6.254   4.688   2.476
 1523EOH      O 6094   3.409   1.132   4.041
 1523EOH      C 6095   3.365   1.257   3.988
 1523EOH      C 6096   3.438   1.282   3.855
 1523EOH      H 6097   3.359   1.116   4.120
 1524EOH      O 6098   1.543   0.594   1.368
 1524EOH      C 6099   1.470   0.644   1.255
 1524EOH      C 6100   1.344   0.720   1.300
 1524EOH      H 6101   1.569   0.670   1.418
 1525EOH      O 6102   5.016   5.781   4.587
 1525EOH      C 6103   5.005   5.657   4.516
 1525EOH      C 6104   5.060   5.539   4.597
 1525EOH      H 6105   4.957   5.777   4.660
 1526EOH      O 6106   4.986   0.871   2.378
 1526EOH      C 6107   5.095   0.818   2.454
 1526EOH      C 6108   5.050   0.783   2.596
 1526EOH      H 6109   4.962   0.961   2.396
 1527EOH      O 6110   2.222   4.144   4.813
 1527EOH      C 6111   2.316   4.232   4.750
 1527EOH      C 6112   2.275   4.275   4.608
 1527EOH      H 6113   2.246   4.124   4.903
 1528EOH      O 6114   5.570   2.955   1.395
 1528EOH      C 6115   5.551   3.010   1.264
 1528EOH      C 6116   5.501   2.901   1.168
 1528EOH      H 6117   5.587   2.864   1.378
 1529EOH      O 6118   3.739   2.274   2.941
 1529EOH      C 6119   3.758   2.139   2.985
 1529EOH      C 6120   3.679   2.042   2.895
 1529EOH      H 6121   3.826   2.307   2.925
 1530EOH      O 6122   3.875   3.806   2.382
 1530EOH      C 6123   4.006   3.838   2.336
 1530EOH      C 6124   4.074   3.724   2.257
 1530EOH      H 6125   3.842   3.868   2.445
 1531EOH      O 6126   2.176   5.872   1.846
 1531EOH      C 6127   2.064   5.783   1.858
 1531EOH      C 6128   1.928   5.848   1.885
 1531EOH      H 6129   2.239   5.829   1.789
 1532EOH      O 6130   1.931   2.658   2.780
 1532EOH      C 6131   1.957   2.577   2.665
 1532EOH      C 6132   1.854   2.462   2.662
 1532EOH      H 6133   1.948   2.608   2.858
 1533EOH      O 6134   1.336   1.736   0.097
 1533EOH      C 6135   1.250   1.767   0.208
 1533EOH      C 6136   1.172   1.889   0.154
 1533EOH      H 6137   1.297   1.659   0.059
 1534EOH      O 6138   4.809   2.645   5.957
 1534EOH      C 6139   4.849   2.527   5.887
 1534EOH      C 6140   4.729   2.430   5.887
 1534EOH      H 6141   4.806   2.719   5.899
 1535EOH      O 6142   5.470   0.818   4.281
 1535EOH      C 6143   5.480   0.930   4.192
 1535EOH      C 6144   5.629   0.933   4.153
 1535EOH      H 6145   5.466   0.739   4.229
 1536EOH      O 6146   0.507   1.117   1.858
 1536EOH      C 6147   0.458   1.141   1.990
 1536EOH      C 6148   0.486   1.282   2.045
 1536EOH      H 6149   0.565   1.043   1.868
 1537EOH      O 6150   1.325   3.539   1.872
 1537EOH      C 6151   1.421   3.556   1.977
 1537EOH      C 6152   1.406   3.696   2.041
 1537EOH      H 6153   1.251   3.509   1.922
 1538EOH      O 6154   5.260   2.102   5.549
 1538EOH      C 6155   5.238   2.217   5.467
 1538EOH      C 6156   5.114   2.297   5.512
 1538EOH      H 6157   5.177   2.056   5.543
 1539EOH      O 6158   3.658   0.418   6.192
 1539EOH      C 6159   3.751   0.480   6.282
 1539EOH      C 6160   3.742   0.633   6.272
 1539EOH      H 6161   3.698   0.407   6.108
 1540EOH      O 6162   4.335   3.854   1.651
 1540EOH      C 6163   4.459   3.877   1.583
 1540EOH      C 6164   4.455   3.975   1.465
 1540EOH      H 6165   4.303   3.935   1.689
 1541EOH      O 6166   0.823   3.646   4.364
 1541EOH      C 6167   0.910   3.569   4.447
 1541EOH      C 6168   0.863   3.584   4.592
 1541EOH      H 6169   0.869   3.726   4.348
 1542EOH      O 6170   0.145   3.746   4.082
 1542EOH      C 6171   0.202   3.698   4.204
 1542EOH      C 6172   0.202   3.810   4.309
 1542EOH      H 6173   0.184   3.702   4.008
 1543EOH      O 6174   0.931   2.591   2.904
 1543EOH      C 6175   0.816   2.675   2.906
 1543EOH      C 6176   0.697   2.617   2.827
 1543EOH      H 6177   0.994   2.644   2.950
 1544EOH      O 6178   1.523   0.802   5.419
 1544EOH      C 6179   1.549   0.916   5.502
 1544EOH      C 6180   1.686   0.983   5.480
 1544EOH      H 6181   1.430   0.787   5.421
 1545EOH      O 6182   2.888   6.084   3.578
 1545EOH      C 6183   2.984   6.108   3.682
 1545EOH      C 6184   3.083   5.990   3.686
 1545EOH      H 6185   2.926   6.094   3.492
 1546EOH      O 6186   0.377   1.332   4.168
 1546EOH      C 6187   0.331   1.444   4.244
 1546EOH      C 6188   0.201   1.495   4.179
 1546EOH      H 6189   0.435   1.362   4.099
 1547EOH      O 6190   1.552   5.390   0.564
 1547EOH      C 6191   1.509   5.426   0.432
 1547EOH      C 6192   1.395   5.529   0.444
 1547EOH      H 6193   1.567   5.466   0.619
 1548EOH      O 6194   2.008   5.109   4.870
 1548EOH      C 6195   1.869   5.140   4.873
 1548EOH      C 6196   1.837   5.271   4.799
 1548EOH      H 6197   2.008   5.015   4.876
 1549EOH      O 6198   1.929   5.048   2.600
 1549EOH      C 6199   1.798   4.999   2.570
 1549EOH      C 6200   1.804   4.861   2.503
 1549EOH      H 6201   1.964   4.993   2.668
 1550EOH      O 6202   1.983   5.974   0.142
 1550EOH      C 6203   1.978   5.903   0.266
 1550EOH      C 6204   2.063   5.777   0.240
 1550EOH      H 6205   1.904   6.025   0.134
 1551EOH      O 6206   1.519   0.156   3.204
 1551EOH      C 6207   1.497   0.273   3.125
 1551EOH      C 6208   1.483   0.381   3.235
 1551EOH      H 6209   1.487   0.078   3.160
 1552EOH      O 6210   1.877   2.068   3.708
 1552EOH      C 6211   1.988   2.092   3.795
 1552EOH      C 6212   1.930   2.111   3.936
 1552EOH      H 6213   1.906   2.003   3.645
 1553EOH      O 6214   3.297   3.274   2.262
 1553EOH      C 6215   3.259   3.401   2.207
 1553EOH      C 6216   3.177   3.379   2.078
 1553EOH      H 6217   3.336   3.220   2.195
 1554EOH      O 6218   2.771   1.603   3.834
 1554EOH      C 6219   2.682   1.497   3.799
 1554EOH      C 6220   2.625   1.429   3.925
 1554EOH      H 6221   2.842   1.611   3.772
 1555EOH      O 6222   0.219   4.540   1.075
 1555EOH      C 6223   0.313   4.568   0.971
 1555EOH      C 6224   0.395   4.693   1.010
 1555EOH      H 6225   0.202   4.447   1.073
 1556EOH      O 6226   4.085   5.065   0.281
 1556EOH      C 6227   4.124   5.015   0.409
 1556EOH      C 6228   4.050   5.066   0.534
 1556EOH      H 6229   4.162   5.070   0.226
 1557EOH      O 6230   5.637   1.288   5.862
 1557EOH      C 6231   5.772   1.322   5.894
 1557EOH      C 6232   5.830   1.406   5.778
 1557EOH      H 6233   5.639   1.221   5.796
 1558EOH      O 6234   2.682   4.315   4.276
 1558EOH      C 6235   2.707   4.300   4.416
 1558EOH      C 6236   2.768   4.414   4.499
 1558EOH      H 6237   2.649   4.402   4.263
 1559EOH      O 6238   2.877   6.048   2.729
 1559EOH      C 6239   2.979   6.036   2.828
 1559EOH      C 6240   2.987   5.889   2.871
 1559EOH      H 6241   2.868   6.142   2.720
 1560EOH      O 6242   2.601   3.100   0.521
 1560EOH      C 6243   2.682   3.210   0.479
 1560EOH      C 6244   2.645   3.329   0.570
 1560EOH      H 6245   2.605   3.029   0.459
 1561EOH      O 6246   1.949   1.845   3.578
 1561EOH      C 6247   1.942   1.843   3.436
 1561EOH      C 6248   1.907   1.986   3.391
 1561EOH      H 6249   1.983   1.760   3.600
 1562EOH      O 6250   2.716   3.198   4.503
 1562EOH      C 6251   2.776   3.232   4.628
 1562EOH      C 6252   2.731   3.135   4.739
 1562EOH      H 6253   2.788   3.161   4.454
 1563EOH      O 6254   2.355   4.526   0.796
 1563EOH      C 6255   2.235   4.591   0.755
 1563EOH      C 6256   2.282   4.727   0.703
 1563EOH      H 6257   2.373   4.546   0.887
 1564EOH      O 6258   3.609   1.327   5.530
 1564EOH      C 6259   3.741   1.355   5.576
 1564EOH      C 6260   3.747   1.357   5.730
 1564EOH      H 6261   3.619   1.317   5.437
 1565EOH      O 6262   0.976   4.068   1.915
 1565EOH      C 6263   0.955   3.928   1.902
 1565EOH      C 6264   0.830   3.893   1.819
 1565EOH      H 6265   1.068   4.090   1.911
 1566EOH      O 6266   2.327   4.574   5.711
 1566EOH      C 6267   2.457   4.525   5.681
 1566EOH      C 6268   2.487   4.399   5.764
 1566EOH      H 6269   2.339   4.630   5.786
 1567EOH      O 6270   4.468   4.382   6.258
 1567EOH      C 6271   4.537   4.256   6.253
 1567EOH      C 6272   4.510   4.171   6.128
 1567EOH      H 6273   4.523   4.437   6.204
 1568EOH      O 6274   6.140   2.523   3.893
 1568EOH      C 6275   6.029   2.445   3.847
 1568EOH      C 6276   6.056   2.298   3.886
 1568EOH      H 6277   6.119   2.613   3.873
 1569EOH      O 6278   3.820   4.159   5.146
 1569EOH      C 6279   3.727   4.071   5.083
 1569EOH      C 6280   3.794   4.033   4.949
 1569EOH      H 6281   3.865   4.211   5.080
 1570EOH      O 6282   3.032   6.236   5.382
 1570EOH      C 6283   3.062   6.124   5.299
 1570EOH      C 6284   3.202   6.152   5.241
 1570EOH      H 6285   2.938   6.245   5.369
 1571EOH      O 6286   3.417   0.147   4.541
 1571EOH      C 6287   3.496   0.177   4.657
 1571EOH      C 6288   3.639   0.121   4.650
 1571EOH      H 6289   3.401   0.055   4.529
 1572EOH      O 6290   6.065   3.918   2.503
 1572EOH      C 6291   6.111   3.884   2.635
 1572EOH      C 6292   6.195   3.756   2.624
 1572EOH      H 6293   6.134   3.969   2.464
 1573EOH      O 6294   5.516   6.049   2.002
 1573EOH      C 6295   5.524   6.009   2.139
 1573EOH      C 6296   5.576   6.124   2.226
 1573EOH      H 6297   5.455   5.988   1.963
 1574EOH      O 6298   6.215   0.518   5.863
 1574EOH      C 6299   6.170   0.583   5.744
 1574EOH      C 6300   6.032   0.644   5.776
 1574EOH      H 6301   6.191   0.569   5.939
 1575EOH      O 6302   0.766   5.480   4.019
 1575EOH      C 6303   0.814   5.428   3.895
 1575EOH      C 6304   0.806   5.276   3.918
 1575EOH      H 6305   0.680   5.443   4.036
 1576EOH      O 6306   0.437   0.912   3.452
 1576EOH      C 6307   0.424   1.045   3.403
 1576EOH      C 6308   0.516   1.122   3.501
 1576EOH      H 6309   0.375   0.898   3.523
 1577EOH      O 6310   2.481   4.911   2.434
 1577EOH      C 6311   2.372   4.881   2.346
 1577EOH      C 6312   2.406   4.939   2.207
 1577EOH      H 6313   2.548   4.846   2.420
 1578EOH      O 6314   4.445   4.498   3.319
 1578EOH      C 6315   4.520   4.480   3.439
 1578EOH      C 6316   4.671   4.482   3.409
 1578EOH      H 6317   4.379   4.430   3.308
 1579EOH      O 6318   3.062   3.641   5.684
 1579EOH      C 6319   3.093   3.708   5.807
 1579EOH      C 6320   2.980   3.698   5.911
 1579EOH      H 6321   3.124   3.644   5.613
 1580EOH      O 6322   3.186   5.211   2.056
 1580EOH      C 6323   3.255   5.132   2.153
 1580EOH      C 6324   3.221   5.170   2.299
 1580EOH      H 6325   3.238   5.226   1.979
 1581EOH      O 6326   4.099   2.243   5.764
 1581EOH      C 6327   4.018   2.267   5.880
 1581EOH      C 6328   4.087   2.223   6.010
 1581EOH      H 6329   4.121   2.331   5.737
 1582EOH      O 6330   4.691   4.761   0.900
 1582EOH      C 6331   4.638   4.635   0.942
 1582EOH      C 6332   4.702   4.527   0.852
 1582EOH      H 6333   4.761   4.782   0.959
 1583EOH      O 6334   4.585   0.093   0.021
 1583EOH      C 6335   4.709   0.081   0.090
 1583EOH      C 6336   4.755  -0.064   0.113
 1583EOH      H 6337   4.532   0.167   0.047
 1584EOH      O 6338   5.702   4.768   1.195
 1584EOH      C 6339   5.815   4.815   1.120
 1584EOH      C 6340   5.794   4.960   1.073
 1584EOH      H 6341   5.696   4.810   1.279
 1585EOH      O 6342   5.118   0.887   0.664
 1585EOH      C 6343   5.081   0.765   0.729
 1585EOH      C 6344   5.078   0.655   0.622
 1585EOH      H 6345   5.053   0.955   0.677
 1586EOH      O 6346   6.097   0.678   1.332
 1586EOH      C 6347   5.966   0.725   1.303
 1586EOH      C 6348   5.933   0.850   1.388
 1586EOH      H 6349   6.091   0.638   1.418
 1587EOH      O 6350   2.558   3.935   0.870
 1587EOH      C 6351   2.653   4.014   0.942
 1587EOH      C 6352   2.719   3.946   1.064
 1587EOH      H 6353   2.477   3.983   0.867
 1588EOH      O 6354   4.616   4.790   3.262
 1588EOH      C 6355   4.728   4.779   3.173
 1588EOH      C 6356   4.733   4.919   3.109
 1588EOH      H 6357   4.539   4.755   3.220
 1589EOH      O 6358   0.789   5.827   5.049
 1589EOH      C 6359   0.696   5.915   4.987
 1589EOH      C 6360   0.688   6.042   5.073
 1589EOH      H 6361   0.744   5.744   5.060
 1590EOH      O 6362   3.565   2.116   2.345
 1590EOH      C 6363   3.695   2.156   2.302
 1590EOH      C 6364   3.795   2.089   2.399
 1590EOH      H 6365   3.507   2.179   2.305
 1591EOH      O 6366   4.333   3.129   1.297
 1591EOH      C 6367   4.436   3.035   1.329
 1591EOH      C 6368   4.448   2.923   1.224
 1591EOH      H 6369   4.313   3.188   1.368
 1592EOH      O 6370   1.100   4.079   5.927
 1592EOH      C 6371   1.078   3.995   6.041
 1592EOH      C 6372   1.192   3.896   6.069
 1592EOH      H 6373   1.031   4.143   5.917
 1593EOH      O 6374   0.923   2.802   3.478
 1593EOH      C 6375   0.940   2.836   3.340
 1593EOH      C 6376   0.813   2.828   3.253
 1593EOH      H 6377   0.891   2.714   3.489
 1594EOH      O 6378   0.986   3.747   0.082
 1594EOH      C 6379   0.999   3.834   0.194
 1594EOH      C 6380   0.998   3.977   0.136
 1594EOH      H 6381   0.903   3.762   0.039
 1595EOH      O 6382   3.607   3.896   1.150
 1595EOH      C 6383   3.633   3.995   1.050
 1595EOH      C 6384   3.583   4.132   1.099
 1595EOH      H 6385   3.595   3.813   1.104
 1596EOH      O 6386   5.655   4.846   1.426
 1596EOH      C 6387   5.524   4.902   1.429
 1596EOH      C 6388   5.508   5.033   1.350
 1596EOH      H 6389   5.720   4.888   1.481
 1597EOH      O 6390   1.701   0.307   6.259
 1597EOH      C 6391   1.638   0.284   6.385
 1597EOH      C 6392   1.532   0.175   6.357
 1597EOH      H 6393   1.780   0.353   6.285
 1598EOH      O 6394   1.235   2.041   2.853
 1598EOH      C 6395   1.288   1.953   2.753
 1598EOH      C 6396   1.394   2.042   2.685
 1598EOH      H 6397   1.178   2.095   2.801
 1599EOH      O 6398   3.449   1.007   0.129
 1599EOH      C 6399   3.524   0.890   0.159
 1599EOH      C 6400   3.484   0.835   0.297
 1599EOH      H 6401   3.469   1.058   0.206
 1600EOH      O 6402   5.877   5.374   4.294
 1600EOH      C 6403   5.909   5.513   4.307
 1600EOH      C 6404   5.988   5.552   4.434
 1600EOH      H 6405   5.852   5.352   4.206
 1601EOH      O 6406   1.101   2.743   4.730
 1601EOH      C 6407   1.122   2.869   4.667
 1601EOH      C 6408   1.263   2.929   4.684
 1601EOH      H 6409   1.165   2.679   4.703
 1602EOH      O 6410   1.734   4.686   3.483
 1602EOH      C 6411   1.622   4.611   3.436
 1602EOH      C 6412   1.546   4.536   3.547
 1602EOH      H 6413   1.742   4.770   3.441
 1603EOH      O 6414   3.842   0.243   5.452
 1603EOH      C 6415   3.730   0.181   5.390
 1603EOH      C 6416   3.644   0.281   5.311
 1603EOH      H 6417   3.869   0.195   5.529
 1604EOH      O 6418   6.112   0.123   2.118
 1604EOH      C 6419   6.000   0.085   2.199
 1604EOH      C 6420   6.044   0.068   2.345
 1604EOH      H 6421   6.092   0.099   2.029
 1605EOH      O 6422   4.718   1.081   2.614
 1605EOH      C 6423   4.637   1.130   2.721
 1605EOH      C 6424   4.700   1.254   2.787
 1605EOH      H 6425   4.677   1.002   2.582
 1606EOH      O 6426   2.935   5.713   2.491
 1606EOH      C 6427   2.991   5.620   2.585
 1606EOH      C 6428   3.095   5.524   2.525
 1606EOH      H 6429   2.879   5.779   2.529
 1607EOH      O 6430   1.827   5.828   5.423
 1607EOH      C 6431   1.820   5.971   5.432
 1607EOH      C 6432   1.745   6.036   5.550
 1607EOH      H 6433   1.756   5.797   5.476
 1608EOH      O 6434   4.348   2.577   2.431
 1608EOH      C 6435   4.292   2.705   2.404
 1608EOH      C 6436   4.202   2.748   2.521
 1608EOH      H 6437   4.350   2.515   2.360
 1609EOH      O 6438   2.895   5.093   1.913
 1609EOH      C 6439   2.980   4.982   1.946
 1609EOH      C 6440   2.966   4.868   1.842
 1609EOH      H 6441   2.937   5.172   1.944
 1610EOH      O 6442   1.734   0.101   3.325
 1610EOH      C 6443   1.786  -0.031   3.307
 1610EOH      C 6444   1.677  -0.136   3.338
 1610EOH      H 6445   1.658   0.116   3.272
 1611EOH      O 6446   2.827   0.841   1.323
 1611EOH      C 6447   2.715   0.873   1.240
 1611EOH      C 6448   2.758   0.806   1.109
 1611EOH      H 6449   2.835   0.748   1.314
 1612EOH      O 6450   2.065   1.478   5.671
 1612EOH      C 6451   2.004   1.441   5.548
 1612EOH      C 6452   1.956   1.295   5.552
 1612EOH      H 6453   2.126   1.550   5.663
 1613EOH      O 6454   3.697   5.471   2.420
 1613EOH      C 6455   3.602   5.403   2.336
 1613EOH      C 6456   3.690   5.336   2.230
 1613EOH      H 6457   3.643   5.539   2.457
 1614EOH      O 6458   5.464   2.608   3.174
 1614EOH      C 6459   5.324   2.587   3.195
 1614EOH      C 6460   5.281   2.440   3.184
 1614EOH      H 6461   5.511   2.548   3.230
 1615EOH      O 6462   5.464   0.179   5.613
 1615EOH      C 6463   5.560   0.258   5.683
 1615EOH      C 6464   5.575   0.391   5.607
 1615EOH      H 6465   5.377   0.210   5.635
 1616EOH      O 6466   1.500   4.690   0.830
 1616EOH      C 6467   1.471   4.814   0.894
 1616EOH      C 6468   1.447   4.932   0.798
 1616EOH      H 6469   1.547   4.707   0.749
 1617EOH      O 6470   1.413   4.618   1.798
 1617EOH      C 6471   1.376   4.714   1.898
 1617EOH      C 6472   1.496   4.768   1.978
 1617EOH      H 6473   1.484   4.569   1.836
 1618EOH      O 6474   4.726   0.356   3.262
 1618EOH      C 6475   4.761   0.360   3.400
 1618EOH      C 6476   4.902   0.301   3.422
 1618EOH      H 6477   4.643   0.311   3.252
 1619EOH      O 6478   2.022   3.159   1.555
 1619EOH      C 6479   2.084   3.073   1.651
 1619EOH      C 6480   2.010   3.117   1.779
 1619EOH      H 6481   1.938   3.119   1.536
 1620EOH      O 6482   6.294   3.075   3.711
 1620EOH      C 6483   6.161   3.124   3.731
 1620EOH      C 6484   6.153   3.277   3.740
 1620EOH      H 6485   6.317   3.024   3.787
 1621EOH      O 6486   2.878   2.801   0.967
 1621EOH      C 6487   2.865   2.836   1.105
 1621EOH      C 6488   2.991   2.783   1.176
 1621EOH      H 6489   2.794   2.815   0.927
 1622EOH      O 6490   4.277   1.871   1.731
 1622EOH      C 6491   4.337   1.987   1.672
 1622EOH      C 6492   4.469   1.973   1.594
 1622EOH      H 6493   4.199   1.902   1.774
 1623EOH      O 6494   5.266   5.367   4.006
 1623EOH      C 6495   5.165   5.271   3.974
 1623EOH      C 6496   5.032   5.321   4.031
 1623EOH      H 6497   5.290   5.353   4.097
 1624EOH      O 6498   5.370   4.958   1.888
 1624EOH      C 6499   5.480   4.990   1.802
 1624EOH      C 6500   5.624   4.964   1.851
 1624EOH      H 6501   5.311   5.032   1.890
 1625EOH      O 6502   0.913   2.544   3.521
 1625EOH      C 6503   0.820   2.480   3.609
 1625EOH      C 6504   0.767   2.352   3.542
 1625EOH      H 6505   0.980   2.486   3.489
 1626EOH      O 6506   0.729   5.520   5.795
 1626EOH      C 6507   0.852   5.520   5.868
 1626EOH      C 6508   0.965   5.586   5.787
 1626EOH      H 6509   0.719   5.608   5.760
 1627EOH      O 6510   5.396   3.655   0.440
 1627EOH      C 6511   5.295   3.680   0.538
 1627EOH      C 6512   5.354   3.742   0.666
 1627EOH      H 6513   5.465   3.603   0.479
 1628EOH      O 6514   3.985   5.447   1.306
 1628EOH      C 6515   3.860   5.502   1.347
 1628EOH      C 6516   3.761   5.394   1.395
 1628EOH      H 6517   4.023   5.506   1.243
 1629EOH      O 6518   4.966   1.080   4.166
 1629EOH      C 6519   4.910   1.047   4.038
 1629EOH      C 6520   5.007   0.949   3.970
 1629EOH      H 6521   4.945   1.006   4.221
 1630EOH      O 6522   0.045   0.030   0.171
 1630EOH      C 6523  -0.010   0.157   0.206
 1630EOH      C 6524  -0.158   0.150   0.247
 1630EOH      H 6525   0.055   0.025   0.077
 1631EOH      O 6526   2.666   0.290   4.722
 1631EOH      C 6527   2.777   0.287   4.631
 1631EOH      C 6528   2.916   0.285   4.698
 1631EOH      H 6529   2.640   0.379   4.740
 1632EOH      O 6530   1.226   1.967   3.114
 1632EOH      C 6531   1.165   1.842   3.145
 1632EOH      C 6532   1.021   1.874   3.189
 1632EOH      H 6533   1.211   1.989   3.023
 1633EOH      O 6534   5.451   1.327   6.100
 1633EOH      C 6535   5.407   1.191   6.115
 1633EOH      C 6536   5.331   1.177   6.248
 1633EOH      H 6537   5.522   1.324   6.038
 1634EOH      O 6538   1.157   3.184   1.905
 1634EOH      C 6539   1.230   3.175   1.782
 1634EOH      C 6540   1.166   3.074   1.685
 1634EOH      H 6541   1.140   3.094   1.929
 1635EOH      O 6542   2.494   1.472   1.781
 1635EOH      C 6543   2.614   1.439   1.852
 1635EOH      C 6544   2.604   1.523   1.980
 1635EOH      H 6545   2.426   1.412   1.807
 1636EOH      O 6546   4.351   0.323   5.569
 1636EOH      C 6547   4.210   0.340   5.552
 1636EOH      C 6548   4.159   0.282   5.418
 1636EOH      H 6549   4.381   0.411   5.584
 1637EOH      O 6550   5.328   2.734   0.203
 1637EOH      C 6551   5.379   2.847   0.274
 1637EOH      C 6552   5.416   2.814   0.420
 1637EOH      H 6553   5.337   2.757   0.111
 1638EOH      O 6554   0.511   2.198   3.281
 1638EOH      C 6555   0.524   2.313   3.196
 1638EOH      C 6556   0.560   2.264   3.055
 1638EOH      H 6557   0.504   2.230   3.369
 1639EOH      O 6558   0.729   3.121   3.734
 1639EOH      C 6559   0.748   3.221   3.834
 1639EOH      C 6560   0.668   3.188   3.961
 1639EOH      H 6561   0.797   3.057   3.745
 1640EOH      O 6562   0.097   4.978   1.137
 1640EOH      C 6563   0.226   5.039   1.139
 1640EOH      C 6564   0.203   5.179   1.080
 1640EOH      H 6565   0.109   4.884   1.143
 1641EOH      O 6566   1.171   2.447   3.198
 1641EOH      C 6567   1.089   2.340   3.151
 1641EOH      C 6568   0.943   2.384   3.176
 1641EOH      H 6569   1.264   2.435   3.184
 1642EOH      O 6570   5.990   2.458   4.806
 1642EOH      C 6571   5.853   2.477   4.767
 1642EOH      C 6572   5.832   2.590   4.665
 1642EOH      H 6573   6.030   2.410   4.736
 1643EOH      O 6574   1.460   3.449   5.686
 1643EOH      C 6575   1.408   3.353   5.594
 1643EOH      C 6576   1.499   3.302   5.481
 1643EOH      H 6577   1.388   3.478   5.740
 1644EOH      O 6578   2.665   6.075   0.096
 1644EOH      C 6579   2.672   6.217   0.084
 1644EOH      C 6580   2.817   6.262   0.110
 1644EOH      H 6581   2.698   6.046   0.012
 1645EOH      O 6582   1.379   5.586   0.846
 1645EOH      C 6583   1.269   5.495   0.861
 1645EOH      C 6584   1.278   5.382   0.757
 1645EOH      H 6585   1.354   5.665   0.893
 1646EOH      O 6586   1.801   4.932   1.832
 1646EOH      C 6587   1.799   5.074   1.846
 1646EOH      C 6588   1.875   5.131   1.725
 1646EOH      H 6589   1.752   4.912   1.754
 1647EOH      O 6590   3.577   3.095   4.621
 1647EOH      C 6591   3.664   3.186   4.689
 1647EOH      C 6592   3.701   3.285   4.577
 1647EOH      H 6593   3.492   3.117   4.655
 1648EOH      O 6594   0.096   1.987   1.988
 1648EOH      C 6595   0.074   2.122   1.943
 1648EOH      C 6596   0.176   2.162   1.835
 1648EOH      H 6597   0.055   1.981   2.073
 1649EOH      O 6598   5.661   0.233   4.495
 1649EOH      C 6599   5.571   0.146   4.566
 1649EOH      C 6600   5.609  -0.002   4.549
 1649EOH      H 6601   5.700   0.290   4.559
 1650EOH      O 6602   0.804   3.334   5.839
 1650EOH      C 6603   0.718   3.270   5.744
 1650EOH      C 6604   0.779   3.296   5.605
 1650EOH      H 6605   0.755   3.414   5.853
 1651EOH      O 6606   4.655   4.872   3.492
 1651EOH      C 6607   4.542   4.918   3.567
 1651EOH      C 6608   4.474   4.809   3.653
 1651EOH      H 6609   4.624   4.856   3.404
 1652EOH      O 6610   2.046   1.599   3.683
 1652EOH      C 6611   2.120   1.511   3.769
 1652EOH      C 6612   2.267   1.512   3.723
 1652EOH      H 6613   1.972   1.548   3.654
 1653EOH      O 6614   4.314   4.282   1.538
 1653EOH      C 6615   4.253   4.380   1.453
 1653EOH      C 6616   4.108   4.405   1.498
 1653EOH      H 6617   4.406   4.279   1.515
 1654EOH      O 6618   1.651   2.439   0.450
 1654EOH      C 6619   1.661   2.423   0.309
 1654EOH      C 6620   1.780   2.508   0.261
 1654EOH      H 6621   1.600   2.518   0.458
 1655EOH      O 6622   2.218   5.240   2.307
 1655EOH      C 6623   2.091   5.229   2.372
 1655EOH      C 6624   1.981   5.262   2.269
 1655EOH      H 6625   2.279   5.262   2.376
 1656EOH      O 6626   1.862   4.789   2.023
 1656EOH      C 6627   1.881   4.862   2.145
 1656EOH      C 6628   2.015   4.939   2.150
 1656EOH      H 6629   1.844   4.850   1.953
 1657EOH      O 6630   4.719   4.292   1.941
 1657EOH      C 6631   4.858   4.307   1.910
 1657EOH      C 6632   4.878   4.448   1.851
 1657EOH      H 6633   4.699   4.205   1.972
 1658EOH      O 6634   3.928   5.794   6.212
 1658EOH      C 6635   3.941   5.935   6.190
 1658EOH      C 6636   3.927   5.968   6.040
 1658EOH      H 6637   3.834   5.784   6.217
 1659EOH      O 6638   5.217   0.026   1.933
 1659EOH      C 6639   5.146  -0.090   1.890
 1659EOH      C 6640   5.031  -0.112   1.990
 1659EOH      H 6641   5.306   0.023   1.902
 1660EOH      O 6642   5.728   5.572   2.819
 1660EOH      C 6643   5.692   5.610   2.686
 1660EOH      C 6644   5.796   5.699   2.617
 1660EOH      H 6645   5.667   5.505   2.847
 1661EOH      O 6646   2.108   6.264   5.910
 1661EOH      C 6647   2.052   6.172   5.817
 1661EOH      C 6648   1.902   6.153   5.846
 1661EOH      H 6649   2.118   6.220   5.993
 1662EOH      O 6650   1.404   0.046   4.715
 1662EOH      C 6651   1.394  -0.096   4.707
 1662EOH      C 6652   1.373  -0.138   4.853
 1662EOH      H 6653   1.477   0.076   4.663
 1663EOH      O 6654   2.943   1.225   1.251
 1663EOH      C 6655   2.907   1.179   1.120
 1663EOH      C 6656   2.988   1.256   1.014
 1663EOH      H 6657   2.905   1.172   1.319
 1664EOH      O 6658   3.887   0.126   5.690
 1664EOH      C 6659   3.986   0.024   5.706
 1664EOH      C 6660   3.977  -0.061   5.578
 1664EOH      H 6661   3.853   0.163   5.770
 1665EOH      O 6662   0.858   0.254   4.359
 1665EOH      C 6663   0.944   0.140   4.360
 1665EOH      C 6664   0.875   0.041   4.264
 1665EOH      H 6665   0.801   0.244   4.433
 1666EOH      O 6666   6.270   2.934   3.965
 1666EOH      C 6667   6.276   2.960   4.105
 1666EOH      C 6668   6.245   3.108   4.135
 1666EOH      H 6669   6.349   2.884   3.947
 1667EOH      O 6670   0.996   3.795   3.460
 1667EOH      C 6671   0.925   3.742   3.347
 1667EOH      C 6672   0.820   3.835   3.285
 1667EOH      H 6673   0.952   3.775   3.541
 1668EOH      O 6674   3.038   3.743   1.561
 1668EOH      C 6675   3.041   3.615   1.496
 1668EOH      C 6676   3.004   3.622   1.346
 1668EOH      H 6677   2.956   3.744   1.608
 1669EOH      O 6678   5.116   2.845   4.719
 1669EOH      C 6679   5.010   2.810   4.808
 1669EOH      C 6680   5.049   2.749   4.944
 1669EOH      H 6681   5.080   2.912   4.663
 1670EOH      O 6682   5.390   5.068   2.215
 1670EOH      C 6683   5.287   5.166   2.203
 1670EOH      C 6684   5.206   5.189   2.332
 1670EOH      H 6685   5.357   4.981   2.199
 1671EOH      O 6686   3.188   1.146   0.124
 1671EOH      C 6687   3.188   1.186  -0.013
 1671EOH      C 6688   3.295   1.297  -0.015
 1671EOH      H 6689   3.264   1.091   0.136
 1672EOH      O 6690   0.184   1.546   3.635
 1672EOH      C 6691   0.276   1.477   3.550
 1672EOH      C 6692   0.412   1.550   3.545
 1672EOH      H 6693   0.184   1.640   3.628
 1673EOH      O 6694   1.695   5.765   2.634
 1673EOH      C 6695   1.595   5.789   2.733
 1673EOH      C 6696   1.530   5.659   2.783
 1673EOH      H 6697   1.759   5.715   2.681
 1674EOH      O 6698   1.274   2.853   5.555
 1674EOH      C 6699   1.194   2.954   5.618
 1674EOH      C 6700   1.187   2.918   5.768
 1674EOH      H 6701   1.360   2.855   5.592
 1675EOH      O 6702   0.579   2.382   4.476
 1675EOH      C 6703   0.600   2.321   4.604
 1675EOH      C 6704   0.506   2.200   4.619
 1675EOH      H 6705   0.656   2.425   4.442
 1676EOH      O 6706   1.657   1.840   4.317
 1676EOH      C 6707   1.519   1.833   4.350
 1676EOH      C 6708   1.506   1.867   4.500
 1676EOH      H 6709   1.657   1.835   4.223
 1677EOH      O 6710   4.966   2.229   3.058
 1677EOH      C 6711   4.995   2.359   3.006
 1677EOH      C 6712   4.913   2.388   2.878
 1677EOH      H 6713   4.898   2.243   3.122
 1678EOH      O 6714   0.532   3.847   2.205
 1678EOH      C 6715   0.621   3.804   2.308
 1678EOH      C 6716   0.749   3.737   2.255
 1678EOH      H 6717   0.570   3.910   2.146
 1679EOH      O 6718   4.519   2.490   2.005
 1679EOH      C 6719   4.480   2.615   1.949
 1679EOH      C 6720   4.550   2.725   2.030
 1679EOH      H 6721   4.547   2.433   1.935
 1680EOH      O 6722   0.385   4.119   0.122
 1680EOH      C 6723   0.249   4.080   0.102
 1680EOH      C 6724   0.242   3.926   0.095
 1680EOH      H 6725   0.394   4.161   0.206
 1681EOH      O 6726   1.280   6.095   5.328
 1681EOH      C 6727   1.365   6.169   5.239
 1681EOH      C 6728   1.459   6.054   5.197
 1681EOH      H 6729   1.235   6.161   5.379
 1682EOH      O 6730   0.493   3.250   2.181
 1682EOH      C 6731   0.601   3.264   2.089
 1682EOH      C 6732   0.634   3.412   2.066
 1682EOH      H 6733   0.473   3.157   2.184
 1683EOH      O 6734   4.675   0.702   5.731
 1683EOH      C 6735   4.793   0.708   5.650
 1683EOH      C 6736   4.864   0.572   5.635
 1683EOH      H 6737   4.629   0.782   5.715
 1684EOH      O 6738   4.497   0.277   3.204
 1684EOH      C 6739   4.365   0.254   3.255
 1684EOH      C 6740   4.391   0.166   3.379
 1684EOH      H 6741   4.493   0.255   3.112
 1685EOH      O 6742   0.328   5.935   2.432
 1685EOH      C 6743   0.280   6.065   2.395
 1685EOH      C 6744   0.403   6.140   2.341
 1685EOH      H 6745   0.334   5.883   2.354
 1686EOH      O 6746   4.629   4.131   2.752
 1686EOH      C 6747   4.722   4.122   2.643
 1686EOH      C 6748   4.850   4.052   2.693
 1686EOH      H 6749   4.592   4.046   2.767
 1687EOH      O 6750   1.828   0.007   2.729
 1687EOH      C 6751   1.897   0.084   2.828
 1687EOH      C 6752   1.796   0.130   2.934
 1687EOH      H 6753   1.863  -0.079   2.710
 1688EOH      O 6754   1.782   2.875   0.032
 1688EOH      C 6755   1.869   2.874   0.145
 1688EOH      C 6756   2.012   2.864   0.088
 1688EOH      H 6757   1.720   2.943   0.051
 1689EOH      O 6758   1.250   3.548   5.809
 1689EOH      C 6759   1.178   3.660   5.759
 1689EOH      C 6760   1.250   3.737   5.646
 1689EOH      H 6761   1.189   3.480   5.835
 1690EOH      O 6762   4.731   4.413   4.804
 1690EOH      C 6763   4.593   4.409   4.841
 1690EOH      C 6764   4.548   4.556   4.840
 1690EOH      H 6765   4.760   4.323   4.801
 1691EOH      O 6766   0.445   0.191   5.107
 1691EOH      C 6767   0.337   0.260   5.042
 1691EOH      C 6768   0.366   0.411   5.037
 1691EOH      H 6769   0.423   0.100   5.091
 1692EOH      O 6770   3.210   3.638   3.388
 1692EOH      C 6771   3.162   3.567   3.502
 1692EOH      C 6772   3.036   3.490   3.458
 1692EOH      H 6773   3.266   3.582   3.336
 1693EOH      O 6774   0.016   0.743   2.863
 1693EOH      C 6775  -0.095   0.763   2.949
 1693EOH      C 6776  -0.222   0.692   2.898
 1693EOH      H 6777   0.026   0.650   2.850
 1694EOH      O 6778   4.062   3.959   3.982
 1694EOH      C 6779   3.962   3.878   4.044
 1694EOH      C 6780   3.859   3.964   4.118
 1694EOH      H 6781   4.092   3.909   3.907
 1695EOH      O 6782   0.678   5.742   5.707
 1695EOH      C 6783   0.552   5.770   5.647
 1695EOH      C 6784   0.564   5.837   5.508
 1695EOH      H 6785   0.697   5.804   5.776
 1696EOH      O 6786   5.445   5.864   5.368
 1696EOH      C 6787   5.588   5.862   5.367
 1696EOH      C 6788   5.646   5.768   5.475
 1696EOH      H 6789   5.410   5.908   5.292
 1697EOH      O 6790   3.805   1.252   2.886
 1697EOH      C 6791   3.671   1.202   2.876
 1697EOH      C 6792   3.614   1.272   3.001
 1697EOH      H 6793   3.815   1.316   2.955
 1698EOH      O 6794   4.005   3.403   5.892
 1698EOH      C 6795   3.943   3.361   5.770
 1698EOH      C 6796   3.881   3.490   5.712
 1698EOH      H 6797   3.950   3.464   5.939
 1699EOH      O 6798   4.940   4.473   4.523
 1699EOH      C 6799   4.861   4.577   4.582
 1699EOH      C 6800   4.953   4.691   4.627
 1699EOH      H 6801   4.974   4.424   4.597
 1700EOH      O 6802   5.830   3.504   0.771
 1700EOH      C 6803   5.912   3.595   0.697
 1700EOH      C 6804   6.052   3.541   0.661
 1700EOH      H 6805   5.744   3.518   0.735
 1701EOH      O 6806   1.566   2.450   4.392
 1701EOH      C 6807   1.616   2.486   4.521
 1701EOH      C 6808   1.593   2.364   4.611
 1701EOH      H 6809   1.574   2.522   4.331
 1702EOH      O 6810   2.779   6.280   5.404
 1702EOH      C 6811   2.731   6.414   5.413
 1702EOH      C 6812   2.736   6.441   5.565
 1702EOH      H 6813   2.707   6.218   5.407
 1703EOH      O 6814   0.155   2.821   3.880
 1703EOH      C 6815   0.292   2.835   3.842
 1703EOH      C 6816   0.389   2.791   3.953
 1703EOH      H 6817   0.133   2.729   3.874
 1704EOH      O 6818   0.205   1.906   3.354
 1704EOH      C 6819   0.268   1.992   3.259
 1704EOH      C 6820   0.304   1.937   3.120
 1704EOH      H 6821   0.142   1.851   3.309
 1705EOH      O 6822   3.456   5.886   0.878
 1705EOH      C 6823   3.357   5.987   0.900
 1705EOH      C 6824   3.407   6.107   0.982
 1705EOH      H 6825   3.453   5.824   0.949
 1706EOH      O 6826   5.196   3.349   5.200
 1706EOH      C 6827   5.101   3.427   5.273
 1706EOH      C 6828   5.046   3.331   5.381
 1706EOH      H 6829   5.278   3.396   5.200
 1707EOH      O 6830   5.604   1.335   2.679
 1707EOH      C 6831   5.547   1.455   2.730
 1707EOH      C 6832   5.396   1.436   2.757
 1707EOH      H 6833   5.696   1.344   2.701
 1708EOH      O 6834   2.731   2.748   2.086
 1708EOH      C 6835   2.669   2.871   2.122
 1708EOH      C 6836   2.547   2.844   2.212
 1708EOH      H 6837   2.696   2.723   2.002
 1709EOH      O 6838   4.237   5.760   1.762
 1709EOH      C 6839   4.282   5.656   1.675
 1709EOH      C 6840   4.180   5.624   1.564
 1709EOH      H 6841   4.245   5.842   1.716
 1710EOH      O 6842   6.262   2.314   2.743
 1710EOH      C 6843   6.241   2.454   2.765
 1710EOH      C 6844   6.101   2.490   2.818
 1710EOH      H 6845   6.320   2.308   2.670
 1711EOH      O 6846   1.647   1.139   5.182
 1711EOH      C 6847   1.730   1.213   5.091
 1711EOH      C 6848   1.869   1.246   5.146
 1711EOH      H 6849   1.701   1.081   5.233
 1712EOH      O 6850   2.402   5.383   4.469
 1712EOH      C 6851   2.466   5.305   4.368
 1712EOH      C 6852   2.467   5.154   4.398
 1712EOH      H 6853   2.444   5.467   4.482
 1713EOH      O 6854   6.251   0.921   2.376
 1713EOH      C 6855   6.340   0.858   2.469
 1713EOH      C 6856   6.333   0.709   2.432
 1713EOH      H 6857   6.160   0.902   2.393
 1714EOH      O 6858   5.445   1.176   1.365
 1714EOH      C 6859   5.510   1.267   1.277
 1714EOH      C 6860   5.559   1.187   1.155
 1714EOH      H 6861   5.400   1.228   1.430
 1715EOH      O 6862   2.500   0.491   4.276
 1715EOH      C 6863   2.512   0.384   4.371
 1715EOH      C 6864   2.500   0.249   4.298
 1715EOH      H 6865   2.583   0.501   4.233
 1716EOH      O 6866   5.156   5.055   5.427
 1716EOH      C 6867   5.179   4.963   5.319
 1716EOH      C 6868   5.324   4.975   5.268
 1716EOH      H 6869   5.236   5.062   5.476
 1717EOH      O 6870   2.833   1.354   2.548
 1717EOH      C 6871   2.784   1.305   2.673
 1717EOH      C 6872   2.860   1.177   2.713
 1717EOH      H 6873   2.927   1.345   2.560
 1718EOH      O 6874   3.781   2.598   5.043
 1718EOH      C 6875   3.711   2.584   5.167
 1718EOH      C 6876   3.684   2.721   5.233
 1718EOH      H 6877   3.726   2.617   4.969
 1719EOH      O 6878   1.845   4.318   5.618
 1719EOH      C 6879   1.917   4.282   5.737
 1719EOH      C 6880   2.044   4.204   5.701
 1719EOH      H 6881   1.763   4.356   5.646
 1720EOH      O 6882   5.710   0.959   4.577
 1720EOH      C 6883   5.686   1.047   4.687
 1720EOH      C 6884   5.731   0.984   4.820
 1720EOH      H 6885   5.638   0.898   4.569
 1721EOH      O 6886   6.292   1.496   5.939
 1721EOH      C 6887   6.223   1.619   5.913
 1721EOH      C 6888   6.169   1.615   5.769
 1721EOH      H 6889   6.378   1.498   5.902
 1722EOH      O 6890   0.333   3.030   1.322
 1722EOH      C 6891   0.431   3.009   1.221
 1722EOH      C 6892   0.354   2.951   1.101
 1722EOH      H 6893   0.279   3.095   1.280
 1723EOH      O 6894   3.021   2.466   1.290
 1723EOH      C 6895   3.153   2.429   1.250
 1723EOH      C 6896   3.161   2.275   1.238
 1723EOH      H 6897   2.959   2.433   1.226
 1724EOH      O 6898   4.098   2.517   1.080
 1724EOH      C 6899   4.076   2.495   1.220
 1724EOH      C 6900   4.084   2.343   1.246
 1724EOH      H 6901   4.102   2.610   1.067
 1725EOH      O 6902   2.161   3.900   2.291
 1725EOH      C 6903   2.158   4.001   2.393
 1725EOH      C 6904   2.292   4.072   2.369
 1725EOH      H 6905   2.144   3.942   2.208
 1726EOH      O 6906   4.571   5.816   5.574
 1726EOH      C 6907   4.567   5.865   5.440
 1726EOH      C 6908   4.707   5.915   5.401
 1726EOH      H 6909   4.528   5.733   5.582
 1727EOH      O 6910   5.342   5.323   4.793
 1727EOH      C 6911   5.291   5.300   4.925
 1727EOH      C 6912   5.176   5.199   4.921
 1727EOH      H 6913   5.425   5.365   4.811
 1728EOH      O 6914   4.069   6.003   0.875
 1728EOH      C 6915   4.083   5.986   0.734
 1728EOH      C 6916   4.207   6.058   0.678
 1728EOH      H 6917   3.995   5.949   0.898
 1729EOH      O 6918   2.641   4.444   3.210
 1729EOH      C 6919   2.592   4.490   3.336
 1729EOH      C 6920   2.690   4.602   3.374
 1729EOH      H 6921   2.579   4.380   3.178
 1730EOH      O 6922   1.406   6.044   6.114
 1730EOH      C 6923   1.494   6.064   6.003
 1730EOH      C 6924   1.545   6.209   6.018
 1730EOH      H 6925   1.369   5.957   6.108
 1731EOH      O 6926   6.033   0.063   1.901
 1731EOH      C 6927   5.913   0.133   1.869
 1731EOH      C 6928   5.940   0.228   1.750
 1731EOH      H 6929   6.057   0.013   1.825
 1732EOH      O 6930   0.662   1.333   6.104
 1732EOH      C 6931   0.784   1.274   6.151
 1732EOH      C 6932   0.871   1.218   6.037
 1732EOH      H 6933   0.643   1.408   6.158
 1733EOH      O 6934   1.346   5.784   6.089
 1733EOH      C 6935   1.217   5.738   6.045
 1733EOH      C 6936   1.123   5.733   6.166
 1733EOH      H 6937   1.392   5.719   6.139
 1734EOH      O 6938   1.414   5.411   4.350
 1734EOH      C 6939   1.345   5.308   4.278
 1734EOH      C 6940   1.238   5.237   4.363
 1734EOH      H 6941   1.459   5.378   4.426
 1735EOH      O 6942   3.097   4.221   0.709
 1735EOH      C 6943   2.998   4.218   0.606
 1735EOH      C 6944   3.074   4.247   0.475
 1735EOH      H 6945   3.063   4.158   0.770
 1736EOH      O 6946   4.009   3.481   3.194
 1736EOH      C 6947   3.913   3.376   3.203
 1736EOH      C 6948   3.950   3.264   3.104
 1736EOH      H 6949   3.973   3.561   3.229
 1737EOH      O 6950   1.132   5.924   1.726
 1737EOH      C 6951   1.065   5.954   1.849
 1737EOH      C 6952   1.026   6.103   1.865
 1737EOH      H 6953   1.074   5.869   1.675
 1738EOH      O 6954   2.667   3.526   1.714
 1738EOH      C 6955   2.543   3.482   1.658
 1738EOH      C 6956   2.429   3.540   1.744
 1738EOH      H 6957   2.716   3.451   1.743
 1739EOH      O 6958   1.973   3.263   5.979
 1739EOH      C 6959   1.927   3.183   6.088
 1739EOH      C 6960   2.053   3.172   6.176
 1739EOH      H 6961   1.899   3.258   5.920
 1740EOH      O 6962   4.196   4.764   1.026
 1740EOH      C 6963   4.225   4.901   0.998
 1740EOH      C 6964   4.379   4.907   0.992
 1740EOH      H 6965   4.204   4.763   1.120
 1741EOH      O 6966   5.309   0.242   0.592
 1741EOH      C 6967   5.411   0.170   0.661
 1741EOH      C 6968   5.530   0.153   0.565
 1741EOH      H 6969   5.266   0.289   0.662
 1742EOH      O 6970   3.576   0.918   0.843
 1742EOH      C 6971   3.462   0.987   0.791
 1742EOH      C 6972   3.387   1.055   0.907
 1742EOH      H 6973   3.540   0.843   0.888
 1743EOH      O 6974   3.108   0.977   4.731
 1743EOH      C 6975   2.969   0.983   4.696
 1743EOH      C 6976   2.959   1.052   4.559
 1743EOH      H 6977   3.167   0.973   4.657
 1744EOH      O 6978   0.812   5.203   1.267
 1744EOH      C 6979   0.718   5.169   1.166
 1744EOH      C 6980   0.607   5.272   1.195
 1744EOH      H 6981   0.890   5.150   1.257
 1745EOH      O 6982   2.677   1.904   3.171
 1745EOH      C 6983   2.611   1.947   3.052
 1745EOH      C 6984   2.730   1.992   2.965
 1745EOH      H 6985   2.746   1.848   3.139
 1746EOH      O 6986   3.370   5.673   2.829
 1746EOH      C 6987   3.357   5.804   2.774
 1746EOH      C 6988   3.377   5.794   2.622
 1746EOH      H 6989   3.461   5.649   2.822
 1747EOH      O 6990   3.625   2.730   4.843
 1747EOH      C 6991   3.522   2.827   4.823
 1747EOH      C 6992   3.516   2.931   4.936
 1747EOH      H 6993   3.623   2.665   4.773
 1748EOH      O 6994   3.816   0.997   0.857
 1748EOH      C 6995   3.864   1.075   0.747
 1748EOH      C 6996   3.888   0.977   0.631
 1748EOH      H 6997   3.735   0.958   0.828
 1749EOH      O 6998   4.166   5.816   2.004
 1749EOH      C 6999   4.278   5.883   2.061
 1749EOH      C 7000   4.234   5.948   2.193
 1749EOH      H 7001   4.189   5.810   1.913
 1750EOH      O 7002   5.251   2.269   4.860
 1750EOH      C 7003   5.188   2.388   4.812
 1750EOH      C 7004   5.304   2.483   4.777
 1750EOH      H 7005   5.192   2.216   4.912
 1751EOH      O 7006   2.464   5.304   0.312
 1751EOH      C 7007   2.440   5.381   0.430
 1751EOH      C 7008   2.306   5.455   0.417
 1751EOH      H 7009   2.550   5.266   0.317
 1752EOH      O 7010   1.992   2.570   4.843
 1752EOH      C 7011   2.096   2.543   4.937
 1752EOH      C 7012   2.049   2.416   5.011
 1752EOH      H 7013   1.913   2.577   4.894
 1753EOH      O 7014   1.548   1.784   5.160
 1753EOH      C 7015   1.685   1.772   5.200
 1753EOH      C 7016   1.711   1.652   5.293
 1753EOH      H 7017   1.542   1.859   5.104
 1754EOH      O 7018   0.840   1.629   2.896
 1754EOH      C 7019   0.933   1.540   2.835
 1754EOH      C 7020   1.065   1.617   2.816
 1754EOH      H 7021   0.834   1.708   2.844
 1755EOH      O 7022   2.497   4.194   2.099
 1755EOH      C 7023   2.525   4.094   2.000
 1755EOH      C 7024   2.565   4.164   1.869
 1755EOH      H 7025   2.570   4.213   2.155
 1756EOH      O 7026   3.258   3.067   5.905
 1756EOH      C 7027   3.131   3.123   5.941
 1756EOH      C 7028   3.045   3.019   6.015
 1756EOH      H 7029   3.307   3.124   5.847
 1757EOH      O 7030   5.607   0.096   3.436
 1757EOH      C 7031   5.479   0.132   3.384
 1757EOH      C 7032   5.431   0.229   3.494
 1757EOH      H 7033   5.628   0.031   3.371
 1758EOH      O 7034   3.335   2.459   5.704
 1758EOH      C 7035   3.477   2.471   5.705
 1758EOH      C 7036   3.547   2.344   5.756
 1758EOH      H 7037   3.307   2.457   5.794
 1759EOH      O 7038   5.709   2.458   2.405
 1759EOH      C 7039   5.742   2.527   2.526
 1759EOH      C 7040   5.886   2.580   2.536
 1759EOH      H 7041   5.630   2.411   2.424
 1760EOH      O 7042   2.844   2.369   1.129
 1760EOH      C 7043   2.735   2.290   1.078
 1760EOH      C 7044   2.790   2.170   0.998
 1760EOH      H 7045   2.861   2.440   1.069
 1761EOH      O 7046   0.045   5.674   1.442
 1761EOH      C 7047  -0.006   5.756   1.337
 1761EOH      C 7048  -0.143   5.807   1.386
 1761EOH      H 7049   0.123   5.634   1.407
 1762EOH      O 7050   1.017   0.943   3.613
 1762EOH      C 7051   1.144   0.878   3.610
 1762EOH      C 7052   1.222   0.878   3.743
 1762EOH      H 7053   0.982   0.931   3.526
 1763EOH      O 7054   5.399   3.214   3.605
 1763EOH      C 7055   5.327   3.119   3.683
 1763EOH      C 7056   5.176   3.142   3.666
 1763EOH      H 7057   5.485   3.233   3.638
 1764EOH      O 7058   3.543   1.631   2.412
 1764EOH      C 7059   3.600   1.546   2.312
 1764EOH      C 7060   3.661   1.636   2.203
 1764EOH      H 7061   3.530   1.717   2.374
 1765EOH      O 7062   3.299   0.977   4.557
 1765EOH      C 7063   3.381   1.093   4.540
 1765EOH      C 7064   3.387   1.144   4.685
 1765EOH      H 7065   3.332   0.910   4.498
 1766EOH      O 7066   4.690   1.747   3.737
 1766EOH      C 7067   4.646   1.822   3.623
 1766EOH      C 7068   4.508   1.772   3.577
 1766EOH      H 7069   4.767   1.798   3.758
 1767EOH      O 7070   1.584   5.192   1.521
 1767EOH      C 7071   1.478   5.242   1.603
 1767EOH      C 7072   1.365   5.305   1.521
 1767EOH      H 7073   1.581   5.238   1.439
 1768EOH      O 7074   4.060   3.303   4.339
 1768EOH      C 7075   4.115   3.173   4.316
 1768EOH      C 7076   4.195   3.159   4.446
 1768EOH      H 7077   3.982   3.322   4.289
 1769EOH      O 7078   1.734   1.772   2.774
 1769EOH      C 7079   1.778   1.794   2.908
 1769EOH      C 7080   1.891   1.698   2.949
 1769EOH      H 7081   1.704   1.682   2.772
 1770EOH      O 7082   2.083   0.040   1.911
 1770EOH      C 7083   2.020   0.012   2.036
 1770EOH      C 7084   1.956   0.139   2.095
 1770EOH      H 7085   2.085  -0.038   1.857
 1771EOH      O 7086   1.086   1.746   1.836
 1771EOH      C 7087   1.222   1.737   1.795
 1771EOH      C 7088   1.247   1.834   1.679
 1771EOH      H 7089   1.059   1.836   1.844
 1772EOH      O 7090   3.562   2.446   1.426
 1772EOH      C 7091   3.523   2.572   1.369
 1772EOH      C 7092   3.635   2.667   1.416
 1772EOH      H 7093   3.537   2.381   1.362
 1773EOH      O 7094   0.147   5.646   4.679
 1773EOH      C 7095   0.115   5.743   4.579
 1773EOH      C 7096   0.171   5.879   4.625
 1773EOH      H 7097   0.117   5.561   4.650
 1774EOH      O 7098   5.119   4.566   3.296
 1774EOH      C 7099   5.125   4.425   3.319
 1774EOH      C 7100   4.999   4.359   3.260
 1774EOH      H 7101   5.082   4.598   3.376
 1775EOH      O 7102   4.367   2.586   5.716
 1775EOH      C 7103   4.482   2.606   5.633
 1775EOH      C 7104   4.488   2.485   5.537
 1775EOH      H 7105   4.356   2.654   5.780
 1776EOH      O 7106   1.451   1.228   2.997
 1776EOH      C 7107   1.380   1.107   3.025
 1776EOH      C 7108   1.462   0.983   3.065
 1776EOH      H 7109   1.400   1.295   3.040
 1777EOH      O 7110   4.119   0.070   2.744
 1777EOH      C 7111   4.122   0.152   2.861
 1777EOH      C 7112   3.981   0.169   2.922
 1777EOH      H 7113   4.150  -0.014   2.772
 1778EOH      O 7114   5.035   1.688   3.866
 1778EOH      C 7115   5.028   1.748   3.996
 1778EOH      C 7116   4.933   1.668   4.087
 1778EOH      H 7117   5.098   1.618   3.868
 1779EOH      O 7118   1.366   3.358   3.204
 1779EOH      C 7119   1.336   3.277   3.090
 1779EOH      C 7120   1.344   3.135   3.148
 1779EOH      H 7121   1.382   3.449   3.182
 1780EOH      O 7122   3.865   4.956   0.201
 1780EOH      C 7123   3.847   5.000   0.066
 1780EOH      C 7124   3.782   5.140   0.071
 1780EOH      H 7125   3.941   5.005   0.226
 1781EOH      O 7126   0.878   2.671   4.666
 1781EOH      C 7127   0.818   2.668   4.795
 1781EOH      C 7128   0.669   2.705   4.779
 1781EOH      H 7129   0.967   2.697   4.686
 1782EOH      O 7130   1.536   3.455   1.541
 1782EOH      C 7131   1.525   3.330   1.610
 1782EOH      C 7132   1.631   3.341   1.721
 1782EOH      H 7133   1.450   3.486   1.519
 1783EOH      O 7134   6.056   0.868   0.652
 1783EOH      C 7135   6.149   0.759   0.647
 1783EOH      C 7136   6.279   0.814   0.708
 1783EOH      H 7137   5.974   0.825   0.668
 1784EOH      O 7138   1.187   6.305   3.273
 1784EOH      C 7139   1.238   6.350   3.398
 1784EOH      C 7140   1.153   6.473   3.435
 1784EOH      H 7141   1.111   6.253   3.294
 1785EOH      O 7142   5.484   0.375   3.862
 1785EOH      C 7143   5.371   0.290   3.885
 1785EOH      C 7144   5.411   0.193   3.998
 1785EOH      H 7145   5.455   0.446   3.806
 1786EOH      O 7146   1.514   4.066   6.250
 1786EOH      C 7147   1.400   4.023   6.325
 1786EOH      C 7148   1.330   4.143   6.391
 1786EOH      H 7149   1.568   3.989   6.243
 1787EOH      O 7150   4.810   0.024   1.764
 1787EOH      C 7151   4.839   0.155   1.714
 1787EOH      C 7152   4.708   0.232   1.692
 1787EOH      H 7153   4.856  -0.037   1.708
 1788EOH      O 7154   5.741   5.892   4.485
 1788EOH      C 7155   5.608   5.875   4.434
 1788EOH      C 7156   5.523   5.796   4.534
 1788EOH      H 7157   5.799   5.896   4.411
 1789EOH      O 7158   5.918   3.488   1.021
 1789EOH      C 7159   5.901   3.358   1.079
 1789EOH      C 7160   5.766   3.339   1.152
 1789EOH      H 7161   5.915   3.479   0.927
 1790EOH      O 7162   1.752   3.860   0.498
 1790EOH      C 7163   1.820   3.737   0.473
 1790EOH      C 7164   1.721   3.619   0.477
 1790EOH      H 7165   1.733   3.865   0.591
 1791EOH      O 7166   0.734   1.498   3.111
 1791EOH      C 7167   0.603   1.552   3.131
 1791EOH      C 7168   0.544   1.616   3.004
 1791EOH      H 7169   0.779   1.556   3.051
 1792EOH      O 7170   5.314   2.347   2.580
 1792EOH      C 7171   5.288   2.346   2.720
 1792EOH      C 7172   5.327   2.484   2.774
 1792EOH      H 7173   5.245   2.303   2.532
 1793EOH      O 7174   0.009   5.435   4.638
 1793EOH      C 7175  -0.003   5.363   4.515
 1793EOH      C 7176   0.145   5.368   4.474
 1793EOH      H 7177  -0.074   5.435   4.683
 1794EOH      O 7178   2.722   0.327   1.663
 1794EOH      C 7179   2.649   0.204   1.668
 1794EOH      C 7180   2.731   0.097   1.594
 1794EOH      H 7181   2.777   0.313   1.738
 1795EOH      O 7182   2.276   1.708   0.125
 1795EOH      C 7183   2.158   1.628   0.130
 1795EOH      C 7184   2.160   1.516   0.024
 1795EOH      H 7185   2.258   1.783   0.180
 1796EOH      O 7186   1.776   4.840   5.353
 1796EOH      C 7187   1.857   4.936   5.286
 1796EOH      C 7188   1.767   5.049   5.231
 1796EOH      H 7189   1.839   4.771   5.364
 1797EOH      O 7190   0.462   0.388   5.670
 1797EOH      C 7191   0.392   0.353   5.550
 1797EOH      C 7192   0.245   0.395   5.531
 1797EOH      H 7193   0.467   0.481   5.658
 1798EOH      O 7194   3.714   5.913   4.709
 1798EOH      C 7195   3.744   5.979   4.586
 1798EOH      C 7196   3.728   5.879   4.470
 1798EOH      H 7197   3.625   5.936   4.729
 1799EOH      O 7198   0.169   0.105   1.233
 1799EOH      C 7199   0.231   0.218   1.296
 1799EOH      C 7200   0.124   0.275   1.390
 1799EOH      H 7201   0.218   0.028   1.259
 1800EOH      O 7202   5.925   2.062   2.979
 1800EOH      C 7203   6.038   2.120   3.044
 1800EOH      C 7204   6.147   2.013   3.066
 1800EOH      H 7205   5.939   2.062   2.885
 1801EOH      O 7206   2.104   5.568   3.438
 1801EOH      C 7207   2.126   5.677   3.527
 1801EOH      C 7208   1.986   5.735   3.558
 1801EOH      H 7209   2.184   5.555   3.388
 1802EOH      O 7210   3.829   2.285   1.458
 1802EOH      C 7211   3.825   2.203   1.575
 1802EOH      C 7212   3.944   2.105   1.573
 1802EOH      H 7213   3.746   2.330   1.452
 1803EOH      O 7214   5.943   1.736   4.560
 1803EOH      C 7215   5.900   1.818   4.669
 1803EOH      C 7216   5.788   1.909   4.617
 1803EOH      H 7217   5.998   1.668   4.596
 1804EOH      O 7218   5.134   2.243   2.465
 1804EOH      C 7219   5.037   2.321   2.395
 1804EOH      C 7220   4.968   2.424   2.486
 1804EOH      H 7221   5.130   2.153   2.438
 1805EOH      O 7222   6.039   2.086   5.164
 1805EOH      C 7223   5.915   2.106   5.095
 1805EOH      C 7224   5.848   1.970   5.124
 1805EOH      H 7225   6.105   2.092   5.096
 1806EOH      O 7226   2.544   1.384   5.090
 1806EOH      C 7227   2.500   1.315   4.973
 1806EOH      C 7228   2.350   1.284   4.992
 1806EOH      H 7229   2.554   1.321   5.160
 1807EOH      O 7230   2.869   5.156   1.671
 1807EOH      C 7231   2.985   5.202   1.603
 1807EOH      C 7232   2.956   5.242   1.457
 1807EOH      H 7233   2.885   5.143   1.763
 1808EOH      O 7234   2.797   4.983   5.994
 1808EOH      C 7235   2.718   5.015   6.108
 1808EOH      C 7236   2.666   4.884   6.170
 1808EOH      H 7237   2.748   5.026   5.926
 1809EOH      O 7238   2.164   0.396   1.990
 1809EOH      C 7239   2.065   0.500   1.994
 1809EOH      C 7240   2.045   0.551   2.138
 1809EOH      H 7241   2.142   0.343   1.915
 1810EOH      O 7242   4.702   5.637   1.010
 1810EOH      C 7243   4.841   5.646   1.044
 1810EOH      C 7244   4.857   5.573   1.179
 1810EOH      H 7245   4.665   5.721   1.034
 1811EOH      O 7246   5.005   3.040   2.319
 1811EOH      C 7247   5.065   3.170   2.312
 1811EOH      C 7248   5.122   3.198   2.172
 1811EOH      H 7249   5.067   2.980   2.357
 1812EOH      O 7250   3.529   5.616   5.807
 1812EOH      C 7251   3.536   5.498   5.726
 1812EOH      C 7252   3.403   5.485   5.648
 1812EOH      H 7253   3.448   5.602   5.854
 1813EOH      O 7254   0.915   1.995   2.536
 1813EOH      C 7255   0.791   1.937   2.576
 1813EOH      C 7256   0.802   1.888   2.722
 1813EOH      H 7257   0.899   2.027   2.448
 1814EOH      O 7258   2.431   2.753   5.280
 1814EOH      C 7259   2.372   2.702   5.160
 1814EOH      C 7260   2.438   2.570   5.119
 1814EOH      H 7261   2.368   2.741   5.350
 1815EOH      O 7262   4.213   4.767   1.282
 1815EOH      C 7263   4.273   4.778   1.411
 1815EOH      C 7264   4.427   4.784   1.408
 1815EOH      H 7265   4.119   4.773   1.297
 1816EOH      O 7266   5.762   6.051   4.895
 1816EOH      C 7267   5.620   6.060   4.877
 1816EOH      C 7268   5.587   6.133   5.009
 1816EOH      H 7269   5.806   6.036   4.813
 1817EOH      O 7270   4.444   1.532   0.165
 1817EOH      C 7271   4.381   1.445   0.070
 1817EOH      C 7272   4.485   1.433  -0.043
 1817EOH      H 7273   4.390   1.528   0.243
 1818EOH      O 7274   4.844   4.460   5.691
 1818EOH      C 7275   4.809   4.435   5.554
 1818EOH      C 7276   4.926   4.479   5.464
 1818EOH      H 7277   4.845   4.550   5.719
 1819EOH      O 7278   4.486   4.398   1.905
 1819EOH      C 7279   4.465   4.517   1.828
 1819EOH      C 7280   4.328   4.585   1.842
 1819EOH      H 7281   4.578   4.380   1.899
 1820EOH      O 7282   0.039   1.335   5.291
 1820EOH      C 7283   0.031   1.193   5.276
 1820EOH      C 7284  -0.005   1.162   5.130
 1820EOH      H 7285  -0.050   1.365   5.293
 1821EOH      O 7286   3.905   4.545   0.277
 1821EOH      C 7287   4.024   4.591   0.340
 1821EOH      C 7288   4.141   4.542   0.252
 1821EOH      H 7289   3.842   4.616   0.269
 1822EOH      O 7290   5.772   3.320   3.849
 1822EOH      C 7291   5.752   3.310   3.990
 1822EOH      C 7292   5.731   3.162   4.024
 1822EOH      H 7293   5.769   3.411   3.823
 1823EOH      O 7294   5.057   5.932   0.491
 1823EOH      C 7295   5.144   6.016   0.413
 1823EOH      C 7296   5.150   6.151   0.488
 1823EOH      H 7297   4.969   5.963   0.475
 1824EOH      O 7298   1.247   3.201   2.565
 1824EOH      C 7299   1.325   3.112   2.485
 1824EOH      C 7300   1.264   2.975   2.522
 1824EOH      H 7301   1.267   3.293   2.563
 1825EOH      O 7302   3.957   5.697   2.050
 1825EOH      C 7303   3.965   5.560   2.090
 1825EOH      C 7304   3.993   5.466   1.972
 1825EOH      H 7305   4.038   5.744   2.039
 1826EOH      O 7306   1.559   0.330   2.557
 1826EOH      C 7307   1.483   0.403   2.654
 1826EOH      C 7308   1.490   0.553   2.619
 1826EOH      H 7309   1.586   0.245   2.588
 1827EOH      O 7310   4.103   0.703   2.174
 1827EOH      C 7311   4.206   0.771   2.246
 1827EOH      C 7312   4.303   0.831   2.143
 1827EOH      H 7313   4.042   0.673   2.239
 1828EOH      O 7314   5.699   3.472   4.481
 1828EOH      C 7315   5.730   3.594   4.411
 1828EOH      C 7316   5.852   3.569   4.321
 1828EOH      H 7317   5.626   3.477   4.541
 1829EOH      O 7318   2.961   4.226   0.012
 1829EOH      C 7319   3.037   4.225  -0.108
 1829EOH      C 7320   3.101   4.086  -0.126
 1829EOH      H 7321   2.980   4.147   0.061
 1830EOH      O 7322   1.895   2.083   5.820
 1830EOH      C 7323   1.868   2.134   5.689
 1830EOH      C 7324   1.957   2.067   5.583
 1830EOH      H 7325   1.839   2.113   5.890
 1831EOH      O 7326   1.181   5.879   5.361
 1831EOH      C 7327   1.041   5.902   5.341
 1831EOH      C 7328   0.985   5.956   5.474
 1831EOH      H 7329   1.225   5.959   5.340
 1832EOH      O 7330   5.252   0.604   1.465
 1832EOH      C 7331   5.218   0.682   1.579
 1832EOH      C 7332   5.164   0.584   1.685
 1832EOH      H 7333   5.323   0.650   1.424
 1833EOH      O 7334   3.413   5.434   0.406
 1833EOH      C 7335   3.327   5.353   0.325
 1833EOH      C 7336   3.212   5.449   0.289
 1833EOH      H 7337   3.494   5.446   0.358
 1834EOH      O 7338   0.686   6.140   5.875
 1834EOH      C 7339   0.549   6.179   5.891
 1834EOH      C 7340   0.462   6.059   5.848
 1834EOH      H 7341   0.735   6.219   5.859
 1835EOH      O 7342   2.511   1.933   0.354
 1835EOH      C 7343   2.554   1.825   0.438
 1835EOH      C 7344   2.483   1.856   0.571
 1835EOH      H 7345   2.556   1.916   0.272
 1836EOH      O 7346   5.275   3.569   3.573
 1836EOH      C 7347   5.137   3.564   3.611
 1836EOH      C 7348   5.089   3.704   3.653
 1836EOH      H 7349   5.286   3.482   3.537
 1837EOH      O 7350   2.654   5.961   3.512
 1837EOH      C 7351   2.586   5.866   3.595
 1837EOH      C 7352   2.471   5.815   3.507
 1837EOH      H 7353   2.721   6.004   3.562
 1838EOH      O 7354   3.241   5.843   4.714
 1838EOH      C 7355   3.134   5.776   4.647
 1838EOH      C 7356   3.183   5.720   4.511
 1838EOH      H 7357   3.304   5.774   4.724
 1839EOH      O 7358   3.220   3.175   0.126
 1839EOH      C 7359   3.331   3.236   0.059
 1839EOH      C 7360   3.434   3.299   0.155
 1839EOH      H 7361   3.222   3.085   0.099
 1840EOH      O 7362   5.857   3.733   1.018
 1840EOH      C 7363   5.723   3.774   1.050
 1840EOH      C 7364   5.636   3.754   0.925
 1840EOH      H 7365   5.854   3.638   1.021
 1841EOH      O 7366   3.999   3.054   2.399
 1841EOH      C 7367   4.070   3.088   2.518
 1841EOH      C 7368   4.000   3.212   2.577
 1841EOH      H 7369   3.918   3.012   2.425
 1842EOH      O 7370   1.853   1.574   1.872
 1842EOH      C 7371   1.955   1.674   1.860
 1842EOH      C 7372   2.039   1.673   1.731
 1842EOH      H 7373   1.835   1.559   1.964
 1843EOH      O 7374   2.137   0.585   2.875
 1843EOH      C 7375   2.214   0.517   2.775
 1843EOH      C 7376   2.365   0.517   2.805
 1843EOH      H 7377   2.053   0.592   2.834
 1844EOH      O 7378   4.463   4.417   0.191
 1844EOH      C 7379   4.471   4.559   0.210
 1844EOH      C 7380   4.484   4.614   0.353
 1844EOH      H 7381   4.467   4.397   0.099
 1845EOH      O 7382   4.212   4.418   2.285
 1845EOH      C 7383   4.207   4.559   2.306
 1845EOH      C 7384   4.070   4.627   2.286
 1845EOH      H 7385   4.299   4.394   2.257
 1846EOH      O 7386   5.000   0.255   0.597
 1846EOH      C 7387   4.865   0.211   0.578
 1846EOH      C 7388   4.868   0.096   0.474
 1846EOH      H 7389   5.045   0.279   0.518
 1847EOH      O 7390   2.191   4.070   5.075
 1847EOH      C 7391   2.106   4.143   5.164
 1847EOH      C 7392   2.148   4.103   5.306
 1847EOH      H 7393   2.150   3.989   5.046
 1848EOH      O 7394   5.858   3.281   4.560
 1848EOH      C 7395   5.800   3.188   4.652
 1848EOH      C 7396   5.865   3.198   4.791
 1848EOH      H 7397   5.785   3.325   4.520
 1849EOH      O 7398   2.918   2.560   4.743
 1849EOH      C 7399   2.792   2.508   4.783
 1849EOH      C 7400   2.771   2.555   4.929
 1849EOH      H 7401   2.928   2.633   4.802
 1850EOH      O 7402   5.595   0.123   2.693
 1850EOH      C 7403   5.518   0.002   2.689
 1850EOH      C 7404   5.616  -0.112   2.656
 1850EOH      H 7405   5.607   0.145   2.602
 1851EOH      O 7406   2.153   2.797   0.930
 1851EOH      C 7407   2.158   2.668   0.993
 1851EOH      C 7408   2.084   2.566   0.905
 1851EOH      H 7409   2.188   2.856   0.994
 1852EOH      O 7410   0.345   1.556   6.233
 1852EOH      C 7411   0.274   1.432   6.239
 1852EOH      C 7412   0.339   1.311   6.169
 1852EOH      H 7413   0.310   1.625   6.288
 1853EOH      O 7414   1.835   3.227   5.771
 1853EOH      C 7415   1.895   3.192   5.646
 1853EOH      C 7416   1.947   3.050   5.677
 1853EOH      H 7417   1.796   3.312   5.761
 1854EOH      O 7418   0.068   6.132   0.313
 1854EOH      C 7419  -0.006   6.121   0.434
 1854EOH      C 7420   0.092   6.063   0.536
 1854EOH      H 7421   0.047   6.210   0.265
 1855EOH      O 7422   1.248   0.252   5.770
 1855EOH      C 7423   1.317   0.284   5.649
 1855EOH      C 7424   1.452   0.215   5.624
 1855EOH      H 7425   1.293   0.286   5.847
 1856EOH      O 7426   5.483   4.563   6.015
 1856EOH      C 7427   5.508   4.655   5.908
 1856EOH      C 7428   5.601   4.586   5.806
 1856EOH      H 7429   5.457   4.607   6.094
 1857EOH      O 7430   1.999   3.317   3.506
 1857EOH      C 7431   2.057   3.237   3.608
 1857EOH      C 7432   2.208   3.251   3.580
 1857EOH      H 7433   1.985   3.261   3.431
 1858EOH      O 7434   1.261   0.441   4.186
 1858EOH      C 7435   1.191   0.384   4.074
 1858EOH      C 7436   1.288   0.271   4.032
 1858EOH      H 7437   1.208   0.443   4.264
 1859EOH      O 7438   5.594   3.582   1.843
 1859EOH      C 7439   5.639   3.555   1.710
 1859EOH      C 7440   5.693   3.686   1.651
 1859EOH      H 7441   5.616   3.505   1.893
 1860EOH      O 7442   1.708   4.227   5.392
 1860EOH      C 7443   1.640   4.131   5.474
 1860EOH      C 7444   1.740   4.022   5.517
 1860EOH      H 7445   1.765   4.277   5.448
 1861EOH      O 7446   5.835   5.003   1.507
 1861EOH      C 7447   5.944   4.958   1.589
 1861EOH      C 7448   5.940   4.804   1.586
 1861EOH      H 7449   5.850   5.096   1.505
 1862EOH      O 7450   0.292   3.769   2.305
 1862EOH      C 7451   0.190   3.722   2.216
 1862EOH      C 7452   0.160   3.830   2.111
 1862EOH      H 7453   0.369   3.789   2.254
 1863EOH      O 7454   3.435   5.501   4.292
 1863EOH      C 7455   3.385   5.377   4.344
 1863EOH      C 7456   3.505   5.281   4.357
 1863EOH      H 7457   3.371   5.554   4.247
 1864EOH      O 7458   3.712   5.089   5.880
 1864EOH      C 7459   3.673   5.151   6.003
 1864EOH      C 7460   3.599   5.044   6.086
 1864EOH      H 7461   3.728   4.997   5.893
 1865EOH      O 7462   1.200   2.196   5.540
 1865EOH      C 7463   1.102   2.239   5.634
 1865EOH      C 7464   0.983   2.294   5.554
 1865EOH      H 7465   1.153   2.125   5.500
 1866EOH      O 7466   2.931   1.045   1.444
 1866EOH      C 7467   3.026   1.029   1.550
 1866EOH      C 7468   3.153   0.966   1.491
 1866EOH      H 7469   2.904   0.963   1.405
 1867EOH      O 7470   0.027   5.361   5.342
 1867EOH      C 7471   0.051   5.225   5.306
 1867EOH      C 7472  -0.085   5.162   5.270
 1867EOH      H 7473   0.111   5.398   5.364
 1868EOH      O 7474   0.615   0.741   4.118
 1868EOH      C 7475   0.577   0.749   3.980
 1868EOH      C 7476   0.595   0.896   3.938
 1868EOH      H 7477   0.536   0.751   4.169
 1869EOH      O 7478   0.939   0.522   4.361
 1869EOH      C 7479   0.897   0.610   4.256
 1869EOH      C 7480   1.000   0.718   4.220
 1869EOH      H 7481   0.877   0.451   4.372
 1870EOH      O 7482   2.619   6.020   0.362
 1870EOH      C 7483   2.525   5.915   0.387
 1870EOH      C 7484   2.583   5.773   0.404
 1870EOH      H 7485   2.640   6.013   0.270
 1871EOH      O 7486   1.562   5.746   2.102
 1871EOH      C 7487   1.530   5.870   2.038
 1871EOH      C 7488   1.446   5.960   2.130
 1871EOH      H 7489   1.612   5.698   2.038
 1872EOH      O 7490   1.362   2.139   3.218
 1872EOH      C 7491   1.453   2.098   3.321
 1872EOH      C 7492   1.574   2.055   3.237
 1872EOH      H 7493   1.312   2.068   3.181
 1873EOH      O 7494   2.645   5.047   1.585
 1873EOH      C 7495   2.601   4.936   1.663
 1873EOH      C 7496   2.536   4.990   1.791
 1873EOH      H 7497   2.706   5.097   1.638
 1874EOH      O 7498   0.495   0.221   5.850
 1874EOH      C 7499   0.454   0.296   5.964
 1874EOH      C 7500   0.513   0.228   6.090
 1874EOH      H 7501   0.491   0.271   5.770
 1875EOH      O 7502   2.925   1.016   2.254
 1875EOH      C 7503   2.943   1.049   2.117
 1875EOH      C 7504   3.079   1.112   2.082
 1875EOH      H 7505   2.866   1.085   2.281
 1876EOH      O 7506   2.607   3.088   6.225
 1876EOH      C 7507   2.723   3.007   6.205
 1876EOH      C 7508   2.783   2.938   6.328
 1876EOH      H 7509   2.615   3.158   6.161
 1877EOH      O 7510   1.842   3.271   2.350
 1877EOH      C 7511   1.938   3.256   2.456
 1877EOH      C 7512   1.939   3.118   2.523
 1877EOH      H 7513   1.856   3.359   2.320
 1878EOH      O 7514   0.852   1.113   1.879
 1878EOH      C 7515   0.956   1.109   1.977
 1878EOH      C 7516   0.895   1.165   2.107
 1878EOH      H 7517   0.817   1.201   1.873
 1879EOH      O 7518   0.929   3.878   4.362
 1879EOH      C 7519   1.056   3.883   4.296
 1879EOH      C 7520   1.040   3.879   4.143
 1879EOH      H 7521   0.954   3.890   4.452
 1880EOH      O 7522   4.885   4.151   4.294
 1880EOH      C 7523   4.843   4.109   4.164
 1880EOH      C 7524   4.758   3.982   4.184
 1880EOH      H 7525   4.912   4.241   4.292
 1881EOH      O 7526   0.271   0.923   0.160
 1881EOH      C 7527   0.183   1.021   0.103
 1881EOH      C 7528   0.049   1.036   0.176
 1881EOH      H 7529   0.354   0.930   0.116
 1882EOH      O 7530   5.999   4.388   1.494
 1882EOH      C 7531   5.968   4.496   1.406
 1882EOH      C 7532   5.825   4.475   1.354
 1882EOH      H 7533   6.086   4.403   1.526
 1883EOH      O 7534   3.950   0.361   1.086
 1883EOH      C 7535   4.017   0.282   0.987
 1883EOH      C 7536   3.962   0.307   0.845
 1883EOH      H 7537   4.011   0.384   1.154
 1884EOH      O 7538   5.417   3.931   3.886
 1884EOH      C 7539   5.283   3.948   3.934
 1884EOH      C 7540   5.261   4.099   3.955
 1884EOH      H 7541   5.413   3.939   3.792
 1885EOH      O 7542   5.047   0.953   3.512
 1885EOH      C 7543   5.043   1.053   3.614
 1885EOH      C 7544   5.191   1.074   3.651
 1885EOH      H 7545   5.047   0.998   3.430
 1886EOH      O 7546   2.277   2.951   1.112
 1886EOH      C 7547   2.231   2.928   1.245
 1886EOH      C 7548   2.312   3.003   1.353
 1886EOH      H 7549   2.255   3.042   1.097
 1887EOH      O 7550   3.867   6.047   1.870
 1887EOH      C 7551   3.937   6.079   1.991
 1887EOH      C 7552   4.029   6.200   1.966
 1887EOH      H 7553   3.854   5.953   1.866
 1888EOH      O 7554   2.226   5.370   0.019
 1888EOH      C 7555   2.262   5.503   0.056
 1888EOH      C 7556   2.413   5.523   0.035
 1888EOH      H 7557   2.259   5.305   0.080
 1889EOH      O 7558   3.075   4.044   0.885
 1889EOH      C 7559   3.137   4.013   1.010
 1889EOH      C 7560   3.251   4.113   1.035
 1889EOH      H 7561   3.061   3.962   0.840
 1890EOH      O 7562   5.465   5.391   5.295
 1890EOH      C 7563   5.525   5.295   5.382
 1890EOH      C 7564   5.649   5.239   5.309
 1890EOH      H 7565   5.438   5.475   5.328
 1891EOH      O 7566   5.228   6.168   4.722
 1891EOH      C 7567   5.156   6.261   4.804
 1891EOH      C 7568   5.249   6.291   4.923
 1891EOH      H 7569   5.173   6.137   4.653
 1892EOH      O 7570   5.522   1.951   5.180
 1892EOH      C 7571   5.527   2.028   5.301
 1892EOH      C 7572   5.580   1.932   5.409
 1892EOH      H 7573   5.513   2.016   5.113
 1893EOH      O 7574   4.403   1.919   4.086
 1893EOH      C 7575   4.456   1.857   3.968
 1893EOH      C 7576   4.588   1.792   4.014
 1893EOH      H 7577   4.391   1.858   4.156
 1894EOH      O 7578   2.543   0.520   0.029
 1894EOH      C 7579   2.593   0.430  -0.070
 1894EOH      C 7580   2.594   0.285  -0.018
 1894EOH      H 7581   2.535   0.608  -0.005
 1895EOH      O 7582   3.308   3.319   4.848
 1895EOH      C 7583   3.242   3.435   4.898
 1895EOH      C 7584   3.151   3.491   4.787
 1895EOH      H 7585   3.370   3.299   4.916
 1896EOH      O 7586   2.689   4.231   2.255
 1896EOH      C 7587   2.714   4.121   2.342
 1896EOH      C 7588   2.829   4.036   2.284
 1896EOH      H 7589   2.749   4.300   2.278
 1897EOH      O 7590   0.333   1.434   0.413
 1897EOH      C 7591   0.341   1.344   0.302
 1897EOH      C 7592   0.486   1.339   0.251
 1897EOH      H 7593   0.246   1.423   0.449
 1898EOH      O 7594   0.065   2.646   1.747
 1898EOH      C 7595   0.125   2.649   1.877
 1898EOH      C 7596   0.048   2.577   1.989
 1898EOH      H 7597   0.089   2.717   1.689
 1899EOH      O 7598   2.685   1.038   3.533
 1899EOH      C 7599   2.635   0.913   3.581
 1899EOH      C 7600   2.661   0.788   3.496
 1899EOH      H 7601   2.613   1.081   3.488
 1900EOH      O 7602   4.689   5.946   5.789
 1900EOH      C 7603   4.657   6.085   5.783
 1900EOH      C 7604   4.787   6.150   5.731
 1900EOH      H 7605   4.652   5.906   5.711
 1901EOH      O 7606   3.891   5.156   5.083
 1901EOH      C 7607   3.802   5.266   5.105
 1901EOH      C 7608   3.751   5.325   4.973
 1901EOH      H 7609   3.918   5.117   5.166
 1902EOH      O 7610   6.179   2.511   1.642
 1902EOH      C 7611   6.165   2.387   1.713
 1902EOH      C 7612   6.051   2.305   1.652
 1902EOH      H 7613   6.239   2.567   1.689
 1903EOH      O 7614   5.525   4.385   2.076
 1903EOH      C 7615   5.439   4.293   2.143
 1903EOH      C 7616   5.464   4.151   2.090
 1903EOH      H 7617   5.605   4.394   2.126
 1904EOH      O 7618   5.595   5.454   5.068
 1904EOH      C 7619   5.619   5.593   5.094
 1904EOH      C 7620   5.761   5.632   5.050
 1904EOH      H 7621   5.576   5.417   5.153
 1905EOH      O 7622   2.563   4.765   4.398
 1905EOH      C 7623   2.482   4.755   4.515
 1905EOH      C 7624   2.352   4.675   4.492
 1905EOH      H 7625   2.629   4.827   4.424
 1906EOH      O 7626   5.663   0.329   2.828
 1906EOH      C 7627   5.802   0.324   2.862
 1906EOH      C 7628   5.815   0.191   2.938
 1906EOH      H 7629   5.634   0.257   2.773
 1907EOH      O 7630   1.457   5.565   2.248
 1907EOH      C 7631   1.451   5.607   2.385
 1907EOH      C 7632   1.345   5.522   2.456
 1907EOH      H 7633   1.514   5.626   2.203
 1908EOH      O 7634   2.295   3.079   2.164
 1908EOH      C 7635   2.216   3.194   2.193
 1908EOH      C 7636   2.309   3.317   2.190
 1908EOH      H 7637   2.239   3.008   2.191
 1909EOH      O 7638   4.476   0.499   4.756
 1909EOH      C 7639   4.339   0.485   4.796
 1909EOH      C 7640   4.267   0.423   4.675
 1909EOH      H 7641   4.494   0.407   4.746
 1910EOH      O 7642   2.951   6.145   5.865
 1910EOH      C 7643   2.952   6.077   5.739
 1910EOH      C 7644   2.849   5.962   5.738
 1910EOH      H 7645   2.974   6.235   5.845
 1911EOH      O 7646   3.623   6.164   1.882
 1911EOH      C 7647   3.623   6.266   1.783
 1911EOH      C 7648   3.492   6.344   1.764
 1911EOH      H 7649   3.713   6.134   1.876
 1912EOH      O 7650   0.425   5.586   3.444
 1912EOH      C 7651   0.365   5.679   3.352
 1912EOH      C 7652   0.372   5.618   3.211
 1912EOH      H 7653   0.395   5.600   3.532
 1913EOH      O 7654   0.655   3.697   1.289
 1913EOH      C 7655   0.717   3.773   1.185
 1913EOH      C 7656   0.823   3.860   1.256
 1913EOH      H 7657   0.572   3.737   1.309
 1914EOH      O 7658   2.391   2.753   3.781
 1914EOH      C 7659   2.331   2.879   3.750
 1914EOH      C 7660   2.216   2.928   3.840
 1914EOH      H 7661   2.467   2.761   3.725
 1915EOH      O 7662   4.220   5.060   0.071
 1915EOH      C 7663   4.243   4.926   0.029
 1915EOH      C 7664   4.394   4.898   0.015
 1915EOH      H 7665   4.273   5.114   0.015
 1916EOH      O 7666   3.780   4.239   6.020
 1916EOH      C 7667   3.829   4.271   5.889
 1916EOH      C 7668   3.725   4.299   5.778
 1916EOH      H 7669   3.845   4.260   6.085
 1917EOH      O 7670   4.381   3.618   5.635
 1917EOH      C 7671   4.322   3.539   5.739
 1917EOH      C 7672   4.371   3.393   5.740
 1917EOH      H 7673   4.354   3.707   5.651
 1918EOH      O 7674   2.900   3.284   1.293
 1918EOH      C 7675   2.775   3.214   1.286
 1918EOH      C 7676   2.672   3.263   1.389
 1918EOH      H 7677   2.954   3.252   1.223
 1919EOH      O 7678   4.103   5.066   4.391
 1919EOH      C 7679   3.974   5.085   4.333
 1919EOH      C 7680   3.973   5.229   4.278
 1919EOH      H 7681   4.123   4.977   4.365
 1920EOH      O 7682   2.772   5.954   6.180
 1920EOH      C 7683   2.699   5.849   6.116
 1920EOH      C 7684   2.554   5.893   6.092
 1920EOH      H 7685   2.860   5.926   6.201
 1921EOH      O 7686   2.721   4.484   6.218
 1921EOH      C 7687   2.692   4.517   6.081
 1921EOH      C 7688   2.765   4.419   5.988
 1921EOH      H 7689   2.665   4.416   6.253
 1922EOH      O 7690   2.466   4.955   3.349
 1922EOH      C 7691   2.589   4.950   3.421
 1922EOH      C 7692   2.699   5.019   3.338
 1922EOH      H 7693   2.472   4.894   3.276
 1923EOH      O 7694   4.144   5.279   1.393
 1923EOH      C 7695   4.101   5.148   1.428
 1923EOH      C 7696   4.162   5.111   1.564
 1923EOH      H 7697   4.066   5.333   1.387
 1924EOH      O 7698   0.736   5.450   0.181
 1924EOH      C 7699   0.701   5.486   0.047
 1924EOH      C 7700   0.640   5.366  -0.027
 1924EOH      H 7701   0.821   5.407   0.179
 1925EOH      O 7702   6.065   5.558   0.100
 1925EOH      C 7703   6.160   5.653   0.150
 1925EOH      C 7704   6.097   5.754   0.247
 1925EOH      H 7705   6.049   5.586   0.011
 1926EOH      O 7706   1.232   4.507   4.916
 1926EOH      C 7707   1.276   4.435   4.801
 1926EOH      C 7708   1.429   4.449   4.811
 1926EOH      H 7709   1.287   4.481   4.988
 1927EOH      O 7710   0.924   5.742   4.368
 1927EOH      C 7711   0.941   5.662   4.486
 1927EOH      C 7712   0.859   5.726   4.599
 1927EOH      H 7713   0.931   5.695   4.286
 1928EOH      O 7714   4.819   0.315   3.012
 1928EOH      C 7715   4.910   0.406   2.951
 1928EOH      C 7716   4.839   0.531   2.896
 1928EOH      H 7717   4.797   0.341   3.101
 1929EOH      O 7718   5.211   5.180   1.876
 1929EOH      C 7719   5.213   5.317   1.835
 1929EOH      C 7720   5.356   5.371   1.851
 1929EOH      H 7721   5.123   5.147   1.867
 1930EOH      O 7722   1.028   0.217   0.130
 1930EOH      C 7723   1.129   0.232   0.230
 1930EOH      C 7724   1.202   0.368   0.222
 1930EOH      H 7725   1.000   0.127   0.121
 1931EOH      O 7726   3.204   0.456   0.433
 1931EOH      C 7727   3.182   0.504   0.300
 1931EOH      C 7728   3.113   0.640   0.320
 1931EOH      H 7729   3.204   0.363   0.419
 1932EOH      O 7730   5.599   3.453   2.956
 1932EOH      C 7731   5.658   3.569   3.014
 1932EOH      C 7732   5.755   3.506   3.115
 1932EOH      H 7733   5.520   3.486   2.916
 1933EOH      O 7734   1.456   2.144   5.902
 1933EOH      C 7735   1.344   2.151   5.991
 1933EOH      C 7736   1.349   2.032   6.088
 1933EOH      H 7737   1.445   2.221   5.847
 1934EOH      O 7738   6.213   4.725   6.311
 1934EOH      C 7739   6.108   4.703   6.216
 1934EOH      C 7740   6.104   4.549   6.200
 1934EOH      H 7741   6.227   4.816   6.333
 1935EOH      O 7742   1.585   4.264   5.162
 1935EOH      C 7743   1.683   4.242   5.060
 1935EOH      C 7744   1.743   4.102   5.075
 1935EOH      H 7745   1.617   4.243   5.248
 1936EOH      O 7746   4.457   5.156   5.019
 1936EOH      C 7747   4.390   5.281   5.001
 1936EOH      C 7748   4.267   5.283   5.093
 1936EOH      H 7749   4.404   5.081   4.994
 1937EOH      O 7750   0.324   0.324   2.207
 1937EOH      C 7751   0.208   0.333   2.291
 1937EOH      C 7752   0.104   0.384   2.190
 1937EOH      H 7753   0.402   0.328   2.261
 1938EOH      O 7754   1.059   3.348   5.871
 1938EOH      C 7755   1.117   3.234   5.935
 1938EOH      C 7756   1.201   3.274   6.058
 1938EOH      H 7757   0.966   3.334   5.864
 1939EOH      O 7758   3.604   2.138   0.659
 1939EOH      C 7759   3.746   2.150   0.660
 1939EOH      C 7760   3.778   2.258   0.555
 1939EOH      H 7761   3.590   2.068   0.597
 1940EOH      O 7762   0.355   2.832   2.749
 1940EOH      C 7763   0.462   2.871   2.663
 1940EOH      C 7764   0.391   2.981   2.581
 1940EOH      H 7765   0.272   2.859   2.712
 1941EOH      O 7766   3.698   1.004   1.765
 1941EOH      C 7767   3.584   0.920   1.747
 1941EOH      C 7768   3.507   0.972   1.624
 1941EOH      H 7769   3.746   0.968   1.837
 1942EOH      O 7770   4.320   5.996   4.841
 1942EOH      C 7771   4.315   5.949   4.976
 1942EOH      C 7772   4.453   5.903   5.025
 1942EOH      H 7773   4.309   5.926   4.778
 1943EOH      O 7774   5.447   2.097   4.983
 1943EOH      C 7775   5.527   2.063   4.870
 1943EOH      C 7776   5.544   1.910   4.870
 1943EOH      H 7777   5.393   2.171   4.962
 1944EOH      O 7778   2.109   4.664   5.555
 1944EOH      C 7779   2.083   4.764   5.654
 1944EOH      C 7780   1.998   4.690   5.759
 1944EOH      H 7781   2.184   4.618   5.588
 1945EOH      O 7782   4.637   3.971   3.776
 1945EOH      C 7783   4.732   4.043   3.699
 1945EOH      C 7784   4.669   4.158   3.619
 1945EOH      H 7785   4.620   3.888   3.733
 1946EOH      O 7786   5.045   4.670   3.528
 1946EOH      C 7787   5.130   4.659   3.642
 1946EOH      C 7788   5.234   4.547   3.631
 1946EOH      H 7789   4.989   4.747   3.531
 1947EOH      O 7790   1.028   0.828   2.727
 1947EOH      C 7791   1.092   0.716   2.790
 1947EOH      C 7792   1.069   0.712   2.942
 1947EOH      H 7793   0.935   0.816   2.728
 1948EOH      O 7794   5.422   0.744   1.385
 1948EOH      C 7795   5.551   0.738   1.325
 1948EOH      C 7796   5.545   0.737   1.171
 1948EOH      H 7797   5.382   0.827   1.363
 1949EOH      O 7798   1.286   2.261   2.256
 1949EOH      C 7799   1.357   2.193   2.359
 1949EOH      C 7800   1.500   2.169   2.306
 1949EOH      H 7801   1.289   2.354   2.274
 1950EOH      O 7802   5.326   3.572   1.857
 1950EOH      C 7803   5.275   3.439   1.861
 1950EOH      C 7804   5.122   3.445   1.843
 1950EOH      H 7805   5.421   3.573   1.852
 1951EOH      O 7806   1.555   1.914   3.881
 1951EOH      C 7807   1.425   1.869   3.843
 1951EOH      C 7808   1.339   1.847   3.968
 1951EOH      H 7809   1.581   1.987   3.826
 1952EOH      O 7810   5.221   4.195   1.507
 1952EOH      C 7811   5.082   4.163   1.520
 1952EOH      C 7812   5.047   4.036   1.441
 1952EOH      H 7813   5.244   4.274   1.553
 1953EOH      O 7814   4.498   3.325   3.139
 1953EOH      C 7815   4.587   3.429   3.098
 1953EOH      C 7816   4.721   3.416   3.172
 1953EOH      H 7817   4.419   3.376   3.153
 1954EOH      O 7818   0.324   6.269   5.067
 1954EOH      C 7819   0.314   6.181   4.954
 1954EOH      C 7820   0.286   6.262   4.826
 1954EOH      H 7821   0.356   6.230   5.146
 1955EOH      O 7822   0.595   6.281   0.820
 1955EOH      C 7823   0.567   6.152   0.763
 1955EOH      C 7824   0.417   6.118   0.761
 1955EOH      H 7825   0.644   6.331   0.756
 1956EOH      O 7826   4.832   3.194   1.243
 1956EOH      C 7827   4.758   3.208   1.122
 1956EOH      C 7828   4.754   3.362   1.110
 1956EOH      H 7829   4.797   3.245   1.315
 1957EOH      O 7830   0.890   6.194   3.978
 1957EOH      C 7831   1.029   6.212   3.950
 1957EOH      C 7832   1.034   6.296   3.821
 1957EOH      H 7833   0.884   6.141   4.056
 1958EOH      O 7834   1.946   4.214   2.138
 1958EOH      C 7835   1.816   4.272   2.126
 1958EOH      C 7836   1.709   4.166   2.094
 1958EOH      H 7837   2.013   4.274   2.167
 1959EOH      O 7838   5.863   0.197   0.759
 1959EOH      C 7839   5.937   0.311   0.714
 1959EOH      C 7840   6.015   0.272   0.587
 1959EOH      H 7841   5.830   0.234   0.839
 1960EOH      O 7842   1.983   5.811   5.217
 1960EOH      C 7843   1.933   5.704   5.137
 1960EOH      C 7844   2.024   5.580   5.142
 1960EOH      H 7845   1.922   5.819   5.288
 1961EOH      O 7846   5.604   4.464   5.288
 1961EOH      C 7847   5.553   4.560   5.381
 1961EOH      C 7848   5.420   4.608   5.320
 1961EOH      H 7849   5.646   4.511   5.217
 1962EOH      O 7850   1.506   3.559   0.886
 1962EOH      C 7851   1.486   3.602   1.021
 1962EOH      C 7852   1.346   3.553   1.063
 1962EOH      H 7853   1.594   3.578   0.860
 1963EOH      O 7854   1.766   6.149   0.102
 1963EOH      C 7855   1.835   6.269   0.065
 1963EOH      C 7856   1.836   6.290  -0.087
 1963EOH      H 7857   1.684   6.142   0.056
 1964EOH      O 7858   0.633   0.433   3.970
 1964EOH      C 7859   0.661   0.356   4.087
 1964EOH      C 7860   0.519   0.317   4.132
 1964EOH      H 7861   0.700   0.408   3.909
 1965EOH      O 7862   3.271   6.012   2.421
 1965EOH      C 7863   3.222   6.142   2.456
 1965EOH      C 7864   3.237   6.155   2.609
 1965EOH      H 7865   3.197   5.964   2.389
 1966EOH      O 7866   2.096   5.597   0.968
 1966EOH      C 7867   2.038   5.720   1.011
 1966EOH      C 7868   1.925   5.700   1.114
 1966EOH      H 7869   2.169   5.621   0.913
 1967EOH      O 7870   6.250   5.167   0.099
 1967EOH      C 7871   6.195   5.183   0.230
 1967EOH      C 7872   6.167   5.048   0.298
 1967EOH      H 7873   6.307   5.242   0.092
 1968EOH      O 7874   0.645   4.455   4.770
 1968EOH      C 7875   0.506   4.490   4.756
 1968EOH      C 7876   0.418   4.411   4.854
 1968EOH      H 7877   0.664   4.482   4.858
 1969EOH      O 7878   5.296   5.364   4.288
 1969EOH      C 7879   5.360   5.492   4.287
 1969EOH      C 7880   5.513   5.482   4.275
 1969EOH      H 7881   5.328   5.316   4.363
 1970EOH      O 7882   5.594   1.184   2.476
 1970EOH      C 7883   5.596   1.051   2.526
 1970EOH      C 7884   5.458   0.987   2.502
 1970EOH      H 7885   5.581   1.246   2.546
 1971EOH      O 7886   2.709   1.075   5.221
 1971EOH      C 7887   2.822   1.111   5.141
 1971EOH      C 7888   2.782   1.112   4.992
 1971EOH      H 7889   2.689   0.986   5.197
 1972EOH      O 7890   2.250   5.040   2.763
 1972EOH      C 7891   2.196   5.173   2.762
 1972EOH      C 7892   2.107   5.198   2.886
 1972EOH      H 7893   2.328   5.044   2.710
 1973EOH      O 7894   4.537   2.385   0.345
 1973EOH      C 7895   4.511   2.515   0.400
 1973EOH      C 7896   4.638   2.574   0.465
 1973EOH      H 7897   4.457   2.337   0.331
 1974EOH      O 7898   2.468   4.286   3.130
 1974EOH      C 7899   2.501   4.188   3.031
 1974EOH      C 7900   2.617   4.098   3.078
 1974EOH      H 7901   2.379   4.311   3.112
 1975EOH      O 7902   3.988   1.279   2.724
 1975EOH      C 7903   3.960   1.265   2.585
 1975EOH      C 7904   3.925   1.408   2.540
 1975EOH      H 7905   3.917   1.248   2.778
 1976EOH      O 7906   1.838   0.740   6.143
 1976EOH      C 7907   1.841   0.679   6.014
 1976EOH      C 7908   1.705   0.607   6.009
 1976EOH      H 7909   1.830   0.834   6.135
 1977EOH      O 7910   4.488   2.123   4.693
 1977EOH      C 7911   4.426   2.055   4.803
 1977EOH      C 7912   4.328   2.144   4.881
 1977EOH      H 7913   4.582   2.115   4.701
 1978EOH      O 7914   2.333   1.083   3.255
 1978EOH      C 7915   2.394   1.091   3.126
 1978EOH      C 7916   2.305   1.184   3.041
 1978EOH      H 7917   2.241   1.104   3.252
 1979EOH      O 7918   2.725   2.604   4.170
 1979EOH      C 7919   2.663   2.575   4.044
 1979EOH      C 7920   2.697   2.687   3.944
 1979EOH      H 7921   2.711   2.532   4.229
 1980EOH      O 7922   3.850   3.548   6.046
 1980EOH      C 7923   3.824   3.530   6.185
 1980EOH      C 7924   3.934   3.438   6.242
 1980EOH      H 7925   3.831   3.640   6.036
 1981EOH      O 7926   6.164   3.661   1.518
 1981EOH      C 7927   6.065   3.586   1.447
 1981EOH      C 7928   6.128   3.587   1.307
 1981EOH      H 7929   6.130   3.695   1.600
 1982EOH      O 7930   3.476   0.530   4.920
 1982EOH      C 7931   3.473   0.543   4.778
 1982EOH      C 7932   3.539   0.674   4.731
 1982EOH      H 7933   3.415   0.465   4.950
 1983EOH      O 7934   4.857   4.692   5.764
 1983EOH      C 7935   4.967   4.777   5.797
 1983EOH      C 7936   5.072   4.801   5.686
 1983EOH      H 7937   4.780   4.742   5.788
 1984EOH      O 7938   1.594   5.417   6.076
 1984EOH      C 7939   1.727   5.442   6.028
 1984EOH      C 7940   1.808   5.316   6.062
 1984EOH      H 7941   1.557   5.341   6.034
 1985EOH      O 7942   3.692   4.716   2.163
 1985EOH      C 7943   3.559   4.670   2.186
 1985EOH      C 7944   3.486   4.754   2.292
 1985EOH      H 7945   3.741   4.661   2.104
 1986EOH      O 7946   4.406   1.246   1.655
 1986EOH      C 7947   4.373   1.349   1.561
 1986EOH      C 7948   4.245   1.305   1.488
 1986EOH      H 7949   4.364   1.263   1.738
 1987EOH      O 7950   0.918   5.766   2.561
 1987EOH      C 7951   0.786   5.766   2.615
 1987EOH      C 7952   0.815   5.740   2.764
 1987EOH      H 7953   0.913   5.729   2.474
 1988EOH      O 7954   5.712   3.266   2.859
 1988EOH      C 7955   5.618   3.162   2.836
 1988EOH      C 7956   5.672   3.058   2.735
 1988EOH      H 7957   5.668   3.338   2.902
 1989EOH      O 7958   4.909   3.150   1.564
 1989EOH      C 7959   4.899   3.042   1.657
 1989EOH      C 7960   4.842   2.926   1.572
 1989EOH      H 7961   5.001   3.166   1.552
 1990EOH      O 7962   5.192   5.590   2.157
 1990EOH      C 7963   5.066   5.644   2.116
 1990EOH      C 7964   5.088   5.776   2.041
 1990EOH      H 7965   5.180   5.540   2.236
 1991EOH      O 7966   5.114   3.290   4.103
 1991EOH      C 7967   5.075   3.412   4.041
 1991EOH      C 7968   5.198   3.470   3.967
 1991EOH      H 7969   5.032   3.246   4.120
 1992EOH      O 7970   2.101   4.054   3.796
 1992EOH      C 7971   2.119   3.918   3.756
 1992EOH      C 7972   2.104   3.889   3.605
 1992EOH      H 7973   2.023   4.097   3.765
 1993EOH      O 7974   1.960   0.173   4.455
 1993EOH      C 7975   2.075   0.251   4.422
 1993EOH      C 7976   2.046   0.331   4.294
 1993EOH      H 7977   1.976   0.129   4.537
 1994EOH      O 7978   4.070   5.563   6.183
 1994EOH      C 7979   3.956   5.479   6.161
 1994EOH      C 7980   3.990   5.406   6.029
 1994EOH      H 7981   4.037   5.648   6.161
 1995EOH      O 7982   4.939   3.472   0.114
 1995EOH      C 7983   4.906   3.418   0.242
 1995EOH      C 7984   4.866   3.540   0.327
 1995EOH      H 7985   5.001   3.411   0.077
 1996EOH      O 7986   0.646   2.957   2.267
 1996EOH      C 7987   0.711   2.885   2.163
 1996EOH      C 7988   0.715   2.735   2.198
 1996EOH      H 7989   0.707   2.976   2.337
 1997EOH      O 7990   3.778   3.652   1.533
 1997EOH      C 7991   3.870   3.562   1.471
 1997EOH      C 7992   3.797   3.444   1.403
 1997EOH      H 7993   3.749   3.718   1.472
 1998EOH      O 7994   1.082   0.047   5.745
 1998EOH      C 7995   1.108  -0.068   5.825
 1998EOH      C 7996   1.007  -0.178   5.784
 1998EOH      H 7997   1.146   0.112   5.769
 1999EOH      O 7998   3.215   5.583   3.011
 1999EOH      C 7999   3.143   5.469   2.961
 1999EOH      C 8000   3.067   5.401   3.076
 1999EOH      H 8001   3.268   5.611   2.938
 2000EOH      O 8002   0.393   2.242   3.554
 2000EOH      C 8003   0.385   2.110   3.610
 2000EOH      C 8004   0.514   2.026   3.611
 2000EOH      H 8005   0.309   2.277   3.529
 2001EOH      O 8006   4.530   3.905   2.792
 2001EOH      C 8007   4.407   3.853   2.842
 2001EOH      C 8008   4.394   3.828   2.993
 2001EOH      H 8009   4.592   3.833   2.795
 2002EOH      O 8010   1.050   3.300   4.896
 2002EOH      C 8011   1.058   3.166   4.947
 2002EOH      C 8012   1.158   3.164   5.064
 2002EOH      H 8013   1.027   3.291   4.805
 2003EOH      O 8014   2.343   3.644   6.173
 2003EOH      C 8015   2.282   3.515   6.172
 2003EOH      C 8016   2.133   3.523   6.211
 2003EOH      H 8017   2.283   3.707   6.136
 2004EOH      O 8018   4.443   6.217   5.521
 2004EOH      C 8019   4.403   6.266   5.393
 2004EOH      C 8020   4.305   6.166   5.330
 2004EOH      H 8021   4.489   6.282   5.572
 2005EOH      O 8022   3.297   0.396   5.039
 2005EOH      C 8023   3.219   0.282   5.002
 2005EOH      C 8024   3.291   0.160   5.063
 2005EOH      H 8025   3.249   0.454   5.096
 2006EOH      O 8026   3.769   1.689   3.778
 2006EOH      C 8027   3.675   1.790   3.817
 2006EOH      C 8028   3.552   1.746   3.735
 2006EOH      H 8029   3.775   1.635   3.855
 2007EOH      O 8030   6.006   1.109   3.408
 2007EOH      C 8031   6.035   0.970   3.386
 2007EOH      C 8032   5.925   0.910   3.297
 2007EOH      H 8033   6.084   1.162   3.411
 2008EOH      O 8034   4.500   4.058   5.633
 2008EOH      C 8035   4.598   4.048   5.530
 2008EOH      C 8036   4.662   3.909   5.508
 2008EOH      H 8037   4.466   4.146   5.647
 2009EOH      O 8038   1.256   5.690   5.538
 2009EOH      C 8039   1.315   5.774   5.638
 2009EOH      C 8040   1.407   5.676   5.714
 2009EOH      H 8041   1.222   5.745   5.469
 2010EOH      O 8042   4.345   2.249   0.277
 2010EOH      C 8043   4.282   2.141   0.347
 2010EOH      C 8044   4.164   2.188   0.436
 2010EOH      H 8045   4.394   2.212   0.206
 2011EOH      O 8046   2.278   2.469   0.165
 2011EOH      C 8047   2.159   2.523   0.223
 2011EOH      C 8048   2.166   2.539   0.376
 2011EOH      H 8049   2.273   2.472   0.070
 2012EOH      O 8050   0.805   3.897   5.005
 2012EOH      C 8051   0.814   3.757   5.032
 2012EOH      C 8052   0.680   3.682   5.021
 2012EOH      H 8053   0.857   3.937   5.073
 2013EOH      O 8054   0.988   5.026   1.232
 2013EOH      C 8055   1.126   5.046   1.265
 2013EOH      C 8056   1.202   4.912   1.257
 2013EOH      H 8057   0.946   4.987   1.307
 2014EOH      O 8058   0.702   5.599   5.110
 2014EOH      C 8059   0.654   5.534   5.227
 2014EOH      C 8060   0.758   5.518   5.340
 2014EOH      H 8061   0.750   5.534   5.062
 2015EOH      O 8062   3.352   2.897   0.925
 2015EOH      C 8063   3.439   2.785   0.946
 2015EOH      C 8064   3.370   2.660   1.003
 2015EOH      H 8065   3.283   2.856   0.874
 2016EOH      O 8066   0.627   1.780   4.278
 2016EOH      C 8067   0.695   1.863   4.372
 2016EOH      C 8068   0.778   1.967   4.295
 2016EOH      H 8069   0.542   1.814   4.256
 2017EOH      O 8070   0.807   2.529   5.139
 2017EOH      C 8071   0.863   2.421   5.213
 2017EOH      C 8072   0.855   2.290   5.132
 2017EOH      H 8073   0.839   2.607   5.181
 2018EOH      O 8074   0.819   5.358   1.951
 2018EOH      C 8075   0.825   5.491   2.004
 2018EOH      C 8076   0.934   5.568   1.926
 2018EOH      H 8077   0.773   5.363   1.868
 2019EOH      O 8078   2.957   2.090   4.974
 2019EOH      C 8079   2.828   2.077   5.034
 2019EOH      C 8080   2.838   1.982   5.155
 2019EOH      H 8081   2.957   2.031   4.900
 2020EOH      O 8082   4.511   2.193   0.103
 2020EOH      C 8083   4.487   2.260  -0.021
 2020EOH      C 8084   4.621   2.319  -0.067
 2020EOH      H 8085   4.539   2.106   0.078
 2021EOH      O 8086   2.437   5.696   5.189
 2021EOH      C 8087   2.402   5.678   5.051
 2021EOH      C 8088   2.518   5.718   4.959
 2021EOH      H 8089   2.358   5.735   5.223
 2022EOH      O 8090   2.023   4.871   2.758
 2022EOH      C 8091   2.034   4.738   2.808
 2022EOH      C 8092   2.104   4.657   2.697
 2022EOH      H 8093   2.105   4.916   2.772
 2023EOH      O 8094   3.512   4.512   2.687
 2023EOH      C 8095   3.551   4.384   2.737
 2023EOH      C 8096   3.697   4.360   2.695
 2023EOH      H 8097   3.424   4.527   2.718
 2024EOH      O 8098   6.186   0.079   2.870
 2024EOH      C 8099   6.176  -0.059   2.836
 2024EOH      C 8100   6.288  -0.147   2.895
 2024EOH      H 8101   6.222   0.080   2.958
 2025EOH      O 8102   1.850   0.597   2.525
 2025EOH      C 8103   1.828   0.732   2.481
 2025EOH      C 8104   1.958   0.800   2.526
 2025EOH      H 8105   1.789   0.546   2.474
 2026EOH      O 8106   5.289   5.226   4.547
 2026EOH      C 8107   5.168   5.152   4.537
 2026EOH      C 8108   5.208   5.003   4.533
 2026EOH      H 8109   5.286   5.237   4.641
 2027EOH      O 8110   2.130   2.465   3.675
 2027EOH      C 8111   2.110   2.401   3.549
 2027EOH      C 8112   1.976   2.448   3.489
 2027EOH      H 8113   2.219   2.460   3.705
 2028EOH      O 8114   4.880   0.753   2.149
 2028EOH      C 8115   4.961   0.835   2.064
 2028EOH      C 8116   5.059   0.743   1.989
 2028EOH      H 8117   4.913   0.766   2.237
 2029EOH      O 8118   1.638   2.984   5.107
 2029EOH      C 8119   1.500   2.977   5.070
 2029EOH      C 8120   1.441   2.835   5.053
 2029EOH      H 8121   1.664   3.074   5.121
 2030EOH      O 8122   5.285   5.732   2.605
 2030EOH      C 8123   5.345   5.807   2.499
 2030EOH      C 8124   5.250   5.895   2.417
 2030EOH      H 8125   5.210   5.686   2.571
 2031EOH      O 8126   3.124   0.033   5.584
 2031EOH      C 8127   3.202   0.140   5.531
 2031EOH      C 8128   3.300   0.185   5.641
 2031EOH      H 8129   3.095  -0.024   5.514
 2032EOH      O 8130   4.386   2.461   2.671
 2032EOH      C 8131   4.436   2.560   2.761
 2032EOH      C 8132   4.579   2.589   2.712
 2032EOH      H 8133   4.377   2.508   2.590
 2033EOH      O 8134   0.912   4.544   5.781
 2033EOH      C 8135   0.772   4.565   5.761
 2033EOH      C 8136   0.690   4.538   5.888
 2033EOH      H 8137   0.957   4.560   5.699
 2034EOH      O 8138   1.551   2.638   1.299
 2034EOH      C 8139   1.605   2.682   1.175
 2034EOH      C 8140   1.572   2.583   1.062
 2034EOH      H 8141   1.557   2.544   1.307
 2035EOH      O 8142   0.311   5.619   1.070
 2035EOH      C 8143   0.364   5.532   0.969
 2035EOH      C 8144   0.470   5.608   0.886
 2035EOH      H 8145   0.256   5.678   1.021
 2036EOH      O 8146   2.867   2.758   5.152
 2036EOH      C 8147   2.772   2.859   5.184
 2036EOH      C 8148   2.818   2.995   5.127
 2036EOH      H 8149   2.863   2.685   5.212
 2037EOH      O 8150   4.387   3.844   4.658
 2037EOH      C 8151   4.513   3.903   4.626
 2037EOH      C 8152   4.513   4.047   4.571
 2037EOH      H 8153   4.401   3.756   4.686
 2038EOH      O 8154   1.642   1.280   2.853
 2038EOH      C 8155   1.764   1.208   2.874
 2038EOH      C 8156   1.776   1.110   2.756
 2038EOH      H 8157   1.570   1.250   2.906
 2039EOH      O 8158   2.081   4.703   6.106
 2039EOH      C 8159   2.076   4.769   6.233
 2039EOH      C 8160   2.026   4.677   6.346
 2039EOH      H 8161   2.145   4.633   6.103
 2040EOH      O 8162   4.419   3.522   5.390
 2040EOH      C 8163   4.527   3.598   5.334
 2040EOH      C 8164   4.554   3.552   5.189
 2040EOH      H 8165   4.419   3.549   5.481
 2041EOH      O 8166   0.632   1.655   1.395
 2041EOH      C 8167   0.722   1.764   1.411
 2041EOH      C 8168   0.820   1.743   1.529
 2041EOH      H 8169   0.566   1.688   1.336
 2042EOH      O 8170   1.465   2.313   5.724
 2042EOH      C 8171   1.515   2.442   5.761
 2042EOH      C 8172   1.669   2.438   5.766
 2042EOH      H 8173   1.468   2.297   5.631
 2043EOH      O 8174   2.985   3.297   1.558
 2043EOH      C 8175   3.108   3.225   1.553
 2043EOH      C 8176   3.073   3.082   1.510
 2043EOH      H 8177   2.957   3.296   1.467
 2044EOH      O 8178   5.647   3.803   0.222
 2044EOH      C 8179   5.698   3.862   0.103
 2044EOH      C 8180   5.674   4.013   0.119
 2044EOH      H 8181   5.559   3.775   0.200
 2045EOH      O 8182   4.537   5.997   1.882
 2045EOH      C 8183   4.632   5.914   1.815
 2045EOH      C 8184   4.759   5.896   1.901
 2045EOH      H 8185   4.581   6.080   1.890
 2046EOH      O 8186   1.253   1.067   4.731
 2046EOH      C 8187   1.120   1.110   4.762
 2046EOH      C 8188   1.055   1.214   4.669
 2046EOH      H 8189   1.276   1.000   4.793
 2047EOH      O 8190   6.049   5.546   2.034
 2047EOH      C 8191   6.061   5.505   1.897
 2047EOH      C 8192   5.967   5.580   1.801
 2047EOH      H 8193   6.068   5.470   2.086
 2048EOH      O 8194   5.906   2.585   0.301
 2048EOH      C 8195   5.788   2.521   0.251
 2048EOH      C 8196   5.700   2.612   0.163
 2048EOH      H 8197   5.974   2.521   0.307
 2049EOH      O 8198   1.485   5.578   6.227
 2049EOH      C 8199   1.575   5.594   6.337
 2049EOH      C 8200   1.578   5.737   6.394
 2049EOH      H 8201   1.520   5.505   6.177
 2050EOH      O 8202   5.055   4.409   4.760
 2050EOH      C 8203   5.194   4.424   4.790
 2050EOH      C 8204   5.244   4.296   4.859
 2050EOH      H 8205   5.017   4.457   4.831
 2051EOH      O 8206   5.622   1.759   1.866
 2051EOH      C 8207   5.718   1.794   1.966
 2051EOH      C 8208   5.668   1.832   2.106
 2051EOH      H 8209   5.666   1.706   1.801
 2052EOH      O 8210   4.282   1.300   1.885
 2052EOH      C 8211   4.142   1.271   1.874
 2052EOH      C 8212   4.058   1.301   2.000
 2052EOH      H 8213   4.288   1.373   1.944
 2053EOH      O 8214   4.076   1.972   5.714
 2053EOH      C 8215   4.104   1.977   5.574
 2053EOH      C 8216   4.157   1.836   5.545
 2053EOH      H 8217   4.089   2.062   5.737
 2054EOH      O 8218   0.023   4.697   5.776
 2054EOH      C 8219   0.053   4.735   5.911
 2054EOH      C 8220   0.206   4.752   5.909
 2054EOH      H 8221  -0.055   4.644   5.768
 2055EOH      O 8222   4.243   4.363   2.842
 2055EOH      C 8223   4.243   4.440   2.722
 2055EOH      C 8224   4.100   4.445   2.664
 2055EOH      H 8225   4.333   4.336   2.853
 2056EOH      O 8226   4.549   5.022   5.717
 2056EOH      C 8227   4.563   5.161   5.746
 2056EOH      C 8228   4.703   5.177   5.808
 2056EOH      H 8229   4.611   5.001   5.649
 2057EOH      O 8230   1.499   6.136   0.015
 2057EOH      C 8231   1.418   6.076   0.116
 2057EOH      C 8232   1.270   6.114   0.097
 2057EOH      H 8233   1.469   6.107  -0.069
 2058EOH      O 8234   3.021   3.191   1.089
 2058EOH      C 8235   3.079   3.296   1.010
 2058EOH      C 8236   3.144   3.255   0.877
 2058EOH      H 8237   3.094   3.135   1.109
 2059EOH      O 8238   0.176   4.879   3.337
 2059EOH      C 8239   0.212   4.771   3.424
 2059EOH      C 8240   0.330   4.825   3.506
 2059EOH      H 8241   0.082   4.883   3.352
 2060EOH      O 8242   3.467   1.184   5.659
 2060EOH      C 8243   3.406   1.095   5.565
 2060EOH      C 8244   3.349   1.182   5.452
 2060EOH      H 8245   3.514   1.252   5.612
 2061EOH      O 8246   4.726   2.394   1.011
 2061EOH      C 8247   4.788   2.448   0.894
 2061EOH      C 8248   4.911   2.372   0.843
 2061EOH      H 8249   4.637   2.427   1.018
 2062EOH      O 8250   4.547   5.431   3.670
 2062EOH      C 8251   4.616   5.369   3.561
 2062EOH      C 8252   4.727   5.277   3.614
 2062EOH      H 8253   4.483   5.490   3.633
 2063EOH      O 8254   5.186   3.921   5.274
 2063EOH      C 8255   5.269   3.859   5.175
 2063EOH      C 8256   5.197   3.746   5.101
 2063EOH      H 8257   5.251   3.962   5.329
 2064EOH      O 8258   1.105   3.540   0.016
 2064EOH      C 8259   1.245   3.561   0.032
 2064EOH      C 8260   1.287   3.532   0.177
 2064EOH      H 8261   1.066   3.625   0.031
 2065EOH      O 8262   1.312   1.055   4.499
 2065EOH      C 8263   1.252   0.938   4.443
 2065EOH      C 8264   1.364   0.833   4.447
 2065EOH      H 8265   1.290   1.050   4.591
 2066EOH      O 8266   5.932   0.623   6.183
 2066EOH      C 8267   5.869   0.498   6.213
 2066EOH      C 8268   5.971   0.384   6.197
 2066EOH      H 8269   5.866   0.690   6.198
 2067EOH      O 8270   5.024   3.742   1.093
 2067EOH      C 8271   5.097   3.672   0.993
 2067EOH      C 8272   5.241   3.636   1.036
 2067EOH      H 8273   5.067   3.823   1.116
 2068EOH      O 8274   4.445   5.352   3.153
 2068EOH      C 8275   4.356   5.250   3.198
 2068EOH      C 8276   4.427   5.157   3.298
 2068EOH      H 8277   4.399   5.431   3.127
 2069EOH      O 8278   2.763   1.044   0.198
 2069EOH      C 8279   2.696   1.071   0.321
 2069EOH      C 8280   2.549   1.038   0.289
 2069EOH      H 8281   2.847   1.085   0.215
 2070EOH      O 8282   0.707   4.193   0.857
 2070EOH      C 8283   0.658   4.271   0.966
 2070EOH      C 8284   0.685   4.209   1.105
 2070EOH      H 8285   0.788   4.149   0.873
 2071EOH      O 8286   0.116   2.400   3.485
 2071EOH      C 8287  -0.015   2.354   3.518
 2071EOH      C 8288  -0.062   2.270   3.397
 2071EOH      H 8289   0.123   2.485   3.525
 2072EOH      O 8290   4.542   6.167   3.864
 2072EOH      C 8291   4.603   6.067   3.945
 2072EOH      C 8292   4.757   6.077   3.949
 2072EOH      H 8293   4.448   6.168   3.869
 2073EOH      O 8294   0.764   0.873   0.286
 2073EOH      C 8295   0.810   0.976   0.199
 2073EOH      C 8296   0.774   1.110   0.265
 2073EOH      H 8297   0.679   0.898   0.318
 2074EOH      O 8298   2.776   0.232   3.494
 2074EOH      C 8299   2.788   0.302   3.370
 2074EOH      C 8300   2.793   0.452   3.405
 2074EOH      H 8301   2.688   0.200   3.500
 2075EOH      O 8302   3.699   1.699   3.387
 2075EOH      C 8303   3.625   1.577   3.383
 2075EOH      C 8304   3.528   1.575   3.263
 2075EOH      H 8305   3.755   1.702   3.463
 2076EOH      O 8306   2.449   4.036   5.149
 2076EOH      C 8307   2.486   3.902   5.185
 2076EOH      C 8308   2.445   3.875   5.331
 2076EOH      H 8309   2.356   4.031   5.136
 2077EOH      O 8310   5.694   0.729   2.062
 2077EOH      C 8311   5.622   0.708   2.183
 2077EOH      C 8312   5.489   0.633   2.166
 2077EOH      H 8313   5.647   0.801   2.022
 2078EOH      O 8314   5.537   4.362   2.905
 2078EOH      C 8315   5.550   4.495   2.956
 2078EOH      C 8316   5.412   4.546   3.002
 2078EOH      H 8317   5.481   4.362   2.829
 2079EOH      O 8318   1.587   5.588   0.708
 2079EOH      C 8319   1.700   5.617   0.791
 2079EOH      C 8320   1.825   5.648   0.706
 2079EOH      H 8321   1.513   5.587   0.767
 2080EOH      O 8322   3.288   3.873   2.119
 2080EOH      C 8323   3.431   3.882   2.113
 2080EOH      C 8324   3.518   3.805   2.213
 2080EOH      H 8325   3.262   3.838   2.035
 2081EOH      O 8326   0.797   0.787   2.732
 2081EOH      C 8327   0.685   0.867   2.692
 2081EOH      C 8328   0.582   0.787   2.610
 2081EOH      H 8329   0.759   0.710   2.771
 2082EOH      O 8330   6.275   4.012   3.069
 2082EOH      C 8331   6.377   3.956   2.987
 2082EOH      C 8332   6.473   3.857   3.055
 2082EOH      H 8333   6.238   4.082   3.017
 2083EOH      O 8334   0.731   2.839   0.262
 2083EOH      C 8335   0.716   2.966   0.328
 2083EOH      C 8336   0.781   2.964   0.467
 2083EOH      H 8337   0.701   2.769   0.318
 2084EOH      O 8338   3.572   1.872   0.208
 2084EOH      C 8339   3.690   1.793   0.191
 2084EOH      C 8340   3.679   1.672   0.096
 2084EOH      H 8341   3.538   1.901   0.125
 2085EOH      O 8342   1.431   1.140   0.095
 2085EOH      C 8343   1.359   1.130   0.218
 2085EOH      C 8344   1.205   1.126   0.213
 2085EOH      H 8345   1.433   1.060   0.045
 2086EOH      O 8346   5.435   3.756   3.528
 2086EOH      C 8347   5.538   3.709   3.441
 2086EOH      C 8348   5.465   3.706   3.305
 2086EOH      H 8349   5.377   3.687   3.554
 2087EOH      O 8350   6.212   4.496   4.656
 2087EOH      C 8351   6.227   4.497   4.798
 2087EOH      C 8352   6.373   4.473   4.839
 2087EOH      H 8353   6.267   4.435   4.610
 2088EOH      O 8354   4.291   3.660   1.986
 2088EOH      C 8355   4.295   3.517   2.001
 2088EOH      C 8356   4.380   3.480   1.878
 2088EOH      H 8357   4.238   3.681   1.910
 2089EOH      O 8358   1.612   4.305   6.224
 2089EOH      C 8359   1.733   4.275   6.293
 2089EOH      C 8360   1.795   4.412   6.326
 2089EOH      H 8361   1.571   4.220   6.213
 2090EOH      O 8362   0.260   1.715   0.096
 2090EOH      C 8363   0.203   1.846   0.094
 2090EOH      C 8364   0.069   1.836   0.018
 2090EOH      H 8365   0.225   1.670   0.171
 2091EOH      O 8366   3.716   5.916   0.535
 2091EOH      C 8367   3.716   6.046   0.593
 2091EOH      C 8368   3.579   6.112   0.568
 2091EOH      H 8369   3.655   5.868   0.589
 2092EOH      O 8370   4.003   3.349   0.651
 2092EOH      C 8371   4.104   3.445   0.618
 2092EOH      C 8372   4.072   3.592   0.649
 2092EOH      H 8373   3.966   3.321   0.569
 2093EOH      O 8374   2.376   2.203   6.084
 2093EOH      C 8375   2.433   2.229   6.213
 2093EOH      C 8376   2.585   2.248   6.195
 2093EOH      H 8377   2.402   2.118   6.052
 2094EOH      O 8378   5.793   1.658   1.686
 2094EOH      C 8379   5.882   1.729   1.600
 2094EOH      C 8380   5.876   1.882   1.619
 2094EOH      H 8381   5.834   1.573   1.701
 2095EOH      O 8382   1.478   4.027   0.733
 2095EOH      C 8383   1.370   3.944   0.779
 2095EOH      C 8384   1.362   3.957   0.932
 2095EOH      H 8385   1.458   4.117   0.752
 2096EOH      O 8386   1.322   1.399   3.140
 2096EOH      C 8387   1.362   1.508   3.223
 2096EOH      C 8388   1.488   1.573   3.163
 2096EOH      H 8389   1.251   1.356   3.184
 2097EOH      O 8390   2.132   2.606   4.630
 2097EOH      C 8391   2.058   2.580   4.511
 2097EOH      C 8392   2.161   2.527   4.410
 2097EOH      H 8393   2.077   2.591   4.706
 2098EOH      O 8394   2.063   1.189   0.650
 2098EOH      C 8395   2.172   1.107   0.694
 2098EOH      C 8396   2.143   0.985   0.784
 2098EOH      H 8397   2.034   1.244   0.720
 2099EOH      O 8398   3.853   3.455   0.868
 2099EOH      C 8399   3.712   3.433   0.852
 2099EOH      C 8400   3.643   3.405   0.987
 2099EOH      H 8401   3.891   3.420   0.789
 2100EOH      O 8402   0.064   0.502   2.823
 2100EOH      C 8403   0.189   0.471   2.761
 2100EOH      C 8404   0.297   0.560   2.825
 2100EOH      H 8405   0.008   0.430   2.801
 2101EOH      O 8406   6.299   4.635   2.625
 2101EOH      C 8407   6.290   4.503   2.678
 2101EOH      C 8408   6.139   4.474   2.677
 2101EOH      H 8409   6.388   4.663   2.643
 2102EOH      O 8410   5.762   2.605   2.217
 2102EOH      C 8411   5.757   2.539   2.091
 2102EOH      C 8412   5.861   2.426   2.085
 2102EOH      H 8413   5.751   2.545   2.290
 2103EOH      O 8414   2.583   0.584   2.146
 2103EOH      C 8415   2.634   0.624   2.019
 2103EOH      C 8416   2.689   0.767   2.034
 2103EOH      H 8417   2.517   0.517   2.141
 2104EOH      O 8418   5.650   0.631   5.179
 2104EOH      C 8419   5.672   0.637   5.038
 2104EOH      C 8420   5.552   0.564   4.974
 2104EOH      H 8421   5.598   0.555   5.201
 2105EOH      O 8422   3.338   3.150   4.667
 2105EOH      C 8423   3.251   3.135   4.555
 2105EOH      C 8424   3.335   3.197   4.441
 2105EOH      H 8425   3.313   3.233   4.705
 2106EOH      O 8426   6.058   1.123   0.624
 2106EOH      C 8427   6.023   1.163   0.757
 2106EOH      C 8428   5.870   1.152   0.768
 2106EOH      H 8429   6.059   1.029   0.623
 2107EOH      O 8430   1.036   5.326   2.914
 2107EOH      C 8431   1.006   5.460   2.952
 2107EOH      C 8432   1.119   5.553   2.903
 2107EOH      H 8433   0.956   5.279   2.929
 2108EOH      O 8434   4.501   5.918   0.119
 2108EOH      C 8435   4.396   5.858   0.196
 2108EOH      C 8436   4.264   5.873   0.118
 2108EOH      H 8437   4.476   6.008   0.105
 2109EOH      O 8438   4.788   5.521   4.892
 2109EOH      C 8439   4.763   5.496   5.031
 2109EOH      C 8440   4.672   5.601   5.098
 2109EOH      H 8441   4.837   5.446   4.862
 2110EOH      O 8442   4.487   0.564   5.591
 2110EOH      C 8443   4.502   0.568   5.449
 2110EOH      C 8444   4.419   0.681   5.384
 2110EOH      H 8445   4.572   0.583   5.627
 2111EOH      O 8446   4.251   3.288   1.514
 2111EOH      C 8447   4.223   3.426   1.486
 2111EOH      C 8448   4.309   3.473   1.367
 2111EOH      H 8449   4.227   3.267   1.603
 2112EOH      O 8450   0.208   0.912   2.827
 2112EOH      C 8451   0.122   1.018   2.785
 2112EOH      C 8452   0.128   1.115   2.905
 2112EOH      H 8453   0.159   0.833   2.844
 2113EOH      O 8454   4.420   2.672   4.216
 2113EOH      C 8455   4.418   2.580   4.326
 2113EOH      C 8456   4.290   2.610   4.406
 2113EOH      H 8457   4.398   2.624   4.137
 2114EOH      O 8458   0.056   3.468   4.975
 2114EOH      C 8459   0.039   3.330   5.011
 2114EOH      C 8460   0.046   3.251   4.878
 2114EOH      H 8461   0.150   3.476   4.985
 2115EOH      O 8462   1.599   4.413   5.647
 2115EOH      C 8463   1.552   4.488   5.534
 2115EOH      C 8464   1.633   4.617   5.510
 2115EOH      H 8465   1.538   4.346   5.673
 2116EOH      O 8466   0.764   0.828   4.764
 2116EOH      C 8467   0.803   0.749   4.652
 2116EOH      C 8468   0.956   0.755   4.633
 2116EOH      H 8469   0.671   0.840   4.753
 2117EOH      O 8470   5.941   6.180   0.030
 2117EOH      C 8471   6.069   6.119   0.045
 2117EOH      C 8472   6.130   6.071  -0.088
 2117EOH      H 8473   5.873   6.132   0.074
 2118EOH      O 8474   2.556   0.132   3.540
 2118EOH      C 8475   2.559  -0.006   3.573
 2118EOH      C 8476   2.608  -0.013   3.719
 2118EOH      H 8477   2.468   0.140   3.508
 2119EOH      O 8478   0.605   0.741   3.521
 2119EOH      C 8479   0.566   0.656   3.629
 2119EOH      C 8480   0.554   0.515   3.570
 2119EOH      H 8481   0.537   0.800   3.493
 2120EOH      O 8482   4.328   0.878   1.374
 2120EOH      C 8483   4.295   0.972   1.273
 2120EOH      C 8484   4.182   0.899   1.198
 2120EOH      H 8485   4.350   0.926   1.452
 2121EOH      O 8486   1.748   1.635   2.146
 2121EOH      C 8487   1.624   1.564   2.143
 2121EOH      C 8488   1.499   1.643   2.185
 2121EOH      H 8489   1.785   1.623   2.233
 2122EOH      O 8490   3.775   2.883   0.625
 2122EOH      C 8491   3.756   2.742   0.612
 2122EOH      C 8492   3.609   2.701   0.634
 2122EOH      H 8493   3.754   2.914   0.712
 2123EOH      O 8494   5.755   1.353   4.013
 2123EOH      C 8495   5.860   1.279   3.950
 2123EOH      C 8496   5.897   1.147   4.022
 2123EOH      H 8497   5.735   1.421   3.951
 2124EOH      O 8498   1.489   2.789   1.481
 2124EOH      C 8499   1.397   2.717   1.564
 2124EOH      C 8500   1.425   2.767   1.707
 2124EOH      H 8501   1.526   2.735   1.413
 2125EOH      O 8502   4.751   0.796   6.123
 2125EOH      C 8503   4.750   0.933   6.083
 2125EOH      C 8504   4.814   1.023   6.191
 2125EOH      H 8505   4.696   0.750   6.061
 2126EOH      O 8506   2.344   2.571   2.882
 2126EOH      C 8507   2.294   2.702   2.852
 2126EOH      C 8508   2.346   2.812   2.946
 2126EOH      H 8509   2.406   2.543   2.817
 2127EOH      O 8510   2.937   1.931   4.724
 2127EOH      C 8511   2.823   1.901   4.643
 2127EOH      C 8512   2.721   1.818   4.723
 2127EOH      H 8513   2.982   2.001   4.680
 2128EOH      O 8514   6.236   4.921   0.950
 2128EOH      C 8515   6.127   5.012   0.934
 2128EOH      C 8516   6.054   4.970   0.805
 2128EOH      H 8517   6.288   4.948   1.025
 2129EOH      O 8518   5.860   0.174   4.368
 2129EOH      C 8519   5.847   0.134   4.232
 2129EOH      C 8520   5.744   0.217   4.154
 2129EOH      H 8521   5.780   0.192   4.414
 2130EOH      O 8522   4.219   0.787   3.017
 2130EOH      C 8523   4.302   0.671   3.029
 2130EOH      C 8524   4.446   0.726   3.034
 2130EOH      H 8525   4.240   0.848   3.086
 2131EOH      O 8526   2.073   0.483   5.784
 2131EOH      C 8527   2.162   0.520   5.890
 2131EOH      C 8528   2.188   0.387   5.963
 2131EOH      H 8529   2.025   0.554   5.745
 2132EOH      O 8530   5.833   1.837   3.047
 2132EOH      C 8531   5.806   1.787   2.915
 2132EOH      C 8532   5.893   1.661   2.895
 2132EOH      H 8533   5.868   1.923   3.027
 2133EOH      O 8534   3.846   2.242   3.543
 2133EOH      C 8535   3.821   2.292   3.412
 2133EOH      C 8536   3.945   2.367   3.361
 2133EOH      H 8537   3.783   2.175   3.566
 2134EOH      O 8538   4.897   3.659   6.281
 2134EOH      C 8539   4.857   3.782   6.342
 2134EOH      C 8540   4.718   3.764   6.407
 2134EOH      H 8541   4.914   3.594   6.347
 2135EOH      O 8542   0.847   5.093   0.785
 2135EOH      C 8543   0.949   5.024   0.857
 2135EOH      C 8544   1.091   5.077   0.829
 2135EOH      H 8545   0.773   5.035   0.774
 2136EOH      O 8546   3.546   4.994   1.837
 2136EOH      C 8547   3.500   4.859   1.845
 2136EOH      C 8548   3.395   4.826   1.737
 2136EOH      H 8549   3.639   4.985   1.851
 2137EOH      O 8550   0.508   3.569   2.838
 2137EOH      C 8551   0.382   3.630   2.809
 2137EOH      C 8552   0.397   3.762   2.731
 2137EOH      H 8553   0.501   3.502   2.904
 2138EOH      O 8554   0.920   4.311   3.227
 2138EOH      C 8555   1.034   4.270   3.302
 2138EOH      C 8556   1.105   4.167   3.212
 2138EOH      H 8557   0.860   4.355   3.285
 2139EOH      O 8558   4.922   1.386   4.503
 2139EOH      C 8559   4.921   1.344   4.640
 2139EOH      C 8560   4.824   1.224   4.648
 2139EOH      H 8561   4.997   1.353   4.456
 2140EOH      O 8562   4.449   5.941   2.551
 2140EOH      C 8563   4.523   5.889   2.440
 2140EOH      C 8564   4.466   5.754   2.392
 2140EOH      H 8565   4.497   5.932   2.632
 2141EOH      O 8566   0.537   1.621   4.867
 2141EOH      C 8567   0.558   1.647   4.728
 2141EOH      C 8568   0.706   1.646   4.686
 2141EOH      H 8569   0.457   1.571   4.871
 2142EOH      O 8570   1.259   2.543   4.644
 2142EOH      C 8571   1.295   2.443   4.741
 2142EOH      C 8572   1.212   2.465   4.869
 2142EOH      H 8573   1.254   2.495   4.564
 2143EOH      O 8574   0.287   5.615   3.656
 2143EOH      C 8575   0.345   5.633   3.785
 2143EOH      C 8576   0.495   5.599   3.773
 2143EOH      H 8577   0.197   5.642   3.667
 2144EOH      O 8578   5.573   5.338   5.908
 2144EOH      C 8579   5.631   5.378   6.032
 2144EOH      C 8580   5.701   5.515   6.024
 2144EOH      H 8581   5.496   5.392   5.898
 2145EOH      O 8582   1.052   3.173   2.715
 2145EOH      C 8583   1.081   3.077   2.818
 2145EOH      C 8584   0.971   3.087   2.926
 2145EOH      H 8585   1.126   3.179   2.656
 2146EOH      O 8586   0.256   5.441   5.353
 2146EOH      C 8587   0.314   5.562   5.403
 2146EOH      C 8588   0.183   5.642   5.409
 2146EOH      H 8589   0.327   5.384   5.326
 2147EOH      O 8590   0.860   4.350   4.092
 2147EOH      C 8591   0.991   4.299   4.063
 2147EOH      C 8592   1.076   4.413   4.004
 2147EOH      H 8593   0.805   4.291   4.141
 2148EOH      O 8594   2.558   0.518   4.787
 2148EOH      C 8595   2.530   0.645   4.728
 2148EOH      C 8596   2.633   0.652   4.613
 2148EOH      H 8597   2.495   0.496   4.854
 2149EOH      O 8598   6.224   4.353   0.913
 2149EOH      C 8599   6.194   4.484   0.962
 2149EOH      C 8600   6.055   4.477   1.027
 2149EOH      H 8601   6.186   4.341   0.827
 2150EOH      O 8602   1.135   2.675   3.072
 2150EOH      C 8603   1.265   2.686   3.015
 2150EOH      C 8604   1.271   2.786   2.898
 2150EOH      H 8605   1.148   2.613   3.141
 2151EOH      O 8606   0.625   4.972   0.768
 2151EOH      C 8607   0.531   5.009   0.869
 2151EOH      C 8608   0.513   5.161   0.852
 2151EOH      H 8609   0.605   4.882   0.748
 2152EOH      O 8610   5.120   5.897   0.927
 2152EOH      C 8611   5.016   5.995   0.936
 2152EOH      C 8612   5.050   6.085   0.816
 2152EOH      H 8613   5.096   5.854   0.846
 2153EOH      O 8614   5.582   2.610   5.026
 2153EOH      C 8615   5.472   2.594   5.117
 2153EOH      C 8616   5.454   2.476   5.214
 2153EOH      H 8617   5.547   2.628   4.940
 2154EOH      O 8618   3.056   5.476   4.117
 2154EOH      C 8619   2.945   5.400   4.165
 2154EOH      C 8620   2.997   5.279   4.246
 2154EOH      H 8621   3.030   5.494   4.028
 2155EOH      O 8622   0.861   2.320   1.167
 2155EOH      C 8623   0.744   2.377   1.228
 2155EOH      C 8624   0.778   2.393   1.377
 2155EOH      H 8625   0.931   2.379   1.192
 2156EOH      O 8626   3.641   5.510   0.328
 2156EOH      C 8627   3.735   5.401   0.325
 2156EOH      C 8628   3.802   5.370   0.459
 2156EOH      H 8629   3.697   5.585   0.316
 2157EOH      O 8630   6.093   3.277   4.542
 2157EOH      C 8631   6.131   3.414   4.554
 2157EOH      C 8632   6.284   3.427   4.552
 2157EOH      H 8633   5.999   3.282   4.553
 2158EOH      O 8634   1.512   4.080   2.759
 2158EOH      C 8635   1.516   4.154   2.636
 2158EOH      C 8636   1.514   4.055   2.519
 2158EOH      H 8637   1.505   4.138   2.833
 2159EOH      O 8638   4.880   1.671   5.837
 2159EOH      C 8639   4.756   1.615   5.793
 2159EOH      C 8640   4.707   1.703   5.676
 2159EOH      H 8641   4.911   1.606   5.898
 2160EOH      O 8642   3.085   1.788   6.150
 2160EOH      C 8643   2.996   1.883   6.090
 2160EOH      C 8644   3.040   2.016   6.154
 2160EOH      H 8645   3.029   1.721   6.187
 2161EOH      O 8646   0.942   5.676   2.287
 2161EOH      C 8647   1.055   5.763   2.283
 2161EOH      C 8648   1.029   5.888   2.196
 2161EOH      H 8649   0.972   5.589   2.266
 2162EOH      O 8650   0.758   4.379   4.547
 2162EOH      C 8651   0.894   4.357   4.588
 2162EOH      C 8652   0.971   4.392   4.459
 2162EOH      H 8653   0.708   4.388   4.626
 2163EOH      O 8654   2.108   1.193   3.337
 2163EOH      C 8655   2.029   1.296   3.397
 2163EOH      C 8656   2.087   1.436   3.369
 2163EOH      H 8657   2.087   1.115   3.385
 2164EOH      O 8658   4.063   0.286   0.290
 2164EOH      C 8659   3.955   0.343   0.364
 2164EOH      C 8660   4.016   0.411   0.489
 2164EOH      H 8661   4.027   0.244   0.214
 2165EOH      O 8662   4.546   0.240   4.716
 2165EOH      C 8663   4.648   0.196   4.625
 2165EOH      C 8664   4.630   0.043   4.629
 2165EOH      H 8665   4.555   0.179   4.788
 2166EOH      O 8666   5.184   0.727   5.440
 2166EOH      C 8667   5.295   0.801   5.390
 2166EOH      C 8668   5.297   0.942   5.451
 2166EOH      H 8669   5.115   0.715   5.376
 2167EOH      O 8670   3.820   1.152   6.300
 2167EOH      C 8671   3.708   1.231   6.339
 2167EOH      C 8672   3.638   1.307   6.225
 2167EOH      H 8673   3.872   1.119   6.371
 2168EOH      O 8674   4.367   2.776   5.921
 2168EOH      C 8675   4.263   2.873   5.930
 2168EOH      C 8676   4.306   3.006   5.865
 2168EOH      H 8677   4.396   2.755   6.008
 2169EOH      O 8678   5.605   1.208   3.236
 2169EOH      C 8679   5.695   1.225   3.126
 2169EOH      C 8680   5.603   1.222   3.003
 2169EOH      H 8681   5.655   1.182   3.311
 2170EOH      O 8682   0.008   4.121   1.738
 2170EOH      C 8683   0.091   4.005   1.724
 2170EOH      C 8684   0.042   3.933   1.597
 2170EOH      H 8685  -0.078   4.083   1.730
 2171EOH      O 8686   1.107   1.002   2.568
 2171EOH      C 8687   1.028   1.120   2.549
 2171EOH      C 8688   1.109   1.231   2.481
 2171EOH      H 8689   1.071   0.955   2.642
 2172EOH      O 8690   3.017   3.485   5.333
 2172EOH      C 8691   3.051   3.349   5.302
 2172EOH      C 8692   3.016   3.261   5.423
 2172EOH      H 8693   2.935   3.491   5.379
 2173EOH      O 8694   2.137   3.367   1.493
 2173EOH      C 8695   2.173   3.335   1.358
 2173EOH      C 8696   2.316   3.383   1.326
 2173EOH      H 8697   2.083   3.297   1.526
 2174EOH      O 8698   1.980   3.882   4.796
 2174EOH      C 8699   1.880   3.797   4.739
 2174EOH      C 8700   1.776   3.764   4.848
 2174EOH      H 8701   1.972   3.964   4.750
 2175EOH      O 8702   6.090   2.526   5.037
 2175EOH      C 8703   6.221   2.469   5.047
 2175EOH      C 8704   6.293   2.492   5.181
 2175EOH      H 8705   6.043   2.482   4.968
 2176EOH      O 8706   4.650   2.348   4.502
 2176EOH      C 8707   4.741   2.415   4.590
 2176EOH      C 8708   4.826   2.524   4.523
 2176EOH      H 8709   4.635   2.261   4.535
 2177EOH      O 8710   0.592   5.114   5.820
 2177EOH      C 8711   0.525   5.033   5.917
 2177EOH      C 8712   0.595   4.897   5.899
 2177EOH      H 8713   0.562   5.203   5.830
 2178EOH      O 8714   3.239   5.150   0.617
 2178EOH      C 8715   3.129   5.138   0.707
 2178EOH      C 8716   3.012   5.228   0.662
 2178EOH      H 8717   3.284   5.229   0.642
 2179EOH      O 8718   2.284   4.532   6.122
 2179EOH      C 8719   2.244   4.419   6.044
 2179EOH      C 8720   2.129   4.348   6.117
 2179EOH      H 8721   2.314   4.499   6.205
 2180EOH      O 8722   2.924   1.104   3.585
 2180EOH      C 8723   2.965   1.066   3.716
 2180EOH      C 8724   3.090   1.153   3.739
 2180EOH      H 8725   2.833   1.079   3.575
 2181EOH      O 8726   4.469   3.086   3.022
 2181EOH      C 8727   4.329   3.063   3.003
 2181EOH      C 8728   4.305   3.087   2.853
 2181EOH      H 8729   4.480   3.161   3.077
 2182EOH      O 8730   3.420   5.704   1.057
 2182EOH      C 8731   3.421   5.747   1.193
 2182EOH      C 8732   3.565   5.740   1.247
 2182EOH      H 8733   3.375   5.621   1.056
 2183EOH      O 8734   3.562   5.631   5.329
 2183EOH      C 8735   3.628   5.662   5.206
 2183EOH      C 8736   3.755   5.749   5.218
 2183EOH      H 8737   3.535   5.713   5.367
 2184EOH      O 8738   5.421   2.608   3.700
 2184EOH      C 8739   5.342   2.669   3.803
 2184EOH      C 8740   5.201   2.629   3.758
 2184EOH      H 8741   5.430   2.516   3.720
 2185EOH      O 8742   5.382   2.384   0.439
 2185EOH      C 8743   5.477   2.320   0.353
 2185EOH      C 8744   5.582   2.244   0.438
 2185EOH      H 8745   5.315   2.427   0.388
 2186EOH      O 8746   0.078   4.725   3.868
 2186EOH      C 8747   0.097   4.671   3.999
 2186EOH      C 8748  -0.029   4.589   4.033
 2186EOH      H 8749   0.119   4.664   3.809
 2187EOH      O 8750   3.610   3.472   4.950
 2187EOH      C 8751   3.626   3.611   4.977
 2187EOH      C 8752   3.499   3.682   4.926
 2187EOH      H 8753   3.607   3.453   4.857
 2188EOH      O 8754   0.882   2.814   0.983
 2188EOH      C 8755   0.776   2.823   0.887
 2188EOH      C 8756   0.690   2.945   0.926
 2188EOH      H 8757   0.942   2.886   0.974
 2189EOH      O 8758   6.208   5.706   2.344
 2189EOH      C 8759   6.330   5.773   2.312
 2189EOH      C 8760   6.372   5.719   2.174
 2189EOH      H 8761   6.137   5.730   2.288
 2190EOH      O 8762   3.493   5.830   5.448
 2190EOH      C 8763   3.424   5.954   5.430
 2190EOH      C 8764   3.365   5.989   5.568
 2190EOH      H 8765   3.518   5.827   5.539
 2191EOH      O 8766   1.522   2.666   0.489
 2191EOH      C 8767   1.457   2.775   0.424
 2191EOH      C 8768   1.461   2.901   0.513
 2191EOH      H 8769   1.456   2.624   0.543
 2192EOH      O 8770   3.229   3.947   2.350
 2192EOH      C 8771   3.180   3.855   2.448
 2192EOH      C 8772   3.065   3.775   2.384
 2192EOH      H 8773   3.249   3.899   2.271
 2193EOH      O 8774   3.866   1.343   3.893
 2193EOH      C 8775   3.900   1.302   3.760
 2193EOH      C 8776   4.000   1.186   3.775
 2193EOH      H 8777   3.813   1.280   3.940
 2194EOH      O 8778   1.760   0.294   4.571
 2194EOH      C 8779   1.785   0.424   4.624
 2194EOH      C 8780   1.681   0.463   4.731
 2194EOH      H 8781   1.838   0.263   4.528
 2195EOH      O 8782   2.020   1.800   0.836
 2195EOH      C 8783   2.121   1.882   0.777
 2195EOH      C 8784   2.045   1.986   0.692
 2195EOH      H 8785   2.054   1.752   0.910
 2196EOH      O 8786   0.025   5.702   0.705
 2196EOH      C 8787   0.019   5.685   0.563
 2196EOH      C 8788   0.138   5.605   0.507
 2196EOH      H 8789  -0.054   5.745   0.734
 2197EOH      O 8790   0.393   1.830   4.195
 2197EOH      C 8791   0.394   1.915   4.080
 2197EOH      C 8792   0.328   1.846   3.959
 2197EOH      H 8793   0.313   1.839   4.244
 2198EOH      O 8794   2.482   3.030   0.124
 2198EOH      C 8795   2.407   3.147   0.159
 2198EOH      C 8796   2.268   3.103   0.210
 2198EOH      H 8797   2.523   3.051   0.042
 2199EOH      O 8798   5.875   5.405   0.232
 2199EOH      C 8799   5.775   5.392   0.131
 2199EOH      C 8800   5.645   5.461   0.179
 2199EOH      H 8801   5.957   5.430   0.194
 2200EOH      O 8802   3.512   2.303   0.837
 2200EOH      C 8803   3.369   2.303   0.831
 2200EOH      C 8804   3.324   2.334   0.688
 2200EOH      H 8805   3.549   2.249   0.769
 2201EOH      O 8806   3.565   4.710   5.888
 2201EOH      C 8807   3.442   4.716   5.816
 2201EOH      C 8808   3.455   4.842   5.728
 2201EOH      H 8809   3.548   4.659   5.966
 2202EOH      O 8810   2.227   2.397   6.004
 2202EOH      C 8811   2.165   2.332   5.893
 2202EOH      C 8812   2.076   2.432   5.817
 2202EOH      H 8813   2.278   2.324   6.037
 2203EOH      O 8814   1.451   5.228   3.140
 2203EOH      C 8815   1.346   5.132   3.155
 2203EOH      C 8816   1.364   5.022   3.261
 2203EOH      H 8817   1.465   5.245   3.048
 2204EOH      O 8818   1.616   1.543   2.759
 2204EOH      C 8819   1.504   1.540   2.670
 2204EOH      C 8820   1.492   1.669   2.587
 2204EOH      H 8821   1.640   1.457   2.787
 2205EOH      O 8822   3.296   3.066   2.915
 2205EOH      C 8823   3.182   3.151   2.902
 2205EOH      C 8824   3.118   3.136   2.762
 2205EOH      H 8825   3.372   3.118   2.934
 2206EOH      O 8826   2.352   5.770   1.683
 2206EOH      C 8827   2.355   5.627   1.685
 2206EOH      C 8828   2.419   5.575   1.815
 2206EOH      H 8829   2.415   5.796   1.618
 2207EOH      O 8830   3.732   0.151   5.934
 2207EOH      C 8831   3.625   0.077   5.993
 2207EOH      C 8832   3.601  -0.051   5.911
 2207EOH      H 8833   3.708   0.238   5.908
 2208EOH      O 8834   1.685   1.773   4.067
 2208EOH      C 8835   1.801   1.724   3.998
 2208EOH      C 8836   1.932   1.735   4.079
 2208EOH      H 8837   1.640   1.823   4.000
 2209EOH      O 8838   2.843   0.760   5.023
 2209EOH      C 8839   2.874   0.630   4.971
 2209EOH      C 8840   2.938   0.627   4.831
 2209EOH      H 8841   2.924   0.804   5.002
 2210EOH      O 8842   3.708   2.346   4.861
 2210EOH      C 8843   3.630   2.265   4.949
 2210EOH      C 8844   3.515   2.217   4.859
 2210EOH      H 8845   3.798   2.348   4.890
 2211EOH      O 8846   2.103   6.128   3.886
 2211EOH      C 8847   2.216   6.187   3.819
 2211EOH      C 8848   2.257   6.081   3.715
 2211EOH      H 8849   2.061   6.204   3.923
 2212EOH      O 8850   1.871   1.658   2.356
 2212EOH      C 8851   1.903   1.561   2.457
 2212EOH      C 8852   1.980   1.453   2.379
 2212EOH      H 8853   1.845   1.735   2.403
 2213EOH      O 8854   0.458   1.231   1.627
 2213EOH      C 8855   0.569   1.318   1.605
 2213EOH      C 8856   0.572   1.441   1.697
 2213EOH      H 8857   0.470   1.187   1.710
 2214EOH      O 8858   3.002   4.897   5.884
 2214EOH      C 8859   2.968   4.832   5.762
 2214EOH      C 8860   2.874   4.712   5.780
 2214EOH      H 8861   2.919   4.926   5.917
 2215EOH      O 8862   3.480   1.871   2.375
 2215EOH      C 8863   3.352   1.881   2.438
 2215EOH      C 8864   3.240   1.894   2.333
 2215EOH      H 8865   3.535   1.948   2.379
 2216EOH      O 8866   3.514   1.355   1.783
 2216EOH      C 8867   3.440   1.412   1.675
 2216EOH      C 8868   3.385   1.550   1.717
 2216EOH      H 8869   3.603   1.336   1.761
 2217EOH      O 8870   1.740   0.266   3.524
 2217EOH      C 8871   1.637   0.248   3.622
 2217EOH      C 8872   1.657   0.105   3.675
 2217EOH      H 8873   1.728   0.199   3.459
 2218EOH      O 8874   4.876   2.873   5.790
 2218EOH      C 8875   4.996   2.938   5.833
 2218EOH      C 8876   5.093   2.975   5.719
 2218EOH      H 8877   4.841   2.913   5.711
 2219EOH      O 8878   5.108   0.434   1.384
 2219EOH      C 8879   4.970   0.466   1.360
 2219EOH      C 8880   4.939   0.388   1.231
 2219EOH      H 8881   5.154   0.510   1.415
 2220EOH      O 8882   5.419   3.995   4.357
 2220EOH      C 8883   5.289   4.054   4.351
 2220EOH      C 8884   5.306   4.206   4.326
 2220EOH      H 8885   5.451   3.997   4.268
 2221EOH      O 8886   3.381   1.182   0.317
 2221EOH      C 8887   3.495   1.263   0.343
 2221EOH      C 8888   3.588   1.195   0.446
 2221EOH      H 8889   3.313   1.226   0.268
 2222EOH      O 8890   2.006   5.360   0.960
 2222EOH      C 8891   2.113   5.282   0.905
 2222EOH      C 8892   2.193   5.356   0.797
 2222EOH      H 8893   2.034   5.450   0.959
 2223EOH      O 8894   5.012   5.540   3.288
 2223EOH      C 8895   4.884   5.477   3.284
 2223EOH      C 8896   4.903   5.349   3.201
 2223EOH      H 8897   5.030   5.534   3.381
 2224EOH      O 8898   0.548   1.482   2.499
 2224EOH      C 8899   0.638   1.468   2.389
 2224EOH      C 8900   0.776   1.514   2.441
 2224EOH      H 8901   0.495   1.405   2.513
 2225EOH      O 8902   3.608   2.408   1.956
 2225EOH      C 8903   3.551   2.477   1.844
 2225EOH      C 8904   3.424   2.546   1.896
 2225EOH      H 8905   3.585   2.317   1.949
 2226EOH      O 8906   6.017   5.229   4.659
 2226EOH      C 8907   5.977   5.108   4.724
 2226EOH      C 8908   6.098   5.046   4.795
 2226EOH      H 8909   5.994   5.208   4.570
 2227EOH      O 8910   0.309   0.830   0.790
 2227EOH      C 8911   0.280   0.944   0.871
 2227EOH      C 8912   0.405   1.034   0.868
 2227EOH      H 8913   0.310   0.754   0.846
 2228EOH      O 8914   3.706   0.276   2.614
 2228EOH      C 8915   3.671   0.290   2.752
 2228EOH      C 8916   3.715   0.421   2.820
 2228EOH      H 8917   3.799   0.261   2.604
 2229EOH      O 8918   0.093   2.825   2.690
 2229EOH      C 8919   0.024   2.893   2.585
 2229EOH      C 8920  -0.031   2.790   2.486
 2229EOH      H 8921   0.034   2.825   2.764
 2230EOH      O 8922   0.492   1.723   1.180
 2230EOH      C 8923   0.370   1.687   1.114
 2230EOH      C 8924   0.245   1.735   1.190
 2230EOH      H 8925   0.539   1.785   1.126
 2231EOH      O 8926   2.611   3.250   6.022
 2231EOH      C 8927   2.686   3.287   5.906
 2231EOH      C 8928   2.715   3.159   5.825
 2231EOH      H 8929   2.529   3.222   5.985
 2232EOH      O 8930   3.015   2.534   2.734
 2232EOH      C 8931   3.121   2.613   2.788
 2232EOH      C 8932   3.086   2.763   2.790
 2232EOH      H 8933   3.046   2.451   2.700
 2233EOH      O 8934   4.313   0.393   0.273
 2233EOH      C 8935   4.366   0.486   0.368
 2233EOH      C 8936   4.303   0.620   0.326
 2233EOH      H 8937   4.223   0.371   0.290
 2234EOH      O 8938   4.414   1.500   2.349
 2234EOH      C 8939   4.405   1.369   2.405
 2234EOH      C 8940   4.272   1.295   2.381
 2234EOH      H 8941   4.411   1.564   2.418
 2235EOH      O 8942   4.756   3.301   1.452
 2235EOH      C 8943   4.636   3.341   1.519
 2235EOH      C 8944   4.677   3.416   1.648
 2235EOH      H 8945   4.806   3.239   1.504
 2236EOH      O 8946   5.366   2.149   3.903
 2236EOH      C 8947   5.278   2.120   4.012
 2236EOH      C 8948   5.216   2.252   4.062
 2236EOH      H 8949   5.420   2.071   3.909
 2237EOH      O 8950   3.839   2.416   2.072
 2237EOH      C 8951   3.937   2.381   1.973
 2237EOH      C 8952   4.076   2.390   2.040
 2237EOH      H 8953   3.753   2.419   2.031
 2238EOH      O 8954   4.323   0.788   3.524
 2238EOH      C 8955   4.377   0.729   3.405
 2238EOH      C 8956   4.524   0.703   3.440
 2238EOH      H 8957   4.321   0.882   3.528
 2239EOH      O 8958   0.509   4.896   2.213
 2239EOH      C 8959   0.368   4.893   2.233
 2239EOH      C 8960   0.308   5.034   2.216
 2239EOH      H 8961   0.542   4.808   2.219
 2240EOH      O 8962   2.266   0.007   2.418
 2240EOH      C 8963   2.124   0.010   2.437
 2240EOH      C 8964   2.076   0.154   2.463
 2240EOH      H 8965   2.281  -0.067   2.362
 2241EOH      O 8966   0.091   3.000   0.133
 2241EOH      C 8967   0.005   3.046   0.238
 2241EOH      C 8968  -0.064   3.177   0.196
 2241EOH      H 8969   0.040   3.004   0.054
 2242EOH      O 8970   6.228   5.449   6.014
 2242EOH      C 8971   6.202   5.319   6.066
 2242EOH      C 8972   6.051   5.292   6.050
 2242EOH      H 8973   6.258   5.437   5.925
 2243EOH      O 8974   0.303   0.856   3.654
 2243EOH      C 8975   0.218   0.955   3.713
 2243EOH      C 8976   0.079   0.964   3.647
 2243EOH      H 8977   0.295   0.777   3.704
 2244EOH      O 8978   4.508   5.795   4.476
 2244EOH      C 8979   4.635   5.862   4.476
 2244EOH      C 8980   4.604   6.003   4.529
 2244EOH      H 8981   4.506   5.713   4.430
 2245EOH      O 8982   4.357   5.618   3.857
 2245EOH      C 8983   4.318   5.562   3.983
 2245EOH      C 8984   4.165   5.552   3.995
 2245EOH      H 8985   4.451   5.612   3.851
 2246EOH      O 8986   1.640   0.515   1.846
 2246EOH      C 8987   1.762   0.452   1.807
 2246EOH      C 8988   1.749   0.312   1.743
 2246EOH      H 8989   1.651   0.607   1.865
 2247EOH      O 8990   5.399   3.711   0.180
 2247EOH      C 8991   5.268   3.702   0.123
 2247EOH      C 8992   5.246   3.559   0.073
 2247EOH      H 8993   5.387   3.706   0.274
 2248EOH      O 8994   5.249   0.522   5.566
 2248EOH      C 8995   5.240   0.554   5.705
 2248EOH      C 8996   5.354   0.653   5.737
 2248EOH      H 8997   5.218   0.597   5.518
 2249EOH      O 8998   5.810   0.520   3.448
 2249EOH      C 8999   5.687   0.545   3.380
 2249EOH      C 9000   5.632   0.688   3.397
 2249EOH      H 9001   5.792   0.432   3.477
 2250EOH      O 9002   2.491   4.796   3.137
 2250EOH      C 9003   2.368   4.726   3.118
 2250EOH      C 9004   2.327   4.779   2.980
 2250EOH      H 9005   2.560   4.747   3.095
 2251EOH      O 9006   3.799   2.886   4.229
 2251EOH      C 9007   3.840   2.987   4.137
 2251EOH      C 9008   3.807   2.913   4.006
 2251EOH      H 9009   3.728   2.911   4.285
 2252EOH      O 9010   1.499   4.715   4.627
 2252EOH      C 9011   1.446   4.788   4.517
 2252EOH      C 9012   1.432   4.938   4.548
 2252EOH      H 9013   1.441   4.713   4.702
 2253EOH      O 9014   4.005   1.531   4.719
 2253EOH      C 9015   4.084   1.644   4.757
 2253EOH      C 9016   4.220   1.599   4.814
 2253EOH      H 9017   3.916   1.538   4.750
 2254EOH      O 9018   2.987   2.742   3.515
 2254EOH      C 9019   2.912   2.860   3.544
 2254EOH      C 9020   2.930   2.893   3.693
 2254EOH      H 9021   2.974   2.723   3.423
 2255EOH      O 9022   5.552   1.655   4.218
 2255EOH      C 9023   5.465   1.685   4.328
 2255EOH      C 9024   5.372   1.803   4.293
 2255EOH      H 9025   5.585   1.568   4.236
 2256EOH      O 9026   4.519   5.217   2.618
 2256EOH      C 9027   4.511   5.189   2.758
 2256EOH      C 9028   4.460   5.317   2.827
 2256EOH      H 9029   4.516   5.134   2.572
 2257EOH      O 9030   0.005   1.719   3.285
 2257EOH      C 9031  -0.015   1.672   3.151
 2257EOH      C 9032   0.121   1.632   3.094
 2257EOH      H 9033  -0.080   1.710   3.324
 2258EOH      O 9034   2.949   2.402   5.910
 2258EOH      C 9035   2.881   2.506   5.840
 2258EOH      C 9036   2.740   2.518   5.901
 2258EOH      H 9037   2.935   2.325   5.857
 2259EOH      O 9038   1.390   6.295   3.082
 2259EOH      C 9039   1.394   6.184   2.992
 2259EOH      C 9040   1.408   6.050   3.068
 2259EOH      H 9041   1.317   6.286   3.141
 2260EOH      O 9042   1.738   5.896   4.192
 2260EOH      C 9043   1.601   5.915   4.229
 2260EOH      C 9044   1.516   5.974   4.114
 2260EOH      H 9045   1.736   5.811   4.150
 2261EOH      O 9046   5.374   6.081   3.168
 2261EOH      C 9047   5.256   6.159   3.147
 2261EOH      C 9048   5.148   6.109   3.245
 2261EOH      H 9049   5.359   6.000   3.124
 2262EOH      O 9050   5.167   0.354   0.766
 2262EOH      C 9051   5.122   0.398   0.894
 2262EOH      C 9052   5.228   0.486   0.963
 2262EOH      H 9053   5.091   0.318   0.723
 2263EOH      O 9054   5.978   1.513   0.455
 2263EOH      C 9055   5.853   1.583   0.452
 2263EOH      C 9056   5.873   1.736   0.464
 2263EOH      H 9057   5.969   1.419   0.450
 2264EOH      O 9058   5.167   5.095   1.174
 2264EOH      C 9059   5.169   5.124   1.314
 2264EOH      C 9060   5.074   5.244   1.331
 2264EOH      H 9061   5.249   5.051   1.157
 2265EOH      O 9062   5.292   3.329   3.427
 2265EOH      C 9063   5.302   3.277   3.294
 2265EOH      C 9064   5.228   3.142   3.288
 2265EOH      H 9065   5.333   3.272   3.491
 2266EOH      O 9066   4.103   4.112   2.525
 2266EOH      C 9067   4.241   4.096   2.556
 2266EOH      C 9068   4.326   4.045   2.438
 2266EOH      H 9069   4.106   4.132   2.432
 2267EOH      O 9070   5.992   2.794   0.988
 2267EOH      C 9071   5.967   2.858   1.113
 2267EOH      C 9072   6.028   2.761   1.216
 2267EOH      H 9073   5.991   2.857   0.918
 2268EOH      O 9074   0.285   2.792   2.981
 2268EOH      C 9075   0.399   2.802   3.067
 2268EOH      C 9076   0.421   2.947   3.113
 2268EOH      H 9077   0.317   2.807   2.894
 2269EOH      O 9078   5.994   1.372   4.707
 2269EOH      C 9079   5.885   1.366   4.800
 2269EOH      C 9080   5.893   1.494   4.885
 2269EOH      H 9081   6.004   1.292   4.656
 2270EOH      O 9082   5.375   4.378   2.718
 2270EOH      C 9083   5.340   4.445   2.597
 2270EOH      C 9084   5.232   4.547   2.637
 2270EOH      H 9085   5.299   4.334   2.755
 2271EOH      O 9086   5.044   3.025   4.565
 2271EOH      C 9087   5.023   3.038   4.424
 2271EOH      C 9088   5.021   2.897   4.364
 2271EOH      H 9089   5.043   3.112   4.600
 2272EOH      O 9090   3.911   5.267   3.023
 2272EOH      C 9091   3.972   5.215   2.904
 2272EOH      C 9092   3.866   5.180   2.798
 2272EOH      H 9093   3.966   5.257   3.099
 2273EOH      O 9094   4.190   3.618   5.385
 2273EOH      C 9095   4.159   3.757   5.391
 2273EOH      C 9096   4.016   3.779   5.337
 2273EOH      H 9097   4.284   3.617   5.378
 2274EOH      O 9098   5.674   5.220   2.989
 2274EOH      C 9099   5.766   5.130   2.925
 2274EOH      C 9100   5.684   5.000   2.913
 2274EOH      H 9101   5.731   5.286   3.026
 2275EOH      O 9102   4.236   5.287   4.450
 2275EOH      C 9103   4.230   5.295   4.593
 2275EOH      C 9104   4.302   5.416   4.655
 2275EOH      H 9105   4.179   5.217   4.422
 2276EOH      O 9106   5.366   5.629   5.351
 2276EOH      C 9107   5.240   5.642   5.285
 2276EOH      C 9108   5.130   5.569   5.364
 2276EOH      H 9109   5.413   5.711   5.354
 2277EOH      O 9110   4.906   3.938   0.541
 2277EOH      C 9111   4.873   3.914   0.679
 2277EOH      C 9112   4.888   3.762   0.697
 2277EOH      H 9113   4.831   3.960   0.488
 2278EOH      O 9114   4.049   6.168   4.008
 2278EOH      C 9115   4.032   6.032   4.049
 2278EOH      C 9116   3.975   5.945   3.935
 2278EOH      H 9117   3.964   6.209   4.001
 2279EOH      O 9118   0.178   2.747   4.437
 2279EOH      C 9119   0.317   2.718   4.424
 2279EOH      C 9120   0.389   2.722   4.560
 2279EOH      H 9121   0.173   2.840   4.418
 2280EOH      O 9122   4.433   0.416   4.058
 2280EOH      C 9123   4.316   0.436   4.139
 2280EOH      C 9124   4.204   0.349   4.080
 2280EOH      H 9125   4.464   0.504   4.043
 2281EOH      O 9126   4.072   5.451   1.032
 2281EOH      C 9127   4.118   5.317   1.045
 2281EOH      C 9128   3.999   5.224   1.016
 2281EOH      H 9129   4.152   5.499   1.016
 2282EOH      O 9130   3.953   0.150   2.557
 2282EOH      C 9131   3.898   0.024   2.517
 2282EOH      C 9132   3.803  -0.039   2.620
 2282EOH      H 9133   4.027   0.137   2.615
 2283EOH      O 9134   4.991   3.159   0.694
 2283EOH      C 9135   5.126   3.201   0.671
 2283EOH      C 9136   5.202   3.236   0.800
 2283EOH      H 9137   4.948   3.167   0.609
 2284EOH      O 9138   1.588   4.973   6.008
 2284EOH      C 9139   1.659   4.894   5.912
 2284EOH      C 9140   1.810   4.907   5.941
 2284EOH      H 9141   1.546   4.915   6.071
 2285EOH      O 9142   2.074   3.845   5.041
 2285EOH      C 9143   2.103   3.732   5.123
 2285EOH      C 9144   2.050   3.752   5.266
 2285EOH      H 9145   2.023   3.816   4.967
 2286EOH      O 9146   3.818   1.849   5.203
 2286EOH      C 9147   3.785   1.788   5.327
 2286EOH      C 9148   3.708   1.656   5.301
 2286EOH      H 9149   3.837   1.939   5.227
 2287EOH      O 9150   3.008   4.596   5.243
 2287EOH      C 9151   2.969   4.512   5.133
 2287EOH      C 9152   3.054   4.386   5.113
 2287EOH      H 9153   2.933   4.627   5.292
 2288EOH      O 9154   1.835   4.628   1.092
 2288EOH      C 9155   1.828   4.760   1.037
 2288EOH      C 9156   1.958   4.794   0.963
 2288EOH      H 9157   1.834   4.569   1.018
 2289EOH      O 9158   1.766   1.224   3.668
 2289EOH      C 9159   1.751   1.189   3.806
 2289EOH      C 9160   1.881   1.218   3.883
 2289EOH      H 9161   1.765   1.146   3.614
 2290EOH      O 9162   2.600   1.999   2.128
 2290EOH      C 9163   2.677   1.904   2.053
 2290EOH      C 9164   2.821   1.896   2.107
 2290EOH      H 9165   2.623   2.086   2.100
 2291EOH      O 9166   5.571   2.427   4.363
 2291EOH      C 9167   5.520   2.340   4.465
 2291EOH      C 9168   5.594   2.205   4.459
 2291EOH      H 9169   5.511   2.498   4.348
 2292EOH      O 9170   1.652   4.926   1.554
 2292EOH      C 9171   1.541   4.836   1.559
 2292EOH      C 9172   1.505   4.772   1.424
 2292EOH      H 9173   1.622   5.009   1.519
 2293EOH      O 9174   4.801   1.833   1.107
 2293EOH      C 9175   4.758   1.837   0.970
 2293EOH      C 9176   4.648   1.942   0.948
 2293EOH      H 9177   4.893   1.854   1.109
 2294EOH      O 9178   5.282   0.155   2.359
 2294EOH      C 9179   5.184   0.124   2.459
 2294EOH      C 9180   5.165   0.244   2.554
 2294EOH      H 9181   5.236   0.164   2.277
 2295EOH      O 9182   5.004   2.635   1.592
 2295EOH      C 9183   4.913   2.541   1.535
 2295EOH      C 9184   4.871   2.595   1.396
 2295EOH      H 9185   5.030   2.605   1.678
 2296EOH      O 9186   4.161   3.816   4.818
 2296EOH      C 9187   4.164   3.911   4.925
 2296EOH      C 9188   4.295   3.902   5.006
 2296EOH      H 9189   4.231   3.842   4.759
 2297EOH      O 9190   3.315   5.610   5.948
 2297EOH      C 9191   3.183   5.655   5.915
 2297EOH      C 9192   3.194   5.769   5.812
 2297EOH      H 9193   3.313   5.584   6.038
 2298EOH      O 9194   4.469   4.282   2.906
 2298EOH      C 9195   4.528   4.287   3.036
 2298EOH      C 9196   4.661   4.211   3.048
 2298EOH      H 9197   4.542   4.252   2.854
 2299EOH      O 9198   3.068   0.413   0.774
 2299EOH      C 9199   2.936   0.410   0.719
 2299EOH      C 9200   2.863   0.544   0.737
 2299EOH      H 9201   3.118   0.479   0.728
 2300EOH      O 9202   5.318   0.958   1.299
 2300EOH      C 9203   5.180   0.970   1.265
 2300EOH      C 9204   5.131   0.871   1.158
 2300EOH      H 9205   5.354   1.045   1.300
 2301EOH      O 9206   3.019   2.689   5.471
 2301EOH      C 9207   2.982   2.821   5.511
 2301EOH      C 9208   2.843   2.828   5.576
 2301EOH      H 9209   3.111   2.674   5.486
 2302EOH      O 9210   0.624   1.912   1.022
 2302EOH      C 9211   0.564   2.001   0.928
 2302EOH      C 9212   0.449   1.923   0.862
 2302EOH      H 9213   0.686   1.961   1.074
 2303EOH      O 9214   1.287   2.725   6.281
 2303EOH      C 9215   1.397   2.635   6.286
 2303EOH      C 9216   1.450   2.618   6.142
 2303EOH      H 9217   1.213   2.692   6.330
 2304EOH      O 9218   0.891   4.996   2.104
 2304EOH      C 9219   0.754   4.995   2.064
 2304EOH      C 9220   0.758   4.892   1.950
 2304EOH      H 9221   0.928   5.057   2.043
 2305EOH      O 9222   1.481   1.244   4.456
 2305EOH      C 9223   1.406   1.348   4.392
 2305EOH      C 9224   1.337   1.308   4.261
 2305EOH      H 9225   1.421   1.171   4.465
 2306EOH      O 9226   6.086   0.859   1.856
 2306EOH      C 9227   6.065   1.000   1.858
 2306EOH      C 9228   5.947   1.048   1.771
 2306EOH      H 9229   6.179   0.857   1.875
 2307EOH      O 9230   4.016   3.007   4.918
 2307EOH      C 9231   3.944   3.110   4.986
 2307EOH      C 9232   3.846   3.051   5.089
 2307EOH      H 9233   3.963   2.951   4.864
 2308EOH      O 9234   0.304   3.026   1.568
 2308EOH      C 9235   0.407   3.093   1.641
 2308EOH      C 9236   0.373   3.081   1.791
 2308EOH      H 9237   0.321   3.036   1.476
 2309EOH      O 9238   0.885   4.885   1.422
 2309EOH      C 9239   0.847   4.867   1.558
 2309EOH      C 9240   0.971   4.895   1.644
 2309EOH      H 9241   0.899   4.799   1.383
 2310EOH      O 9242   1.353   2.903   0.121
 2310EOH      C 9243   1.242   2.976   0.175
 2310EOH      C 9244   1.236   3.103   0.088
 2310EOH      H 9245   1.326   2.854   0.045
 2311EOH      O 9246   4.574   0.805   1.391
 2311EOH      C 9247   4.559   0.665   1.365
 2311EOH      C 9248   4.518   0.645   1.218
 2311EOH      H 9249   4.489   0.845   1.378
 2312EOH      O 9250   2.329   1.033   1.212
 2312EOH      C 9251   2.193   1.065   1.244
 2312EOH      C 9252   2.125   0.942   1.307
 2312EOH      H 9253   2.380   1.078   1.277
 2313EOH      O 9254   5.720   1.133   3.450
 2313EOH      C 9255   5.689   1.158   3.588
 2313EOH      C 9256   5.592   1.049   3.636
 2313EOH      H 9257   5.814   1.118   3.446
 2314EOH      O 9258   0.599   2.706   5.973
 2314EOH      C 9259   0.522   2.798   5.896
 2314EOH      C 9260   0.539   2.936   5.963
 2314EOH      H 9261   0.683   2.699   5.932
 2315EOH      O 9262   3.960   1.672   1.721
 2315EOH      C 9263   3.827   1.666   1.669
 2315EOH      C 9264   3.744   1.792   1.698
 2315EOH      H 9265   4.019   1.686   1.648
 2316EOH      O 9266   2.293   0.453   5.407
 2316EOH      C 9267   2.319   0.500   5.540
 2316EOH      C 9268   2.449   0.434   5.590
 2316EOH      H 9269   2.199   0.447   5.406
 2317EOH      O 9270   5.700   3.272   6.208
 2317EOH      C 9271   5.625   3.265   6.329
 2317EOH      C 9272   5.487   3.206   6.297
 2317EOH      H 9273   5.663   3.333   6.147
 2318EOH      O 9274   5.803   1.786   6.237
 2318EOH      C 9275   5.894   1.714   6.321
 2318EOH      C 9276   6.023   1.698   6.239
 2318EOH      H 9277   5.720   1.800   6.280
 2319EOH      O 9278   2.942   0.568   5.774
 2319EOH      C 9279   3.051   0.650   5.730
 2319EOH      C 9280   3.157   0.652   5.842
 2319EOH      H 9281   2.860   0.615   5.768
 2320EOH      O 9282   5.080   2.076   0.424
 2320EOH      C 9283   5.102   2.167   0.533
 2320EOH      C 9284   5.126   2.100   0.669
 2320EOH      H 9285   5.033   2.130   0.363
 2321EOH      O 9286   5.100   1.991   2.446
 2321EOH      C 9287   4.965   1.945   2.433
 2321EOH      C 9288   4.886   2.014   2.546
 2321EOH      H 9289   5.155   1.929   2.400
 2322EOH      O 9290   2.374   4.901   3.667
 2322EOH      C 9291   2.307   4.777   3.642
 2322EOH      C 9292   2.357   4.666   3.735
 2322EOH      H 9293   2.365   4.953   3.589
 2323EOH      O 9294   3.758   1.416   0.898
 2323EOH      C 9295   3.627   1.363   0.917
 2323EOH      C 9296   3.535   1.417   0.806
 2323EOH      H 9297   3.816   1.378   0.962
 2324EOH      O 9298   4.524   0.687   0.617
 2324EOH      C 9299   4.664   0.693   0.589
 2324EOH      C 9300   4.734   0.570   0.650
 2324EOH      H 9301   4.480   0.769   0.600
 2325EOH      O 9302   0.520   1.039   4.369
 2325EOH      C 9303   0.645   0.970   4.364
 2325EOH      C 9304   0.743   1.070   4.426
 2325EOH      H 9305   0.502   1.056   4.278
 2326EOH      O 9306   5.080   1.668   0.457
 2326EOH      C 9307   4.972   1.590   0.405
 2326EOH      C 9308   4.938   1.472   0.497
 2326EOH      H 9309   5.097   1.743   0.402
 2327EOH      O 9310   3.852   5.097   3.490
 2327EOH      C 9311   3.734   5.176   3.512
 2327EOH      C 9312   3.625   5.135   3.412
 2327EOH      H 9313   3.929   5.146   3.515
 2328EOH      O 9314   0.440   3.364   5.105
 2328EOH      C 9315   0.517   3.374   5.225
 2328EOH      C 9316   0.663   3.348   5.184
 2328EOH      H 9317   0.462   3.274   5.085
 2329EOH      O 9318   4.372   0.284   0.866
 2329EOH      C 9319   4.401   0.170   0.785
 2329EOH      C 9320   4.330   0.174   0.648
 2329EOH      H 9321   4.383   0.359   0.810
 2330EOH      O 9322   2.059   0.512   1.220
 2330EOH      C 9323   1.994   0.619   1.151
 2330EOH      C 9324   2.068   0.692   1.038
 2330EOH      H 9325   1.996   0.465   1.273
 2331EOH      O 9326   1.807   3.049   1.467
 2331EOH      C 9327   1.758   2.926   1.520
 2331EOH      C 9328   1.849   2.811   1.474
 2331EOH      H 9329   1.766   3.062   1.383
 2332EOH      O 9330   0.055   2.919   3.537
 2332EOH      C 9331   0.084   2.991   3.417
 2332EOH      C 9332   0.083   2.895   3.298
 2332EOH      H 9333   0.033   2.980   3.606
 2333EOH      O 9334   1.644   0.789   1.550
 2333EOH      C 9335   1.785   0.808   1.534
 2333EOH      C 9336   1.857   0.679   1.493
 2333EOH      H 9337   1.624   0.772   1.640
 2334EOH      O 9338   0.743   4.867   5.462
 2334EOH      C 9339   0.637   4.771   5.463
 2334EOH      C 9340   0.520   4.818   5.552
 2334EOH      H 9341   0.732   4.928   5.533
 2335EOH      O 9342   2.001   5.935   6.189
 2335EOH      C 9343   1.930   5.819   6.143
 2335EOH      C 9344   1.974   5.771   6.004
 2335EOH      H 9345   2.007   5.933   6.283
 2336EOH      O 9346   1.344   1.487   0.000
 2336EOH      C 9347   1.275   1.394  -0.083
 2336EOH      C 9348   1.175   1.468  -0.174
 2336EOH      H 9349   1.409   1.432   0.042
 2337EOH      O 9350   0.581   4.237   5.623
 2337EOH      C 9351   0.655   4.130   5.683
 2337EOH      C 9352   0.796   4.184   5.713
 2337EOH      H 9353   0.507   4.253   5.679
 2338EOH      O 9354   0.745   1.906   0.498
 2338EOH      C 9355   0.810   1.922   0.624
 2338EOH      C 9356   0.870   1.788   0.669
 2338EOH      H 9357   0.655   1.879   0.510
 2339EOH      O 9358   2.177   5.299   4.530
 2339EOH      C 9359   2.182   5.257   4.667
 2339EOH      C 9360   2.240   5.366   4.758
 2339EOH      H 9361   2.270   5.303   4.509
 2340EOH      O 9362   2.575   4.255   5.311
 2340EOH      C 9363   2.550   4.393   5.284
 2340EOH      C 9364   2.396   4.398   5.275
 2340EOH      H 9365   2.513   4.204   5.263
 2341EOH      O 9366   3.410   3.502   3.227
 2341EOH      C 9367   3.546   3.540   3.246
 2341EOH      C 9368   3.595   3.624   3.126
 2341EOH      H 9369   3.383   3.489   3.138
 2342EOH      O 9370   0.502   2.625   6.200
 2342EOH      C 9371   0.629   2.608   6.263
 2342EOH      C 9372   0.596   2.547   6.400
 2342EOH      H 9373   0.530   2.651   6.113
 2343EOH      O 9374   6.263   4.042   2.395
 2343EOH      C 9375   6.244   4.167   2.328
 2343EOH      C 9376   6.308   4.162   2.189
 2343EOH      H 9377   6.357   4.032   2.397
 2344EOH      O 9378   2.791   5.809   4.033
 2344EOH      C 9379   2.682   5.758   4.110
 2344EOH      C 9380   2.636   5.620   4.060
 2344EOH      H 9381   2.814   5.889   4.078
 2345EOH      O 9382   6.119   4.967   3.576
 2345EOH      C 9383   6.022   4.863   3.562
 2345EOH      C 9384   5.891   4.942   3.555
 2345EOH      H 9385   6.146   4.951   3.666
 2346EOH      O 9386   6.192   3.900   6.090
 2346EOH      C 9387   6.069   3.830   6.069
 2346EOH      C 9388   5.954   3.915   6.125
 2346EOH      H 9389   6.224   3.857   6.167
 2347EOH      O 9390   4.978   1.815   3.644
 2347EOH      C 9391   5.040   1.942   3.669
 2347EOH      C 9392   4.952   2.055   3.613
 2347EOH      H 9393   5.009   1.755   3.711
 2348EOH      O 9394   0.736   5.109   4.246
 2348EOH      C 9395   0.752   5.233   4.316
 2348EOH      C 9396   0.894   5.293   4.313
 2348EOH      H 9397   0.643   5.093   4.246
 2349EOH      O 9398   3.711   2.201   4.194
 2349EOH      C 9399   3.787   2.180   4.074
 2349EOH      C 9400   3.793   2.033   4.029
 2349EOH      H 9401   3.686   2.292   4.184
 2350EOH      O 9402   0.105   5.516   6.197
 2350EOH      C 9403   0.103   5.654   6.233
 2350EOH      C 9404   0.134   5.739   6.108
 2350EOH      H 9405   0.045   5.500   6.126
 2351EOH      O 9406   2.999   3.853   2.944
 2351EOH      C 9407   2.907   3.822   2.840
 2351EOH      C 9408   2.905   3.929   2.729
 2351EOH      H 9409   2.963   3.823   3.026
 2352EOH      O 9410   4.279   1.274   5.220
 2352EOH      C 9411   4.361   1.158   5.239
 2352EOH      C 9412   4.497   1.198   5.179
 2352EOH      H 9413   4.315   1.332   5.285
 2353EOH      O 9414   3.766   2.560   6.224
 2353EOH      C 9415   3.826   2.661   6.142
 2353EOH      C 9416   3.827   2.630   5.991
 2353EOH      H 9417   3.832   2.527   6.283
 2354EOH      O 9418   3.350   0.546   0.054
 2354EOH      C 9419   3.338   0.562  -0.088
 2354EOH      C 9420   3.242   0.457  -0.147
 2354EOH      H 9421   3.423   0.486   0.064
 2355EOH      O 9422   1.171   3.228   4.447
 2355EOH      C 9423   1.300   3.288   4.434
 2355EOH      C 9424   1.356   3.291   4.578
 2355EOH      H 9425   1.170   3.156   4.386
 2356EOH      O 9426   4.023   2.696   0.159
 2356EOH      C 9427   4.098   2.722   0.278
 2356EOH      C 9428   4.103   2.595   0.366
 2356EOH      H 9429   3.987   2.778   0.128
 2357EOH      O 9430   3.796   3.584   2.471
 2357EOH      C 9431   3.696   3.522   2.390
 2357EOH      C 9432   3.761   3.439   2.278
 2357EOH      H 9433   3.833   3.660   2.429
 2358EOH      O 9434   3.943   1.293   1.035
 2358EOH      C 9435   4.070   1.323   1.095
 2358EOH      C 9436   4.133   1.436   1.012
 2358EOH      H 9437   3.907   1.215   1.073
 2359EOH      O 9438   2.400   3.401   4.042
 2359EOH      C 9439   2.264   3.368   4.012
 2359EOH      C 9440   2.214   3.251   4.099
 2359EOH      H 9441   2.407   3.381   4.134
 2360EOH      O 9442   6.209   2.021   2.634
 2360EOH      C 9443   6.301   1.912   2.625
 2360EOH      C 9444   6.237   1.780   2.673
 2360EOH      H 9445   6.257   2.101   2.645
 2361EOH      O 9446   6.010   0.859   2.388
 2361EOH      C 9447   5.916   0.815   2.486
 2361EOH      C 9448   5.954   0.855   2.630
 2361EOH      H 9449   5.977   0.816   2.310
 2362EOH      O 9450   5.495   0.827   4.532
 2362EOH      C 9451   5.377   0.787   4.602
 2362EOH      C 9452   5.294   0.897   4.669
 2362EOH      H 9453   5.472   0.816   4.441
 2363EOH      O 9454   0.890   1.687   3.661
 2363EOH      C 9455   0.836   1.683   3.529
 2363EOH      C 9456   0.888   1.558   3.456
 2363EOH      H 9457   0.908   1.600   3.693
 2364EOH      O 9458   1.588   2.850   5.903
 2364EOH      C 9459   1.604   2.992   5.901
 2364EOH      C 9460   1.593   3.048   6.043
 2364EOH      H 9461   1.641   2.827   5.978
 2365EOH      O 9462   5.407   0.569   3.672
 2365EOH      C 9463   5.372   0.707   3.688
 2365EOH      C 9464   5.316   0.741   3.828
 2365EOH      H 9465   5.350   0.535   3.604
 2366EOH      O 9466   3.663   5.649   4.740
 2366EOH      C 9467   3.710   5.548   4.651
 2366EOH      C 9468   3.863   5.543   4.668
 2366EOH      H 9469   3.705   5.733   4.725
 2367EOH      O 9470   4.488   2.769   5.135
 2367EOH      C 9471   4.451   2.638   5.089
 2367EOH      C 9472   4.576   2.564   5.037
 2367EOH      H 9473   4.412   2.815   5.168
 2368EOH      O 9474   1.816   0.117   0.724
 2368EOH      C 9475   1.899   0.129   0.840
 2368EOH      C 9476   1.816   0.172   0.963
 2368EOH      H 9477   1.806   0.206   0.694
 2369EOH      O 9478   6.001   5.202   4.416
 2369EOH      C 9479   6.030   5.090   4.332
 2369EOH      C 9480   6.148   5.134   4.244
 2369EOH      H 9481   5.949   5.262   4.364
 2370EOH      O 9482   4.410   0.923   0.563
 2370EOH      C 9483   4.328   1.020   0.628
 2370EOH      C 9484   4.349   1.005   0.780
 2370EOH      H 9485   4.449   0.968   0.490
 2371EOH      O 9486   3.544   2.151   5.263
 2371EOH      C 9487   3.479   2.136   5.389
 2371EOH      C 9488   3.480   1.989   5.435
 2371EOH      H 9489   3.483   2.113   5.202
 2372EOH      O 9490   2.606   4.984   0.867
 2372EOH      C 9491   2.575   5.096   0.784
 2372EOH      C 9492   2.462   5.056   0.687
 2372EOH      H 9493   2.646   4.913   0.818
 2373EOH      O 9494   1.054   1.957   5.450
 2373EOH      C 9495   0.941   1.904   5.381
 2373EOH      C 9496   0.807   1.933   5.451
 2373EOH      H 9497   1.136   1.923   5.417
 2374EOH      O 9498   0.408   5.535   2.180
 2374EOH      C 9499   0.436   5.454   2.065
 2374EOH      C 9500   0.303   5.386   2.026
 2374EOH      H 9501   0.432   5.478   2.251
 2375EOH      O 9502   2.511   1.202   5.286
 2375EOH      C 9503   2.499   1.247   5.421
 2375EOH      C 9504   2.390   1.356   5.431
 2375EOH      H 9505   2.596   1.161   5.275
 2376EOH      O 9506   6.079   2.069   6.047
 2376EOH      C 9507   6.178   1.967   6.033
 2376EOH      C 9508   6.315   2.037   6.019
 2376EOH      H 9509   5.999   2.020   6.058
 2377EOH      O 9510   4.340   2.988   1.799
 2377EOH      C 9511   4.471   2.952   1.754
 2377EOH      C 9512   4.555   3.073   1.799
 2377EOH      H 9513   4.281   2.916   1.785
 2378EOH      O 9514   0.099   3.351   3.256
 2378EOH      C 9515   0.160   3.361   3.385
 2378EOH      C 9516   0.148   3.502   3.444
 2378EOH      H 9517   0.030   3.416   3.256
 2379EOH      O 9518   3.405   3.763   1.744
 2379EOH      C 9519   3.418   3.849   1.630
 2379EOH      C 9520   3.408   3.782   1.492
 2379EOH      H 9521   3.448   3.679   1.740
 2380EOH      O 9522   1.837   6.223   0.578
 2380EOH      C 9523   1.719   6.202   0.501
 2380EOH      C 9524   1.678   6.330   0.425
 2380EOH      H 9525   1.820   6.295   0.638
 2381EOH      O 9526   4.705   4.983   5.510
 2381EOH      C 9527   4.721   4.861   5.437
 2381EOH      C 9528   4.623   4.756   5.492
 2381EOH      H 9529   4.785   5.027   5.484
 2382EOH      O 9530   4.937   2.200   0.261
 2382EOH      C 9531   4.929   2.291   0.151
 2382EOH      C 9532   5.057   2.303   0.066
 2382EOH      H 9533   4.852   2.199   0.303
 2383EOH      O 9534   3.835   6.075   3.340
 2383EOH      C 9535   3.782   5.949   3.382
 2383EOH      C 9536   3.842   5.913   3.520
 2383EOH      H 9537   3.784   6.079   3.260
 2384EOH      O 9538   4.946   1.122   0.739
 2384EOH      C 9539   4.815   1.110   0.683
 2384EOH      C 9540   4.721   1.034   0.779
 2384EOH      H 9541   4.949   1.191   0.804
 2385EOH      O 9542   0.458   3.829   1.377
 2385EOH      C 9543   0.408   3.961   1.357
 2385EOH      C 9544   0.500   4.065   1.424
 2385EOH      H 9545   0.377   3.781   1.372
 2386EOH      O 9546   5.230   1.843   2.305
 2386EOH      C 9547   5.255   1.704   2.325
 2386EOH      C 9548   5.405   1.669   2.323
 2386EOH      H 9549   5.235   1.859   2.212
 2387EOH      O 9550   2.343   3.567   2.997
 2387EOH      C 9551   2.378   3.675   2.910
 2387EOH      C 9552   2.504   3.752   2.953
 2387EOH      H 9553   2.319   3.599   3.082
 2388EOH      O 9554   1.750   3.097   2.189
 2388EOH      C 9555   1.664   3.181   2.110
 2388EOH      C 9556   1.528   3.111   2.091
 2388EOH      H 9557   1.793   3.159   2.245
 2389EOH      O 9558   6.259   4.942   3.368
 2389EOH      C 9559   6.189   4.983   3.251
 2389EOH      C 9560   6.139   5.129   3.258
 2389EOH      H 9561   6.205   4.961   3.443
 2390EOH      O 9562   0.225   6.226   3.718
 2390EOH      C 9563   0.232   6.205   3.577
 2390EOH      C 9564   0.245   6.053   3.557
 2390EOH      H 9565   0.131   6.222   3.728
 2391EOH      O 9566   3.519   0.021   3.055
 2391EOH      C 9567   3.414  -0.001   2.962
 2391EOH      C 9568   3.427  -0.146   2.911
 2391EOH      H 9569   3.509   0.108   3.089
 2392EOH      O 9570   0.430   1.191   2.799
 2392EOH      C 9571   0.517   1.275   2.877
 2392EOH      C 9572   0.642   1.278   2.787
 2392EOH      H 9573   0.432   1.108   2.844
 2393EOH      O 9574   6.202   4.094   4.486
 2393EOH      C 9575   6.146   4.011   4.383
 2393EOH      C 9576   6.093   4.090   4.262
 2393EOH      H 9577   6.166   4.063   4.568
 2394EOH      O 9578   2.875   3.573   5.533
 2394EOH      C 9579   2.747   3.554   5.594
 2394EOH      C 9580   2.659   3.676   5.561
 2394EOH      H 9581   2.943   3.595   5.595
 2395EOH      O 9582   5.393   3.438   5.890
 2395EOH      C 9583   5.316   3.320   5.862
 2395EOH      C 9584   5.398   3.216   5.784
 2395EOH      H 9585   5.338   3.515   5.886
 2396EOH      O 9586   1.235   4.135   1.962
 2396EOH      C 9587   1.321   4.170   2.070
 2396EOH      C 9588   1.287   4.302   2.143
 2396EOH      H 9589   1.290   4.102   1.893
 2397EOH      O 9590   3.734   2.710   2.389
 2397EOH      C 9591   3.637   2.710   2.284
 2397EOH      C 9592   3.500   2.655   2.327
 2397EOH      H 9593   3.769   2.623   2.394
 2398EOH      O 9594   1.713   2.804   2.728
 2398EOH      C 9595   1.736   2.941   2.760
 2398EOH      C 9596   1.762   2.950   2.912
 2398EOH      H 9597   1.790   2.756   2.755
 2399EOH      O 9598   3.781   4.946   2.146
 2399EOH      C 9599   3.859   4.972   2.263
 2399EOH      C 9600   4.010   4.959   2.237
 2399EOH      H 9601   3.753   4.856   2.151
 2400EOH      O 9602   5.617   4.685   0.423
 2400EOH      C 9603   5.557   4.759   0.530
 2400EOH      C 9604   5.618   4.727   0.668
 2400EOH      H 9605   5.566   4.606   0.424
 2401EOH      O 9606   1.504   3.483   3.578
 2401EOH      C 9607   1.566   3.442   3.700
 2401EOH      C 9608   1.719   3.430   3.689
 2401EOH      H 9609   1.479   3.406   3.529
 2402EOH      O 9610   3.882   5.614   0.955
 2402EOH      C 9611   3.793   5.525   0.888
 2402EOH      C 9612   3.703   5.455   0.992
 2402EOH      H 9613   3.964   5.568   0.967
 2403EOH      O 9614   5.084   1.388   5.699
 2403EOH      C 9615   5.140   1.519   5.701
 2403EOH      C 9616   5.257   1.518   5.601
 2403EOH      H 9617   5.153   1.323   5.702
 2404EOH      O 9618   4.437   3.967   1.079
 2404EOH      C 9619   4.316   4.006   1.014
 2404EOH      C 9620   4.204   4.027   1.118
 2404EOH      H 9621   4.475   3.886   1.048
 2405EOH      O 9622   4.371   2.138   3.204
 2405EOH      C 9623   4.247   2.080   3.162
 2405EOH      C 9624   4.272   1.929   3.148
 2405EOH      H 9625   4.359   2.158   3.296
 2406EOH      O 9626   0.131   1.746   1.964
 2406EOH      C 9627   0.235   1.727   1.868
 2406EOH      C 9628   0.376   1.778   1.900
 2406EOH      H 9629   0.096   1.833   1.960
 2407EOH      O 9630   6.253   4.402   3.661
 2407EOH      C 9631   6.223   4.389   3.521
 2407EOH      C 9632   6.153   4.523   3.488
 2407EOH      H 9633   6.175   4.377   3.707
 2408EOH      O 9634   1.151   5.907   0.823
 2408EOH      C 9635   1.027   5.857   0.773
 2408EOH      C 9636   1.046   5.742   0.672
 2408EOH      H 9637   1.178   5.976   0.763
 2409EOH      O 9638   4.314   5.833   4.659
 2409EOH      C 9639   4.196   5.769   4.609
 2409EOH      C 9640   4.161   5.830   4.472
 2409EOH      H 9641   4.389   5.816   4.605
 2410EOH      O 9642   3.021   5.425   5.089
 2410EOH      C 9643   2.898   5.352   5.104
 2410EOH      C 9644   2.791   5.366   4.994
 2410EOH      H 9645   3.078   5.404   5.161
 2411EOH      O 9646   3.480   3.112   0.849
 2411EOH      C 9647   3.431   3.125   0.715
 2411EOH      C 9648   3.514   3.231   0.641
 2411EOH      H 9649   3.432   3.049   0.899
 2412EOH      O 9650   2.612   6.203   4.472
 2412EOH      C 9651   2.684   6.141   4.579
 2412EOH      C 9652   2.809   6.106   4.495
 2412EOH      H 9653   2.585   6.286   4.509
 2413EOH      O 9654   0.677   0.071   3.649
 2413EOH      C 9655   0.583   0.136   3.735
 2413EOH      C 9656   0.462   0.182   3.651
 2413EOH      H 9657   0.698  -0.012   3.688
 2414EOH      O 9658   2.342   1.075   2.467
 2414EOH      C 9659   2.310   1.076   2.607
 2414EOH      C 9660   2.201   1.181   2.632
 2414EOH      H 9661   2.427   1.036   2.458
 2415EOH      O 9662   2.472   1.729   6.302
 2415EOH      C 9663   2.523   1.605   6.251
 2415EOH      C 9664   2.611   1.536   6.357
 2415EOH      H 9665   2.396   1.704   6.352
 2416EOH      O 9666   5.767   4.200   2.359
 2416EOH      C 9667   5.664   4.201   2.459
 2416EOH      C 9668   5.726   4.205   2.600
 2416EOH      H 9669   5.806   4.114   2.365
 2417EOH      O 9670   2.574   5.009   3.822
 2417EOH      C 9671   2.655   4.898   3.862
 2417EOH      C 9672   2.797   4.933   3.911
 2417EOH      H 9673   2.506   4.969   3.770
 2418EOH      O 9674   2.204   4.312   2.839
 2418EOH      C 9675   2.254   4.227   2.736
 2418EOH      C 9676   2.365   4.320   2.681
 2418EOH      H 9677   2.130   4.358   2.802
 2419EOH      O 9678   4.499   0.638   4.014
 2419EOH      C 9679   4.597   0.714   4.086
 2419EOH      C 9680   4.717   0.626   4.124
 2419EOH      H 9681   4.432   0.701   3.994
 2420EOH      O 9682   2.487   2.027   1.319
 2420EOH      C 9683   2.554   1.923   1.246
 2420EOH      C 9684   2.511   1.907   1.099
 2420EOH      H 9685   2.503   2.006   1.410
 2421EOH      O 9686   5.504   3.558   4.633
 2421EOH      C 9687   5.436   3.536   4.756
 2421EOH      C 9688   5.527   3.446   4.842
 2421EOH      H 9689   5.502   3.651   4.616
 2422EOH      O 9690   1.688   0.442   2.385
 2422EOH      C 9691   1.632   0.458   2.254
 2422EOH      C 9692   1.608   0.604   2.211
 2422EOH      H 9693   1.626   0.387   2.430
 2423EOH      O 9694   0.643   0.641   1.306
 2423EOH      C 9695   0.598   0.666   1.173
 2423EOH      C 9696   0.612   0.813   1.129
 2423EOH      H 9697   0.730   0.603   1.307
 2424EOH      O 9698   2.931   4.779   2.435
 2424EOH      C 9699   3.039   4.709   2.372
 2424EOH      C 9700   3.101   4.799   2.264
 2424EOH      H 9701   2.951   4.862   2.476
 2425EOH      O 9702   4.043   4.982   4.949
 2425EOH      C 9703   3.969   4.931   4.838
 2425EOH      C 9704   3.970   4.777   4.829
 2425EOH      H 9705   3.989   5.051   4.984
 2426EOH      O 9706   1.804   2.786   3.624
 2426EOH      C 9707   1.714   2.876   3.689
 2426EOH      C 9708   1.603   2.784   3.744
 2426EOH      H 9709   1.847   2.725   3.681
 2427EOH      O 9710   1.825   5.261   1.164
 2427EOH      C 9711   1.878   5.130   1.187
 2427EOH      C 9712   1.886   5.113   1.340
 2427EOH      H 9713   1.881   5.300   1.099
 2428EOH      O 9714   6.101   5.810   0.809
 2428EOH      C 9715   6.000   5.850   0.902
 2428EOH      C 9716   6.065   5.826   1.040
 2428EOH      H 9717   6.050   5.759   0.749
 2429EOH      O 9718   4.306   4.964   5.020
 2429EOH      C 9719   4.336   4.846   5.096
 2429EOH      C 9720   4.486   4.817   5.114
 2429EOH      H 9721   4.213   4.955   5.004
 2430EOH      O 9722   5.642   1.843   4.091
 2430EOH      C 9723   5.741   1.933   4.141
 2430EOH      C 9724   5.801   2.028   4.035
 2430EOH      H 9725   5.600   1.792   4.159
 2431EOH      O 9726   1.589   1.281   4.687
 2431EOH      C 9727   1.529   1.371   4.780
 2431EOH      C 9728   1.594   1.505   4.742
 2431EOH      H 9729   1.546   1.291   4.603
 2432EOH      O 9730   0.914   4.939   4.255
 2432EOH      C 9731   0.855   4.835   4.333
 2432EOH      C 9732   0.962   4.782   4.430
 2432EOH      H 9733   0.843   5.002   4.258
 2433EOH      O 9734   2.954   4.775   1.341
 2433EOH      C 9735   3.053   4.819   1.435
 2433EOH      C 9736   3.179   4.807   1.347
 2433EOH      H 9737   2.873   4.816   1.367
 2434EOH      O 9738   1.129   3.534   4.951
 2434EOH      C 9739   1.135   3.618   4.836
 2434EOH      C 9740   1.260   3.707   4.848
 2434EOH      H 9741   1.094   3.450   4.924
 2435EOH      O 9742   0.434   0.980   2.931
 2435EOH      C 9743   0.455   0.904   3.050
 2435EOH      C 9744   0.536   0.776   3.024
 2435EOH      H 9745   0.360   0.944   2.884
 2436EOH      O 9746   5.921   5.996   5.625
 2436EOH      C 9747   6.003   6.094   5.690
 2436EOH      C 9748   6.150   6.086   5.647
 2436EOH      H 9749   5.831   6.002   5.653
 2437EOH      O 9750   2.033   5.698   3.893
 2437EOH      C 9751   2.170   5.717   3.931
 2437EOH      C 9752   2.233   5.588   3.985
 2437EOH      H 9753   2.004   5.785   3.869
 2438EOH      O 9754   5.355   0.928   0.681
 2438EOH      C 9755   5.383   0.982   0.811
 2438EOH      C 9756   5.479   1.101   0.793
 2438EOH      H 9757   5.264   0.902   0.673
 2439EOH      O 9758   3.699   4.471   1.669
 2439EOH      C 9759   3.628   4.418   1.558
 2439EOH      C 9760   3.543   4.542   1.524
 2439EOH      H 9761   3.699   4.409   1.741
 2440EOH      O 9762   1.122   4.785   5.610
 2440EOH      C 9763   1.152   4.802   5.748
 2440EOH      C 9764   1.274   4.715   5.786
 2440EOH      H 9765   1.101   4.860   5.557
 2441EOH      O 9766   0.861   6.038   4.192
 2441EOH      C 9767   0.766   5.936   4.161
 2441EOH      C 9768   0.630   5.975   4.099
 2441EOH      H 9769   0.912   6.021   4.270
 2442EOH      O 9770   3.310   4.539   0.941
 2442EOH      C 9771   3.366   4.484   1.060
 2442EOH      C 9772   3.518   4.502   1.067
 2442EOH      H 9773   3.321   4.475   0.872
 2443EOH      O 9774   4.808   3.307   6.150
 2443EOH      C 9775   4.747   3.224   6.051
 2443EOH      C 9776   4.759   3.073   6.074
 2443EOH      H 9777   4.818   3.392   6.109
 2444EOH      O 9778   0.246   3.689   1.382
 2444EOH      C 9779   0.141   3.690   1.286
 2444EOH      C 9780   0.194   3.738   1.150
 2444EOH      H 9781   0.206   3.660   1.463
 2445EOH      O 9782   6.193   2.792   2.892
 2445EOH      C 9783   6.148   2.916   2.945
 2445EOH      C 9784   5.994   2.909   2.952
 2445EOH      H 9785   6.238   2.748   2.962
 2446EOH      O 9786   6.234   4.032   3.319
 2446EOH      C 9787   6.343   3.982   3.396
 2446EOH      C 9788   6.277   3.923   3.523
 2446EOH      H 9789   6.238   4.010   3.227
 2447EOH      O 9790   4.660   2.664   6.171
 2447EOH      C 9791   4.746   2.734   6.261
 2447EOH      C 9792   4.729   2.647   6.386
 2447EOH      H 9793   4.714   2.639   6.097
 2448EOH      O 9794   4.092   5.091   5.544
 2448EOH      C 9795   4.209   5.063   5.621
 2448EOH      C 9796   4.275   4.943   5.551
 2448EOH      H 9797   4.036   5.142   5.601
 2449EOH      O 9798   3.425   3.198   5.755
 2449EOH      C 9799   3.436   3.334   5.712
 2449EOH      C 9800   3.347   3.352   5.588
 2449EOH      H 9801   3.487   3.143   5.709
 2450EOH      O 9802   2.062   4.056   0.336
 2450EOH      C 9803   2.081   4.164   0.244
 2450EOH      C 9804   2.078   4.112   0.099
 2450EOH      H 9805   1.982   4.086   0.376
 2451EOH      O 9806   5.269   5.876   3.636
 2451EOH      C 9807   5.163   5.972   3.647
 2451EOH      C 9808   5.032   5.929   3.577
 2451EOH      H 9809   5.353   5.918   3.639
 2452EOH      O 9810   2.448   2.442   1.401
 2452EOH      C 9811   2.390   2.573   1.405
 2452EOH      C 9812   2.495   2.671   1.350
 2452EOH      H 9813   2.382   2.374   1.412
 2453EOH      O 9814   3.646   3.575   4.327
 2453EOH      C 9815   3.540   3.645   4.394
 2453EOH      C 9816   3.479   3.564   4.510
 2453EOH      H 9817   3.723   3.618   4.361
 2454EOH      O 9818   0.996   2.149   4.014
 2454EOH      C 9819   0.935   2.278   4.002
 2454EOH      C 9820   0.791   2.254   3.954
 2454EOH      H 9821   1.010   2.120   3.925
 2455EOH      O 9822   5.099   3.802   5.732
 2455EOH      C 9823   5.059   3.755   5.603
 2455EOH      C 9824   5.015   3.608   5.614
 2455EOH      H 9825   5.043   3.873   5.757
 2456EOH      O 9826   5.354   3.537   2.819
 2456EOH      C 9827   5.293   3.433   2.896
 2456EOH      C 9828   5.168   3.482   2.971
 2456EOH      H 9829   5.337   3.515   2.729
 2457EOH      O 9830   6.084   4.253   0.734
 2457EOH      C 9831   6.054   4.219   0.599
 2457EOH      C 9832   5.973   4.342   0.552
 2457EOH      H 9833   6.010   4.231   0.789
 2458EOH      O 9834   2.215   3.336   5.854
 2458EOH      C 9835   2.216   3.455   5.776
 2458EOH      C 9836   2.365   3.486   5.751
 2458EOH      H 9837   2.130   3.325   5.893
 2459EOH      O 9838   4.775   2.866   3.090
 2459EOH      C 9839   4.843   2.960   3.173
 2459EOH      C 9840   4.808   2.909   3.314
 2459EOH      H 9841   4.744   2.908   3.012
 2460EOH      O 9842   1.477   5.330   5.530
 2460EOH      C 9843   1.503   5.190   5.539
 2460EOH      C 9844   1.640   5.164   5.604
 2460EOH      H 9845   1.383   5.333   5.518
 2461EOH      O 9846   6.031   0.603   3.492
 2461EOH      C 9847   6.025   0.627   3.633
 2461EOH      C 9848   6.165   0.621   3.696
 2461EOH      H 9849   5.944   0.586   3.459
 2462EOH      O 9850   6.104   4.578   5.772
 2462EOH      C 9851   6.008   4.669   5.827
 2462EOH      C 9852   6.009   4.799   5.745
 2462EOH      H 9853   6.060   4.540   5.697
 2463EOH      O 9854   4.319   5.315   2.475
 2463EOH      C 9855   4.194   5.378   2.500
 2463EOH      C 9856   4.074   5.308   2.434
 2463EOH      H 9857   4.372   5.306   2.553
 2464EOH      O 9858   2.616   2.273   1.514
 2464EOH      C 9859   2.754   2.311   1.505
 2464EOH      C 9860   2.836   2.188   1.462
 2464EOH      H 9861   2.565   2.352   1.499
 2465EOH      O 9862   5.018   3.269   4.657
 2465EOH      C 9863   5.141   3.304   4.722
 2465EOH      C 9864   5.140   3.298   4.876
 2465EOH      H 9865   4.980   3.349   4.625
 2466EOH      O 9866   5.807   3.544   3.752
 2466EOH      C 9867   5.683   3.613   3.737
 2466EOH      C 9868   5.583   3.605   3.854
 2466EOH      H 9869   5.870   3.594   3.701
 2467EOH      O 9870   2.220   3.750   1.332
 2467EOH      C 9871   2.186   3.886   1.358
 2467EOH      C 9872   2.313   3.970   1.381
 2467EOH      H 9873   2.189   3.706   1.410
 2468EOH      O 9874   3.358   0.805   4.347
 2468EOH      C 9875   3.266   0.696   4.340
 2468EOH      C 9876   3.143   0.721   4.430
 2468EOH      H 9877   3.431   0.775   4.294
 2469EOH      O 9878   3.559   1.937   0.473
 2469EOH      C 9879   3.467   1.832   0.503
 2469EOH      C 9880   3.462   1.811   0.656
 2469EOH      H 9881   3.563   1.928   0.379
 2470EOH      O 9882   5.823   5.332   0.464
 2470EOH      C 9883   5.757   5.205   0.463
 2470EOH      C 9884   5.692   5.192   0.602
 2470EOH      H 9885   5.830   5.354   0.373
 2471EOH      O 9886   0.014   1.706   2.174
 2471EOH      C 9887   0.019   1.583   2.248
 2471EOH      C 9888   0.123   1.588   2.361
 2471EOH      H 9889   0.073   1.696   2.100
 2472EOH      O 9890   3.762   3.951   2.544
 2472EOH      C 9891   3.631   3.950   2.600
 2472EOH      C 9892   3.549   3.821   2.584
 2472EOH      H 9893   3.817   3.983   2.614
 2473EOH      O 9894   4.365   1.400   3.780
 2473EOH      C 9895   4.269   1.460   3.867
 2473EOH      C 9896   4.291   1.398   4.007
 2473EOH      H 9897   4.449   1.439   3.800
 2474EOH      O 9898   1.341   2.550   0.635
 2474EOH      C 9899   1.358   2.578   0.774
 2474EOH      C 9900   1.263   2.496   0.864
 2474EOH      H 9901   1.358   2.458   0.630
 2475EOH      O 9902   3.169   1.354   1.263
 2475EOH      C 9903   3.269   1.251   1.270
 2475EOH      C 9904   3.384   1.289   1.175
 2475EOH      H 9905   3.083   1.316   1.271
 2476EOH      O 9906   2.164   1.034   5.712
 2476EOH      C 9907   2.265   0.966   5.786
 2476EOH      C 9908   2.223   0.906   5.921
 2476EOH      H 9909   2.154   1.119   5.752
 2477EOH      O 9910   3.634   1.253   5.273
 2477EOH      C 9911   3.586   1.334   5.166
 2477EOH      C 9912   3.451   1.277   5.120
 2477EOH      H 9913   3.662   1.169   5.238
 2478EOH      O 9914   1.744   3.510   5.735
 2478EOH      C 9915   1.765   3.623   5.650
 2478EOH      C 9916   1.914   3.660   5.654
 2478EOH      H 9917   1.658   3.474   5.720
 2479EOH      O 9918   3.417   4.677   4.340
 2479EOH      C 9919   3.301   4.744   4.290
 2479EOH      C 9920   3.330   4.792   4.147
 2479EOH      H 9921   3.430   4.698   4.431
 2480EOH      O 9922   4.649   0.862   4.434
 2480EOH      C 9923   4.537   0.934   4.487
 2480EOH      C 9924   4.412   0.848   4.462
 2480EOH      H 9925   4.670   0.787   4.486
 2481EOH      O 9926   4.423   3.586   4.743
 2481EOH      C 9927   4.493   3.501   4.835
 2481EOH      C 9928   4.439   3.358   4.812
 2481EOH      H 9929   4.336   3.551   4.755
 2482EOH      O 9930   5.468   2.816   4.193
 2482EOH      C 9931   5.439   2.947   4.143
 2482EOH      C 9932   5.438   2.977   3.992
 2482EOH      H 9933   5.562   2.812   4.182
 2483EOH      O 9934   3.310   0.435   3.204
 2483EOH      C 9935   3.211   0.360   3.275
 2483EOH      C 9936   3.108   0.321   3.167
 2483EOH      H 9937   3.262   0.512   3.177
 2484EOH      O 9938   3.131   2.315   2.710
 2484EOH      C 9939   3.059   2.210   2.645
 2484EOH      C 9940   2.914   2.216   2.696
 2484EOH      H 9941   3.201   2.278   2.761
 2485EOH      O 9942   0.739   5.887   5.893
 2485EOH      C 9943   0.769   5.829   6.020
 2485EOH      C 9944   0.641   5.835   6.107
 2485EOH      H 9945   0.717   5.978   5.901
 2486EOH      O 9946   6.296   0.732   1.181
 2486EOH      C 9947   6.348   0.864   1.195
 2486EOH      C 9948   6.265   0.976   1.130
 2486EOH      H 9949   6.223   0.715   1.238
 2487EOH      O 9950   4.430   5.226   2.213
 2487EOH      C 9951   4.482   5.346   2.155
 2487EOH      C 9952   4.603   5.400   2.233
 2487EOH      H 9953   4.397   5.243   2.300
 2488EOH      O 9954   5.140   4.052   0.579
 2488EOH      C 9955   5.150   4.170   0.499
 2488EOH      C 9956   5.033   4.261   0.540
 2488EOH      H 9957   5.058   4.007   0.566
 2489EOH      O 9958   1.792   5.122   0.392
 2489EOH      C 9959   1.931   5.153   0.410
 2489EOH      C 9960   1.950   5.306   0.400
 2489EOH      H 9961   1.765   5.142   0.481
 2490EOH      O 9962   0.301   3.423   3.755
 2490EOH      C 9963   0.233   3.298   3.741
 2490EOH      C 9964   0.218   3.225   3.876
 2490EOH      H 9965   0.361   3.430   3.683
 2491EOH      O 9966   0.827   0.617   0.045
 2491EOH      C 9967   0.859   0.492  -0.018
 2491EOH      C 9968   0.792   0.500  -0.156
 2491EOH      H 9969   0.865   0.618   0.132
 2492EOH      O 9970   4.035   5.269   3.406
 2492EOH      C 9971   4.048   5.409   3.432
 2492EOH      C 9972   3.951   5.483   3.338
 2492EOH      H 9973   4.125   5.239   3.408
 2493EOH      O 9974   6.064   1.536   1.023
 2493EOH      C 9975   6.139   1.531   1.145
 2493EOH      C 9976   6.184   1.384   1.157
 2493EOH      H 9977   5.977   1.567   1.043
 2494EOH      O 9978   1.775   5.652   5.619
 2494EOH      C 9979   1.835   5.530   5.662
 2494EOH      C 9980   1.940   5.494   5.555
 2494EOH      H 9981   1.703   5.631   5.561
 2495EOH      O 9982   0.218   3.990   2.402
 2495EOH      C 9983   0.322   4.063   2.469
 2495EOH      C 9984   0.272   4.200   2.519
 2495EOH      H 9985   0.259   3.908   2.379
 2496EOH      O 9986   2.224   1.191   4.430
 2496EOH      C 9987   2.097   1.171   4.492
 2496EOH      C 9988   2.104   1.209   4.641
 2496EOH      H 9989   2.225   1.152   4.344
 2497EOH      O 9990   4.519   2.944   3.892
 2497EOH      C 9991   4.464   3.055   3.964
 2497EOH      C 9992   4.362   3.010   4.070
 2497EOH      H 9993   4.533   2.872   3.952
 2498EOH      O 9994   3.480   0.453   1.728
 2498EOH      C 9995   3.531   0.507   1.850
 2498EOH      C 9996   3.582   0.386   1.931
 2498EOH      H 9997   3.547   0.427   1.666
 2499EOH      O 9998   5.051   5.525   3.534
 2499EOH      C 9999   5.060   5.450   3.655
 2499EOH      C10000   5.137   5.319   3.625
 2499EOH      H10001   5.138   5.559   3.518
 2500EOH      O10002   2.927   4.494   1.393
 2500EOH      C10003   2.945   4.457   1.530
 2500EOH      C10004   3.095   4.457   1.565
 2500EOH      H10005   2.971   4.576   1.375
 2501EOH      O10006   4.029   4.473   4.525
 2501EOH      C10007   4.141   4.561   4.520
 2501EOH      C10008   4.228   4.522   4.641
 2501EOH      H10009   3.999   4.444   4.441
 2502EOH      O10010   3.717   4.419   5.410
 2502EOH      C10011   3.579   4.454   5.426
 2502EOH      C10012   3.575   4.606   5.449
 2502EOH      H10013   3.714   4.325   5.400
 2503EOH      O10014   2.965   3.837   0.779
 2503EOH      C10015   3.031   3.795   0.659
 2503EOH      C10016   3.176   3.844   0.653
 2503EOH      H10017   2.875   3.808   0.775
 2504EOH      O10018   3.214   4.745   5.207
 2504EOH      C10019   3.238   4.800   5.337
 2504EOH      C10020   3.118   4.891   5.368
 2504EOH      H10021   3.164   4.666   5.221
 2505EOH      O10022   5.970   0.986   4.493
 2505EOH      C10023   5.976   0.895   4.383
 2505EOH      C10024   6.104   0.893   4.298
 2505EOH      H10025   5.877   1.004   4.498
 2506EOH      O10026   2.392   4.448   0.009
 2506EOH      C10027   2.400   4.531   0.126
 2506EOH      C10028   2.324   4.459   0.239
 2506EOH      H10029   2.459   4.382   0.016
 2507EOH      O10030   5.771   2.547   3.395
 2507EOH      C10031   5.907   2.590   3.408
 2507EOH      C10032   5.983   2.594   3.274
 2507EOH      H10033   5.712   2.611   3.433
 2508EOH      O10034   2.019   5.982   5.028
 2508EOH      C10035   2.115   6.084   5.056
 2508EOH      C10036   2.067   6.196   5.149
 2508EOH      H10037   2.019   5.919   5.099
 2509EOH      O10038   5.073   1.251   4.338
 2509EOH      C10039   5.203   1.305   4.315
 2509EOH      C10040   5.277   1.299   4.450
 2509EOH      H10041   5.051   1.215   4.254
 2510EOH      O10042   4.168   0.979   6.240
 2510EOH      C10043   4.228   0.873   6.165
 2510EOH      C10044   4.261   0.924   6.023
 2510EOH      H10045   4.100   1.023   6.190
 2511EOH      O10046   2.811   3.316   1.752
 2511EOH      C10047   2.866   3.230   1.852
 2511EOH      C10048   2.791   3.263   1.982
 2511EOH      H10049   2.869   3.314   1.677
 2512EOH      O10050   5.486   0.317   3.005
 2512EOH      C10051   5.355   0.313   2.948
 2512EOH      C10052   5.322   0.162   2.957
 2512EOH      H10053   5.557   0.313   2.944
 2513EOH      O10054   1.023   5.167   1.955
 2513EOH      C10055   1.100   5.200   1.839
 2513EOH      C10056   1.245   5.169   1.881
 2513EOH      H10057   0.952   5.230   1.952
 2514EOH      O10058   0.959   1.837   3.832
 2514EOH      C10059   0.873   1.843   3.945
 2514EOH      C10060   0.733   1.883   3.895
 2514EOH      H10061   0.921   1.775   3.771
 2515EOH      O10062   0.450   3.404   3.537
 2515EOH      C10063   0.552   3.504   3.529
 2515EOH      C10064   0.506   3.622   3.442
 2515EOH      H10065   0.479   3.317   3.518
 2516EOH      O10066   3.263   5.639   4.180
 2516EOH      C10067   3.220   5.760   4.116
 2516EOH      C10068   3.321   5.872   4.144
 2516EOH      H10069   3.200   5.579   4.142
 2517EOH      O10070   5.749   0.399   4.654
 2517EOH      C10071   5.837   0.511   4.668
 2517EOH      C10072   5.792   0.616   4.564
 2517EOH      H10073   5.771   0.343   4.727
 2518EOH      O10074   3.520   5.417   3.691
 2518EOH      C10075   3.496   5.556   3.711
 2518EOH      C10076   3.357   5.620   3.690
 2518EOH      H10077   3.589   5.392   3.750
 2519EOH      O10078   6.135   2.018   5.418
 2519EOH      C10079   6.066   1.971   5.534
 2519EOH      C10080   6.175   1.978   5.642
 2519EOH      H10081   6.066   2.022   5.354
 2520EOH      O10082   2.964   1.425   3.557
 2520EOH      C10083   3.041   1.395   3.440
 2520EOH      C10084   2.948   1.374   3.319
 2520EOH      H10085   2.949   1.342   3.601
 2521EOH      O10086   1.638   0.815   5.199
 2521EOH      C10087   1.683   0.693   5.139
 2521EOH      C10088   1.757   0.717   5.007
 2521EOH      H10089   1.591   0.787   5.276
 2522EOH      O10090   3.083   0.505   1.741
 2522EOH      C10091   3.134   0.624   1.802
 2522EOH      C10092   3.015   0.700   1.865
 2522EOH      H10093   3.145   0.473   1.677
 2523EOH      O10094   2.678   3.389   3.813
 2523EOH      C10095   2.745   3.322   3.919
 2523EOH      C10096   2.880   3.296   3.850
 2523EOH      H10097   2.628   3.463   3.845
 2524EOH      O10098   1.040   2.066   3.757
 2524EOH      C10099   1.014   2.054   3.617
 2524EOH      C10100   1.134   2.008   3.533
 2524EOH      H10101   1.031   1.977   3.788
 2525EOH      O10102   2.118   1.277   5.827
 2525EOH      C10103   2.051   1.282   5.953
 2525EOH      C10104   2.035   1.427   6.001
 2525EOH      H10105   2.097   1.358   5.782
 2526EOH      O10106   5.128   1.152   3.077
 2526EOH      C10107   5.114   1.110   2.941
 2526EOH      C10108   5.163   0.965   2.927
 2526EOH      H10109   5.220   1.146   3.098
 2527EOH      O10110   4.817   2.238   4.314
 2527EOH      C10111   4.758   2.221   4.185
 2527EOH      C10112   4.813   2.101   4.105
 2527EOH      H10113   4.783   2.312   4.362
 2528EOH      O10114   5.721   2.776   4.206
 2528EOH      C10115   5.846   2.823   4.256
 2528EOH      C10116   5.826   2.960   4.324
 2528EOH      H10117   5.722   2.683   4.225
 2529EOH      O10118   0.986   6.164   3.299
 2529EOH      C10119   0.985   6.021   3.291
 2529EOH      C10120   1.134   5.983   3.292
 2529EOH      H10121   0.905   6.197   3.334
 2530EOH      O10122   5.811   4.798   0.269
 2530EOH      C10123   5.933   4.735   0.310
 2530EOH      C10124   5.946   4.784   0.456
 2530EOH      H10125   5.740   4.767   0.324
 2531EOH      O10126   2.428   1.572   1.550
 2531EOH      C10127   2.490   1.697   1.580
 2531EOH      C10128   2.636   1.690   1.532
 2531EOH      H10129   2.454   1.517   1.623
 2532EOH      O10130   4.798   0.103   4.992
 2532EOH      C10131   4.822  -0.033   5.028
 2532EOH      C10132   4.715  -0.092   5.122
 2532EOH      H10133   4.722   0.102   4.935
 2533EOH      O10134   3.944   0.767   4.699
 2533EOH      C10135   3.983   0.763   4.562
 2533EOH      C10136   3.940   0.898   4.500
 2533EOH      H10137   4.002   0.826   4.745
 2534EOH      O10138   6.153   1.710   0.828
 2534EOH      C10139   6.269   1.675   0.752
 2534EOH      C10140   6.379   1.668   0.859
 2534EOH      H10141   6.138   1.638   0.888
 2535EOH      O10142   1.528   2.828   5.630
 2535EOH      C10143   1.630   2.826   5.529
 2535EOH      C10144   1.557   2.741   5.424
 2535EOH      H10145   1.562   2.847   5.716
 2536EOH      O10146   0.712   1.779   5.024
 2536EOH      C10147   0.725   1.907   4.960
 2536EOH      C10148   0.639   2.010   5.036
 2536EOH      H10149   0.656   1.726   4.969
 2537EOH      O10150   3.422   5.144   3.739
 2537EOH      C10151   3.371   5.155   3.872
 2537EOH      C10152   3.231   5.219   3.863
 2537EOH      H10153   3.448   5.231   3.713
 2538EOH      O10154   3.789   2.636   4.222
 2538EOH      C10155   3.921   2.584   4.201
 2538EOH      C10156   3.951   2.456   4.281
 2538EOH      H10157   3.796   2.730   4.215
 2539EOH      O10158   1.043   5.664   3.637
 2539EOH      C10159   1.030   5.750   3.751
 2539EOH      C10160   1.069   5.895   3.720
 2539EOH      H10161   1.110   5.601   3.657
 2540EOH      O10162   5.465   5.896   4.117
 2540EOH      C10163   5.421   6.029   4.145
 2540EOH      C10164   5.345   6.101   4.032
 2540EOH      H10165   5.392   5.861   4.068
 2541EOH      O10166   2.965   4.836   0.881
 2541EOH      C10167   2.974   4.852   1.023
 2541EOH      C10168   3.028   4.992   1.060
 2541EOH      H10169   3.045   4.793   0.853
 2542EOH      O10170   1.256   4.751   4.804
 2542EOH      C10171   1.138   4.824   4.835
 2542EOH      C10172   1.197   4.956   4.890
 2542EOH      H10173   1.227   4.662   4.817
 2543EOH      O10174   5.440   0.597   4.169
 2543EOH      C10175   5.384   0.491   4.247
 2543EOH      C10176   5.467   0.490   4.377
 2543EOH      H10177   5.506   0.561   4.112
 2544EOH      O10178   0.504   6.240   0.323
 2544EOH      C10179   0.529   6.279   0.188
 2544EOH      C10180   0.611   6.409   0.181
 2544EOH      H10181   0.435   6.175   0.321
 2545EOH      O10182   3.870   0.483   5.514
 2545EOH      C10183   3.863   0.575   5.404
 2545EOH      C10184   4.007   0.630   5.392
 2545EOH      H10185   3.862   0.396   5.479
 2546EOH      O10186   5.622   0.513   4.012
 2546EOH      C10187   5.742   0.565   3.955
 2546EOH      C10188   5.844   0.570   4.071
 2546EOH      H10189   5.588   0.450   3.950
 2547EOH      O10190   4.375   2.553   4.015
 2547EOH      C10191   4.293   2.616   3.916
 2547EOH      C10192   4.198   2.725   3.971
 2547EOH      H10193   4.427   2.486   3.972
 2548EOH      O10194   4.677   2.945   4.342
 2548EOH      C10195   4.642   2.886   4.468
 2548EOH      C10196   4.598   3.003   4.557
 2548EOH      H10197   4.676   2.865   4.292
 2549EOH      O10198   0.806   2.666   5.838
 2549EOH      C10199   0.898   2.656   5.729
 2549EOH      C10200   0.876   2.780   5.641
 2549EOH      H10201   0.829   2.594   5.894
 2550EOH      O10202   0.167   5.755   0.911
 2550EOH      C10203   0.127   5.888   0.943
 2550EOH      C10204   0.230   5.934   1.048
 2550EOH      H10205   0.127   5.729   0.829
 2551EOH      O10206   5.613   6.155   3.245
 2551EOH      C10207   5.679   6.197   3.126
 2551EOH      C10208   5.820   6.136   3.108
 2551EOH      H10209   5.528   6.127   3.216
 2552EOH      O10210   5.001   1.138   3.288
 2552EOH      C10211   4.862   1.166   3.275
 2552EOH      C10212   4.791   1.087   3.163
 2552EOH      H10213   5.032   1.155   3.200
 2553EOH      O10214   0.144   4.298   1.056
 2553EOH      C10215   0.083   4.266   1.181
 2553EOH      C10216   0.187   4.271   1.295
 2553EOH      H10217   0.078   4.283   0.990
 2554EOH      O10218   3.248   4.482   2.987
 2554EOH      C10219   3.334   4.480   3.101
 2554EOH      C10220   3.271   4.552   3.222
 2554EOH      H10221   3.179   4.420   3.007
 2555EOH      O10222   2.327   4.599   1.575
 2555EOH      C10223   2.427   4.662   1.494
 2555EOH      C10224   2.571   4.627   1.538
 2555EOH      H10225   2.240   4.615   1.543
 2556EOH      O10226   3.476   1.906   6.293
 2556EOH      C10227   3.474   2.022   6.210
 2556EOH      C10228   3.572   2.121   6.276
 2556EOH      H10229   3.426   1.836   6.253
 2557EOH      O10230   1.052   3.011   1.011
 2557EOH      C10231   1.187   3.050   0.983
 2557EOH      C10232   1.268   2.919   0.980
 2557EOH      H10233   1.011   3.090   1.042
 2558EOH      O10234   5.067   5.637   2.551
 2558EOH      C10235   4.952   5.644   2.466
 2558EOH      C10236   4.889   5.784   2.477
 2558EOH      H10237   5.048   5.595   2.633
 2559EOH      O10238   2.914   1.730   0.878
 2559EOH      C10239   2.782   1.692   0.916
 2559EOH      C10240   2.733   1.576   0.827
 2559EOH      H10241   2.976   1.689   0.937
 2560EOH      O10242   0.340   1.603   5.176
 2560EOH      C10243   0.405   1.730   5.187
 2560EOH      C10244   0.517   1.725   5.293
 2560EOH      H10245   0.317   1.572   5.262
 2561EOH      O10246   6.009   1.891   0.910
 2561EOH      C10247   5.932   1.977   0.826
 2561EOH      C10248   5.861   2.090   0.902
 2561EOH      H10249   6.058   1.823   0.867
 2562EOH      O10250   4.510   3.526   3.761
 2562EOH      C10251   4.475   3.522   3.899
 2562EOH      C10252   4.324   3.496   3.912
 2562EOH      H10253   4.521   3.440   3.724
 2563EOH      O10254   2.048   4.912   4.070
 2563EOH      C10255   2.111   4.973   4.183
 2563EOH      C10256   2.262   4.946   4.170
 2563EOH      H10257   1.957   4.938   4.065
 2564EOH      O10258   2.757   5.792   1.655
 2564EOH      C10259   2.793   5.695   1.753
 2564EOH      C10260   2.861   5.568   1.699
 2564EOH      H10261   2.836   5.841   1.639
 2565EOH      O10262   5.648   4.801   0.045
 2565EOH      C10263   5.739   4.868  -0.042
 2565EOH      C10264   5.756   4.780  -0.167
 2565EOH      H10265   5.685   4.804   0.132
 2566EOH      O10266   5.477   1.192   5.593
 2566EOH      C10267   5.536   1.262   5.483
 2566EOH      C10268   5.434   1.299   5.375
 2566EOH      H10269   5.554   1.157   5.636
 2567EOH      O10270   0.079   0.307   6.175
 2567EOH      C10271   0.124   0.438   6.214
 2567EOH      C10272   0.194   0.432   6.351
 2567EOH      H10273   0.084   0.291   6.083
 2568EOH      O10274   1.250   0.333   1.973
 2568EOH      C10275   1.230   0.421   2.084
 2568EOH      C10276   1.237   0.352   2.221
 2568EOH      H10277   1.319   0.366   1.918
   6.31126   6.31126   6.31126
